# vtk DataFile Version 3.0
#This file was generated by the deal.II library on 2017/6/2 at 12:19:55
ASCII
DATASET UNSTRUCTURED_GRID

POINTS 1024 double
0 0 0
0.0981748 0 0
0 0.125 0
0.0981748 0.125 0
0.0981748 0 0
0.19635 0 0
0.0981748 0.125 0
0.19635 0.125 0
0 0.125 0
0.0981748 0.125 0
0 0.25 0
0.0981748 0.25 0
0.0981748 0.125 0
0.19635 0.125 0
0.0981748 0.25 0
0.19635 0.25 0
0.19635 0 0
0.294524 0 0
0.19635 0.125 0
0.294524 0.125 0
0.294524 0 0
0.392699 0 0
0.294524 0.125 0
0.392699 0.125 0
0.19635 0.125 0
0.294524 0.125 0
0.19635 0.25 0
0.294524 0.25 0
0.294524 0.125 0
0.392699 0.125 0
0.294524 0.25 0
0.392699 0.25 0
0 0.25 0
0.0981748 0.25 0
0 0.375 0
0.0981748 0.375 0
0.0981748 0.25 0
0.19635 0.25 0
0.0981748 0.375 0
0.19635 0.375 0
0 0.375 0
0.0981748 0.375 0
0 0.5 0
0.0981748 0.5 0
0.0981748 0.375 0
0.19635 0.375 0
0.0981748 0.5 0
0.19635 0.5 0
0.19635 0.25 0
0.294524 0.25 0
0.19635 0.375 0
0.294524 0.375 0
0.294524 0.25 0
0.392699 0.25 0
0.294524 0.375 0
0.392699 0.375 0
0.19635 0.375 0
0.294524 0.375 0
0.19635 0.5 0
0.294524 0.5 0
0.294524 0.375 0
0.392699 0.375 0
0.294524 0.5 0
0.392699 0.5 0
0.392699 0 0
0.490874 0 0
0.392699 0.125 0
0.490874 0.125 0
0.490874 0 0
0.589049 0 0
0.490874 0.125 0
0.589049 0.125 0
0.392699 0.125 0
0.490874 0.125 0
0.392699 0.25 0
0.490874 0.25 0
0.490874 0.125 0
0.589049 0.125 0
0.490874 0.25 0
0.589049 0.25 0
0.589049 0 0
0.687223 0 0
0.589049 0.125 0
0.687223 0.125 0
0.687223 0 0
0.785398 0 0
0.687223 0.125 0
0.785398 0.125 0
0.589049 0.125 0
0.687223 0.125 0
0.589049 0.25 0
0.687223 0.25 0
0.687223 0.125 0
0.785398 0.125 0
0.687223 0.25 0
0.785398 0.25 0
0.392699 0.25 0
0.490874 0.25 0
0.392699 0.375 0
0.490874 0.375 0
0.490874 0.25 0
0.589049 0.25 0
0.490874 0.375 0
0.589049 0.375 0
0.392699 0.375 0
0.490874 0.375 0
0.392699 0.5 0
0.490874 0.5 0
0.490874 0.375 0
0.589049 0.375 0
0.490874 0.5 0
0.589049 0.5 0
0.589049 0.25 0
0.687223 0.25 0
0.589049 0.375 0
0.687223 0.375 0
0.687223 0.25 0
0.785398 0.25 0
0.687223 0.375 0
0.785398 0.375 0
0.589049 0.375 0
0.687223 0.375 0
0.589049 0.5 0
0.687223 0.5 0
0.687223 0.375 0
0.785398 0.375 0
0.687223 0.5 0
0.785398 0.5 0
0 0.5 0
0.0981748 0.5 0
0 0.625 0
0.0981748 0.625 0
0.0981748 0.5 0
0.19635 0.5 0
0.0981748 0.625 0
0.19635 0.625 0
0 0.625 0
0.0981748 0.625 0
0 0.75 0
0.0981748 0.75 0
0.0981748 0.625 0
0.19635 0.625 0
0.0981748 0.75 0
0.19635 0.75 0
0.19635 0.5 0
0.294524 0.5 0
0.19635 0.625 0
0.294524 0.625 0
0.294524 0.5 0
0.392699 0.5 0
0.294524 0.625 0
0.392699 0.625 0
0.19635 0.625 0
0.294524 0.625 0
0.19635 0.75 0
0.294524 0.75 0
0.294524 0.625 0
0.392699 0.625 0
0.294524 0.75 0
0.392699 0.75 0
0 0.75 0
0.0981748 0.75 0
0 0.875 0
0.0981748 0.875 0
0.0981748 0.75 0
0.19635 0.75 0
0.0981748 0.875 0
0.19635 0.875 0
0 0.875 0
0.0981748 0.875 0
0 1 0
0.0981748 1 0
0.0981748 0.875 0
0.19635 0.875 0
0.0981748 1 0
0.19635 1 0
0.19635 0.75 0
0.294524 0.75 0
0.19635 0.875 0
0.294524 0.875 0
0.294524 0.75 0
0.392699 0.75 0
0.294524 0.875 0
0.392699 0.875 0
0.19635 0.875 0
0.294524 0.875 0
0.19635 1 0
0.294524 1 0
0.294524 0.875 0
0.392699 0.875 0
0.294524 1 0
0.392699 1 0
0.392699 0.5 0
0.490874 0.5 0
0.392699 0.625 0
0.490874 0.625 0
0.490874 0.5 0
0.589049 0.5 0
0.490874 0.625 0
0.589049 0.625 0
0.392699 0.625 0
0.490874 0.625 0
0.392699 0.75 0
0.490874 0.75 0
0.490874 0.625 0
0.589049 0.625 0
0.490874 0.75 0
0.589049 0.75 0
0.589049 0.5 0
0.687223 0.5 0
0.589049 0.625 0
0.687223 0.625 0
0.687223 0.5 0
0.785398 0.5 0
0.687223 0.625 0
0.785398 0.625 0
0.589049 0.625 0
0.687223 0.625 0
0.589049 0.75 0
0.687223 0.75 0
0.687223 0.625 0
0.785398 0.625 0
0.687223 0.75 0
0.785398 0.75 0
0.392699 0.75 0
0.490874 0.75 0
0.392699 0.875 0
0.490874 0.875 0
0.490874 0.75 0
0.589049 0.75 0
0.490874 0.875 0
0.589049 0.875 0
0.392699 0.875 0
0.490874 0.875 0
0.392699 1 0
0.490874 1 0
0.490874 0.875 0
0.589049 0.875 0
0.490874 1 0
0.589049 1 0
0.589049 0.75 0
0.687223 0.75 0
0.589049 0.875 0
0.687223 0.875 0
0.687223 0.75 0
0.785398 0.75 0
0.687223 0.875 0
0.785398 0.875 0
0.589049 0.875 0
0.687223 0.875 0
0.589049 1 0
0.687223 1 0
0.687223 0.875 0
0.785398 0.875 0
0.687223 1 0
0.785398 1 0
0.785398 0 0
0.883573 0 0
0.785398 0.125 0
0.883573 0.125 0
0.883573 0 0
0.981748 0 0
0.883573 0.125 0
0.981748 0.125 0
0.785398 0.125 0
0.883573 0.125 0
0.785398 0.25 0
0.883573 0.25 0
0.883573 0.125 0
0.981748 0.125 0
0.883573 0.25 0
0.981748 0.25 0
0.981748 0 0
1.07992 0 0
0.981748 0.125 0
1.07992 0.125 0
1.07992 0 0
1.1781 0 0
1.07992 0.125 0
1.1781 0.125 0
0.981748 0.125 0
1.07992 0.125 0
0.981748 0.25 0
1.07992 0.25 0
1.07992 0.125 0
1.1781 0.125 0
1.07992 0.25 0
1.1781 0.25 0
0.785398 0.25 0
0.883573 0.25 0
0.785398 0.375 0
0.883573 0.375 0
0.883573 0.25 0
0.981748 0.25 0
0.883573 0.375 0
0.981748 0.375 0
0.785398 0.375 0
0.883573 0.375 0
0.785398 0.5 0
0.883573 0.5 0
0.883573 0.375 0
0.981748 0.375 0
0.883573 0.5 0
0.981748 0.5 0
0.981748 0.25 0
1.07992 0.25 0
0.981748 0.375 0
1.07992 0.375 0
1.07992 0.25 0
1.1781 0.25 0
1.07992 0.375 0
1.1781 0.375 0
0.981748 0.375 0
1.07992 0.375 0
0.981748 0.5 0
1.07992 0.5 0
1.07992 0.375 0
1.1781 0.375 0
1.07992 0.5 0
1.1781 0.5 0
1.1781 0 0
1.27627 0 0
1.1781 0.125 0
1.27627 0.125 0
1.27627 0 0
1.37445 0 0
1.27627 0.125 0
1.37445 0.125 0
1.1781 0.125 0
1.27627 0.125 0
1.1781 0.25 0
1.27627 0.25 0
1.27627 0.125 0
1.37445 0.125 0
1.27627 0.25 0
1.37445 0.25 0
1.37445 0 0
1.47262 0 0
1.37445 0.125 0
1.47262 0.125 0
1.47262 0 0
1.5708 0 0
1.47262 0.125 0
1.5708 0.125 0
1.37445 0.125 0
1.47262 0.125 0
1.37445 0.25 0
1.47262 0.25 0
1.47262 0.125 0
1.5708 0.125 0
1.47262 0.25 0
1.5708 0.25 0
1.1781 0.25 0
1.27627 0.25 0
1.1781 0.375 0
1.27627 0.375 0
1.27627 0.25 0
1.37445 0.25 0
1.27627 0.375 0
1.37445 0.375 0
1.1781 0.375 0
1.27627 0.375 0
1.1781 0.5 0
1.27627 0.5 0
1.27627 0.375 0
1.37445 0.375 0
1.27627 0.5 0
1.37445 0.5 0
1.37445 0.25 0
1.47262 0.25 0
1.37445 0.375 0
1.47262 0.375 0
1.47262 0.25 0
1.5708 0.25 0
1.47262 0.375 0
1.5708 0.375 0
1.37445 0.375 0
1.47262 0.375 0
1.37445 0.5 0
1.47262 0.5 0
1.47262 0.375 0
1.5708 0.375 0
1.47262 0.5 0
1.5708 0.5 0
0.785398 0.5 0
0.883573 0.5 0
0.785398 0.625 0
0.883573 0.625 0
0.883573 0.5 0
0.981748 0.5 0
0.883573 0.625 0
0.981748 0.625 0
0.785398 0.625 0
0.883573 0.625 0
0.785398 0.75 0
0.883573 0.75 0
0.883573 0.625 0
0.981748 0.625 0
0.883573 0.75 0
0.981748 0.75 0
0.981748 0.5 0
1.07992 0.5 0
0.981748 0.625 0
1.07992 0.625 0
1.07992 0.5 0
1.1781 0.5 0
1.07992 0.625 0
1.1781 0.625 0
0.981748 0.625 0
1.07992 0.625 0
0.981748 0.75 0
1.07992 0.75 0
1.07992 0.625 0
1.1781 0.625 0
1.07992 0.75 0
1.1781 0.75 0
0.785398 0.75 0
0.883573 0.75 0
0.785398 0.875 0
0.883573 0.875 0
0.883573 0.75 0
0.981748 0.75 0
0.883573 0.875 0
0.981748 0.875 0
0.785398 0.875 0
0.883573 0.875 0
0.785398 1 0
0.883573 1 0
0.883573 0.875 0
0.981748 0.875 0
0.883573 1 0
0.981748 1 0
0.981748 0.75 0
1.07992 0.75 0
0.981748 0.875 0
1.07992 0.875 0
1.07992 0.75 0
1.1781 0.75 0
1.07992 0.875 0
1.1781 0.875 0
0.981748 0.875 0
1.07992 0.875 0
0.981748 1 0
1.07992 1 0
1.07992 0.875 0
1.1781 0.875 0
1.07992 1 0
1.1781 1 0
1.1781 0.5 0
1.27627 0.5 0
1.1781 0.625 0
1.27627 0.625 0
1.27627 0.5 0
1.37445 0.5 0
1.27627 0.625 0
1.37445 0.625 0
1.1781 0.625 0
1.27627 0.625 0
1.1781 0.75 0
1.27627 0.75 0
1.27627 0.625 0
1.37445 0.625 0
1.27627 0.75 0
1.37445 0.75 0
1.37445 0.5 0
1.47262 0.5 0
1.37445 0.625 0
1.47262 0.625 0
1.47262 0.5 0
1.5708 0.5 0
1.47262 0.625 0
1.5708 0.625 0
1.37445 0.625 0
1.47262 0.625 0
1.37445 0.75 0
1.47262 0.75 0
1.47262 0.625 0
1.5708 0.625 0
1.47262 0.75 0
1.5708 0.75 0
1.1781 0.75 0
1.27627 0.75 0
1.1781 0.875 0
1.27627 0.875 0
1.27627 0.75 0
1.37445 0.75 0
1.27627 0.875 0
1.37445 0.875 0
1.1781 0.875 0
1.27627 0.875 0
1.1781 1 0
1.27627 1 0
1.27627 0.875 0
1.37445 0.875 0
1.27627 1 0
1.37445 1 0
1.37445 0.75 0
1.47262 0.75 0
1.37445 0.875 0
1.47262 0.875 0
1.47262 0.75 0
1.5708 0.75 0
1.47262 0.875 0
1.5708 0.875 0
1.37445 0.875 0
1.47262 0.875 0
1.37445 1 0
1.47262 1 0
1.47262 0.875 0
1.5708 0.875 0
1.47262 1 0
1.5708 1 0
1.5708 0 0
1.66897 0 0
1.5708 0.125 0
1.66897 0.125 0
1.66897 0 0
1.76715 0 0
1.66897 0.125 0
1.76715 0.125 0
1.5708 0.125 0
1.66897 0.125 0
1.5708 0.25 0
1.66897 0.25 0
1.66897 0.125 0
1.76715 0.125 0
1.66897 0.25 0
1.76715 0.25 0
1.76715 0 0
1.86532 0 0
1.76715 0.125 0
1.86532 0.125 0
1.86532 0 0
1.9635 0 0
1.86532 0.125 0
1.9635 0.125 0
1.76715 0.125 0
1.86532 0.125 0
1.76715 0.25 0
1.86532 0.25 0
1.86532 0.125 0
1.9635 0.125 0
1.86532 0.25 0
1.9635 0.25 0
1.5708 0.25 0
1.66897 0.25 0
1.5708 0.375 0
1.66897 0.375 0
1.66897 0.25 0
1.76715 0.25 0
1.66897 0.375 0
1.76715 0.375 0
1.5708 0.375 0
1.66897 0.375 0
1.5708 0.5 0
1.66897 0.5 0
1.66897 0.375 0
1.76715 0.375 0
1.66897 0.5 0
1.76715 0.5 0
1.76715 0.25 0
1.86532 0.25 0
1.76715 0.375 0
1.86532 0.375 0
1.86532 0.25 0
1.9635 0.25 0
1.86532 0.375 0
1.9635 0.375 0
1.76715 0.375 0
1.86532 0.375 0
1.76715 0.5 0
1.86532 0.5 0
1.86532 0.375 0
1.9635 0.375 0
1.86532 0.5 0
1.9635 0.5 0
1.9635 0 0
2.06167 0 0
1.9635 0.125 0
2.06167 0.125 0
2.06167 0 0
2.15984 0 0
2.06167 0.125 0
2.15984 0.125 0
1.9635 0.125 0
2.06167 0.125 0
1.9635 0.25 0
2.06167 0.25 0
2.06167 0.125 0
2.15984 0.125 0
2.06167 0.25 0
2.15984 0.25 0
2.15984 0 0
2.25802 0 0
2.15984 0.125 0
2.25802 0.125 0
2.25802 0 0
2.35619 0 0
2.25802 0.125 0
2.35619 0.125 0
2.15984 0.125 0
2.25802 0.125 0
2.15984 0.25 0
2.25802 0.25 0
2.25802 0.125 0
2.35619 0.125 0
2.25802 0.25 0
2.35619 0.25 0
1.9635 0.25 0
2.06167 0.25 0
1.9635 0.375 0
2.06167 0.375 0
2.06167 0.25 0
2.15984 0.25 0
2.06167 0.375 0
2.15984 0.375 0
1.9635 0.375 0
2.06167 0.375 0
1.9635 0.5 0
2.06167 0.5 0
2.06167 0.375 0
2.15984 0.375 0
2.06167 0.5 0
2.15984 0.5 0
2.15984 0.25 0
2.25802 0.25 0
2.15984 0.375 0
2.25802 0.375 0
2.25802 0.25 0
2.35619 0.25 0
2.25802 0.375 0
2.35619 0.375 0
2.15984 0.375 0
2.25802 0.375 0
2.15984 0.5 0
2.25802 0.5 0
2.25802 0.375 0
2.35619 0.375 0
2.25802 0.5 0
2.35619 0.5 0
1.5708 0.5 0
1.66897 0.5 0
1.5708 0.625 0
1.66897 0.625 0
1.66897 0.5 0
1.76715 0.5 0
[...]
POINT_DATA 1024
SCALARS u double 1
LOOKUP_TABLE default
0 -4.63871e-16 0 -2.26305e-15 -4.63871e-16 -1.07573e-15 -2.26305e-15 -2.29215e-15 0 -1.43082e-15 0 -1.77805e-15 -1.43082e-15 -1.27376e-15 -1.77805e-15 -4.73754e-16 -1.07573e-15 -1.07992e-15 -2.29215e-15 4.69808e-16 -1.07992e-15 -8.51536e-16 4.69808e-16 -3.48786e-15 -1.27376e-15 -6.25519e-15 -4.73754e-16 -4.90056e-16 -6.25519e-15 1.99472e-16 -4.90056e-16 -5.05294e-15 0 -3.65035e-15 0 -2.22034e-15 -3.65035e-15 -8.83574e-15 -2.22034e-15 -6.32334e-15 0 -7.80129e-15 0 -1.94033e-15 -7.80129e-15 -1.97964e-15 -1.94033e-15 -2.54674e-15 -8.83574e-15 -4.38338e-15 -6.32334e-15 1.2626e-15 -4.38338e-15 -1.14194e-16 1.2626e-15 -4.20125e-15 -1.97964e-15 -8.5079e-15 -2.54674e-15 1.56035e-15 -8.5079e-15 -4.31065e-15 1.56035e-15 -7.55182e-15 -8.51536e-16 -6.31411e-16 -3.48786e-15 -1.43032e-15 -6.31411e-16 -1.81048e-15 -1.43032e-15 -4.78272e-16 1.99472e-16 -2.20314e-15 -5.05294e-15 -4.01478e-15 -2.20314e-15 -7.15831e-15 -4.01478e-15 -4.62214e-15 -1.81048e-15 -2.34782e-15 -4.78272e-16 -1.34266e-15 -2.34782e-15 -6.37795e-16 -1.34266e-15 -9.58125e-16 -7.15831e-15 -5.80413e-16 -4.62214e-15 1.85028e-15 -5.80413e-16 -2.47126e-15 1.85028e-15 -3.43212e-15 -1.14194e-16 8.11752e-16 -4.20125e-15 4.57995e-15 8.11752e-16 -3.96958e-15 4.57995e-15 1.247e-15 -4.31065e-15 -7.40375e-15 -7.55182e-15 1.19511e-15 -7.40375e-15 -1.13258e-14 1.19511e-15 1.41762e-15 -3.96958e-15 -5.73641e-15 1.247e-15 7.21166e-15 -5.73641e-15 2.85627e-15 7.21166e-15 3.48068e-16 -1.13258e-14 -1.32359e-14 1.41762e-15 -3.71292e-16 -1.32359e-14 3.30064e-15 -3.71292e-16 -3.34114e-15 0 -3.1762e-15 0 2.56253e-15 -3.1762e-15 -4.01859e-15 2.56253e-15 -2.15449e-15 0 -1.10653e-14 0 -2.12763e-16 -1.10653e-14 -6.29003e-15 -2.12763e-16 -8.15452e-15 -4.01859e-15 -1.45337e-14 -2.15449e-15 -9.56689e-15 -1.45337e-14 -3.24145e-15 -9.56689e-15 -2.34955e-15 -6.29003e-15 -1.74997e-14 -8.15452e-15 -9.25789e-15 -1.74997e-14 -6.19271e-15 -9.25789e-15 -9.37212e-15 0 -1.35267e-14 0 -9.70607e-15 -1.35267e-14 -7.29771e-16 -9.70607e-15 -4.01405e-15 0 8.49305e-15 0 2.03522e-14 8.49305e-15 -6.32814e-15 2.03522e-14 -1.1256e-14 -7.29771e-16 -9.22691e-15 -4.01405e-15 3.40672e-15 -9.22691e-15 -6.28012e-15 3.40672e-15 -4.29633e-15 -6.32814e-15 -1.5076e-14 -1.1256e-14 1.39492e-15 -1.5076e-14 2.34471e-15 1.39492e-15 1.23454e-14 -3.24145e-15 -6.21217e-15 -2.34955e-15 1.92533e-15 -6.21217e-15 -1.61733e-14 1.92533e-15 -1.27521e-14 -6.19271e-15 -1.39245e-14 -9.37212e-15 -8.60768e-15 -1.39245e-14 4.93286e-16 -8.60768e-15 2.89841e-15 -1.61733e-14 -8.01029e-15 -1.27521e-14 -6.21552e-16 -8.01029e-15 3.71108e-15 -6.21552e-16 -5.74184e-15 4.93286e-16 -9.72545e-15 2.89841e-15 -6.8804e-15 -9.72545e-15 5.13402e-15 -6.8804e-15 6.42642e-15 -6.28012e-15 -1.43638e-14 -4.29633e-15 -4.64857e-15 -1.43638e-14 -1.65289e-14 -4.64857e-15 -8.33868e-15 2.34471e-15 -8.88161e-15 1.23454e-14 -5.28453e-15 -8.88161e-15 -1.70617e-14 -5.28453e-15 -1.8331e-14 -1.65289e-14 8.85648e-15 -8.33868e-15 6.1647e-15 8.85648e-15 -5.05716e-15 6.1647e-15 -2.68721e-15 -1.70617e-14 -5.82463e-15 -1.8331e-14 3.08936e-15 -5.82463e-15 9.26317e-15 3.08936e-15 1.37153e-14 -6.37795e-16 5.91051e-16 -9.58125e-16 -8.40129e-16 5.91051e-16 -4.708e-15 -8.40129e-16 -6.71741e-16 -2.47126e-15 1.14513e-15 -3.43212e-15 5.01108e-15 1.14513e-15 -6.98892e-15 5.01108e-15 -7.94738e-15 -4.708e-15 1.20101e-15 -6.71741e-16 -4.92658e-15 1.20101e-15 -2.54175e-15 -4.92658e-15 1.09699e-15 -6.98892e-15 7.11505e-15 -7.94738e-15 1.16557e-15 7.11505e-15 -3.59968e-15 1.16557e-15 -2.73155e-15 2.85627e-15 -7.43929e-15 3.48068e-16 -6.24051e-15 -7.43929e-15 -9.14646e-16 -6.24051e-15 7.34998e-15 3.30064e-15 5.84513e-15 -3.34114e-15 6.82044e-15 5.84513e-15 -1.93382e-14 6.82044e-15 -1.00378e-14 -9.14646e-16 6.03728e-15 7.34998e-15 3.02907e-15 6.03728e-15 -1.06443e-15 3.02907e-15 4.04215e-16 -1.93382e-14 1.48224e-15 -1.00378e-14 -1.60624e-15 1.48224e-15 -6.63953e-15 -1.60624e-15 9.39308e-16 -2.54175e-15 -3.85237e-15 1.09699e-15 -1.09509e-15 -3.85237e-15 -2.54921e-15 -1.09509e-15 -6.02867e-16 -3.59968e-15 -5.70709e-15 -2.73155e-15 -1.99215e-15 -5.70709e-15 -2.34955e-15 -1.99215e-15 7.77296e-17 -2.54921e-15 -1.98142e-15 -6.02867e-16 -2.52251e-15 -1.98142e-15 8.50074e-17 -2.52251e-15 2.62615e-16 -2.34955e-15 6.88301e-17 7.77296e-17 -2.13997e-15 6.88301e-17 2.33989e-15 -2.13997e-15 3.66057e-15 -1.06443e-15 -9.99771e-15 4.04215e-16 5.58471e-16 -9.99771e-15 -2.4633e-15 5.58471e-16 -2.01499e-15 -6.63953e-15 -1.07028e-14 9.39308e-16 -4.34503e-15 -1.07028e-14 2.97201e-15 -4.34503e-15 -2.58401e-15 -2.4633e-15 4.48909e-15 -2.01499e-15 4.05988e-15 4.48909e-15 1.12686e-15 4.05988e-15 1.04558e-14 2.97201e-15 -7.46872e-15 -2.58401e-15 -4.85777e-15 -7.46872e-15 -4.78755e-15 -4.85777e-15 5.79045e-15 3.71108e-15 2.29076e-15 -5.74184e-15 1.07751e-14 2.29076e-15 -1.74263e-14 1.07751e-14 -1.44708e-14 5.13402e-15 -4.56142e-15 6.42642e-15 -4.11097e-15 -4.56142e-15 -1.41055e-14 -4.11097e-15 -4.26474e-15 -1.74263e-14 4.11009e-15 -1.44708e-14 -2.73479e-16 4.11009e-15 -2.16771e-15 -2.73479e-16 -2.05227e-15 -1.41055e-14 7.85504e-15 -4.26474e-15 6.27322e-15 7.85504e-15 7.60742e-15 6.27322e-15 5.09169e-15 -5.05716e-15 3.86553e-15 -2.68721e-15 3.3637e-15 3.86553e-15 -2.059e-14 3.3637e-15 -1.13666e-14 9.26317e-15 1.10765e-14 1.37153e-14 2.59734e-14 1.10765e-14 -2.46073e-14 2.59734e-14 -2.53354e-14 -2.059e-14 2.04003e-15 -1.13666e-14 -5.38086e-15 2.04003e-15 4.4232e-16 -5.38086e-15 2.71372e-15 -2.46073e-14 1.24962e-14 -2.53354e-14 1.40639e-14 1.24962e-14 -4.95619e-15 1.40639e-14 -8.73857e-15 -2.16771e-15 -1.18436e-14 -2.05227e-15 2.35845e-15 -1.18436e-14 2.39221e-15 2.35845e-15 6.36794e-15 7.60742e-15 -2.66144e-14 5.09169e-15 -5.15963e-15 -2.66144e-14 -1.64779e-14 -5.15963e-15 -1.32929e-14 2.39221e-15 1.85591e-15 6.36794e-15 1.32125e-15 1.85591e-15 -5.54391e-16 1.32125e-15 1.11168e-15 -1.64779e-14 5.64329e-15 -1.32929e-14 3.78861e-15 5.64329e-15 1.06604e-14 3.78861e-15 9.52865e-15 4.4232e-16 -1.79103e-14 2.71372e-15 -2.6841e-15 -1.79103e-14 4.07097e-15 -2.6841e-15 -3.86026e-15 -4.95619e-15 -1.4697e-14 -8.73857e-15 1.15909e-14 -1.4697e-14 5.80644e-15 1.15909e-14 6.7463e-15 4.07097e-15 -3.82356e-15 -3.86026e-15 -3.29138e-15 -3.82356e-15 4.95118e-16 -3.29138e-15 9.56335e-15 5.80644e-15 -8.14565e-16 6.7463e-15 -8.96091e-15 -8.14565e-16 1.60616e-14 -8.96091e-15 2.7588e-14 8.50074e-17 -7.62021e-16 2.62615e-16 -2.12909e-15 -7.62021e-16 -4.03534e-15 -2.12909e-15 1.46681e-15 2.33989e-15 -1.01984e-15 3.66057e-15 -2.0559e-15 -1.01984e-15 -6.09821e-15 -2.0559e-15 -1.51167e-15 -4.03534e-15 -1.05191e-15 1.46681e-15 -4.56101e-15 -1.05191e-15 -3.66899e-15 -4.56101e-15 -3.58331e-16 -6.09821e-15 -4.21663e-16 -1.51167e-15 -6.3273e-15 -4.21663e-16 -9.14665e-16 -6.3273e-15 1.49584e-15 1.12686e-15 -6.51551e-15 1.04558e-14 -4.52565e-15 -6.51551e-15 -1.67545e-15 -4.52565e-15 4.92276e-15 -4.78755e-15 4.51323e-17 5.79045e-15 1.28223e-14 4.51323e-17 -1.14928e-14 1.28223e-14 -1.31052e-14 -1.67545e-15 3.89963e-16 4.92276e-15 1.90146e-15 3.89963e-16 -2.05671e-15 1.90146e-15 6.7717e-15 -1.14928e-14 -5.75838e-15 -1.31052e-14 -2.15004e-15 -5.75838e-15 -1.18387e-14 -2.15004e-15 1.88034e-15 -3.66899e-15 -1.02955e-15 -3.58331e-16 1.77656e-15 -1.02955e-15 -1.43616e-15 1.77656e-15 -3.01886e-15 -9.14665e-16 -3.95674e-15 1.49584e-15 1.70082e-15 -3.95674e-15 -2.62339e-15 1.70082e-15 -6.84846e-15 -1.43616e-15 1.31429e-15 -3.01886e-15 -4.16281e-16 1.31429e-15 -3.27019e-15 -4.16281e-16 -7.0603e-17 -2.62339e-15 8.82997e-16 -6.84846e-15 -6.28172e-16 8.82997e-16 -3.67766e-15 -6.28172e-16 -4.17325e-16 -2.05671e-15 -7.25139e-15 6.7717e-15 1.40684e-15 -7.25139e-15 4.79474e-15 1.40684e-15 1.3359e-15 -1.18387e-14 -1.28819e-14 1.88034e-15 4.43827e-15 -1.28819e-14 -6.93913e-15 4.43827e-15 -7.88802e-15 4.79474e-15 5.22841e-15 1.3359e-15 8.16456e-15 5.22841e-15 -3.48438e-15 8.16456e-15 -5.88068e-16 -6.93913e-15 -4.39457e-15 -7.88802e-15 7.87014e-15 -4.39457e-15 -7.98758e-15 7.87014e-15 -1.10319e-15 -5.54391e-16 -1.41883e-14 1.11168e-15 -3.12384e-15 -1.41883e-14 -4.24839e-15 -3.12384e-15 -4.81305e-15 1.06604e-14 6.97219e-15 9.52865e-15 1.63476e-14 6.97219e-15 -1.45256e-14 1.63476e-14 -1.04145e-14 -4.24839e-15 -8.84175e-16 -4.81305e-15 -2.96504e-15 -8.84175e-16 -1.25344e-14 -2.96504e-15 -1.28395e-14 -1.45256e-14 -2.06631e-15 -1.04145e-14 4.6504e-15 -2.06631e-15 1.32451e-14 4.6504e-15 1.13569e-14 4.95118e-16 -1.52832e-14 9.56335e-15 3.4587e-15 -1.52832e-14 -8.10034e-15 3.4587e-15 -9.50836e-15 1.60616e-14 -4.13521e-15 2.7588e-14 2.18389e-14 -4.13521e-15 -1.42172e-14 2.18389e-14 -1.24204e-14 -8.10034e-15 -7.01859e-15 -9.50836e-15 -6.03462e-15 -7.01859e-15 -1.51613e-14 -6.03462e-15 -7.02155e-15 -1.42172e-14 1.23874e-15 -1.24204e-14 -5.95482e-15 1.23874e-15 2.45338e-15 -5.95482e-15 7.32076e-15 -1.25344e-14 -1.72947e-14 -1.28395e-14 -1.0929e-14 -1.72947e-14 -5.19824e-15 -1.0929e-14 -1.63453e-14 1.32451e-14 -3.57935e-15 1.13569e-14 -2.76154e-15 -3.57935e-15 5.35128e-15 -2.76154e-15 -5.12337e-15 -5.19824e-15 -2.21644e-15 -1.63453e-14 -3.23552e-15 -2.21644e-15 -6.49565e-16 -3.23552e-15 -1.30853e-15 5.35128e-15 9.10923e-15 -5.12337e-15 2.10857e-14 9.10923e-15 -6.09305e-15 2.10857e-14 -1.84125e-14 -1.51613e-14 -1.32073e-14 -7.02155e-15 3.89835e-15 -1.32073e-14 -5.79354e-15 3.89835e-15 -1.1198e-14 2.45338e-15 -1.80935e-14 7.32076e-15 -8.18127e-15 -1.80935e-14 -6.1642e-16 -8.18127e-15 -4.2325e-15 -5.79354e-15 -1.09431e-14 -1.1198e-14 6.92906e-15 -1.09431e-14 9.68593e-16 6.92906e-15 -1.17752e-16 -6.1642e-16 2.83049e-15 -4.2325e-15 1.11193e-14 2.83049e-15 1.46285e-15 1.11193e-14 3.62877e-15 -3.27019e-15 -3.2238e-15 -7.0603e-17 -3.41234e-16 -3.2238e-15 -1.61253e-15 -3.41234e-16 1.95413e-15 -3.67766e-15 1.95377e-15 -4.17325e-16 5.30573e-15 1.95377e-15 -5.48496e-15 5.30573e-15 -4.21534e-15 -1.61253e-15 9.7735e-17 1.95413e-15 -1.91992e-15 9.7735e-17 -2.29738e-15 -1.91992e-15 -2.25825e-15 -5.48496e-15 1.4695e-15 -4.21534e-15 -1.61851e-15 1.4695e-15 -2.05612e-15 -1.61851e-15 -7.1169e-16 -3.48438e-15 1.77885e-15 -5.88068e-16 9.69792e-15 1.77885e-15 -2.94988e-15 9.69792e-15 6.74947e-16 -7.98758e-15 -4.04945e-15 -1.10319e-15 7.20537e-15 -4.04945e-15 -8.12144e-15 7.20537e-15 -4.01292e-16 -2.94988e-15 -5.04308e-15 6.74947e-16 -3.29792e-15 -5.04308e-15 -3.41632e-15 -3.29792e-15 -7.48336e-16 -8.12144e-15 -5.20418e-15 -4.01292e-16 -2.83582e-16 -5.20418e-15 1.88391e-15 -2.83582e-16 2.92697e-15 -2.29738e-15 8.39765e-16 -2.25825e-15 1.80896e-15 8.39765e-16 1.88603e-15 1.80896e-15 -1.81801e-15 -2.05612e-15 -2.62518e-15 -7.1169e-16 -1.31043e-15 -2.62518e-15 3.45408e-15 -1.31043e-15 5.84771e-15 1.88603e-15 -3.32083e-15 -1.81801e-15 1.80265e-15 -3.32083e-15 0 1.80265e-15 0 3.45408e-15 -2.72014e-15 5.84771e-15 -2.80774e-15 -2.72014e-15 0 -2.80774e-15 0 -3.41632e-15 3.73263e-15 -7.48336e-16 7.23765e-15 3.73263e-15 -7.04799e-15 7.23765e-15 -2.1459e-15 1.88391e-15 -1.24683e-14 2.92697e-15 -1.09891e-14 -1.24683e-14 -4.58823e-15 -1.09891e-14 1.90969e-15 -7.04799e-15 -7.09343e-16 -2.1459e-15 2.847e-15 -7.09343e-16 0 2.847e-15 0 -4.58823e-15 -8.06065e-15 1.90969e-15 8.7774e-15 -8.06065e-15 0 8.7774e-15 0 -6.49565e-16 3.5753e-15 -1.30853e-15 9.17243e-15 3.5753e-15 -3.50697e-15 9.17243e-15 -1.58847e-15 -6.09305e-15 1.03969e-14 -1.84125e-14 1.51961e-14 1.03969e-14 8.753e-15 1.51961e-14 5.37471e-15 -3.50697e-15 -3.92457e-15 -1.58847e-15 -5.46001e-15 -3.92457e-15 1.14547e-15 -5.46001e-15 -1.12644e-14 8.753e-15 -9.84197e-15 5.37471e-15 -8.7391e-15 -9.84197e-15 1.18481e-14 -8.7391e-15 9.86188e-15 9.68593e-16 4.02912e-15 -1.17752e-16 1.45006e-14 4.02912e-15 -1.54379e-14 1.45006e-14 -8.26159e-15 1.46285e-15 8.11198e-15 3.62877e-15 2.06766e-14 8.11198e-15 2.3301e-15 2.06766e-14 5.22749e-15 -1.54379e-14 4.6769e-15 -8.26159e-15 1.58e-14 4.6769e-15 -2.70508e-15 1.58e-14 -1.38191e-15 2.3301e-15 -1.04785e-14 5.22749e-15 2.22882e-14 -1.04785e-14 -8.99432e-15 2.22882e-14 8.19676e-15 1.14547e-15 5.74018e-15 -1.12644e-14 8.53132e-15 5.74018e-15 -9.13604e-15 8.53132e-15 -9.00167e-15 1.18481e-14 -9.15983e-15 9.86188e-15 -1.20988e-14 -9.15983e-15 -1.69082e-15 -1.20988e-14 -5.05885e-15 -9.13604e-15 -1.68715e-14 -9.00167e-15 -9.8947e-15 -1.68715e-14 0 -9.8947e-15 0 -1.69082e-15 -9.60223e-15 -5.05885e-15 -5.76412e-15 -9.60223e-15 0 -5.76412e-15 0 -2.70508e-15 -7.95763e-15 -1.38191e-15 -4.98189e-15 -7.95763e-15 6.38981e-15 -4.98189e-15 9.04621e-15 -8.99432e-15 8.51069e-15 8.19676e-15 1.14488e-14 8.51069e-15 -5.24616e-15 1.14488e-14 1.92082e-14 6.38981e-15 -9.4295e-15 9.04621e-15 4.80279e-15 -9.4295e-15 0 4.80279e-15 0 -5.24616e-15 -1.54949e-14 1.92082e-14 4.72221e-16 -1.54949e-14 0 4.72221e-16 0 
SCALARS v double 1
LOOKUP_TABLE default