# vtk DataFile Version 3.0
#This file was generated by the deal.II library on 2018/10/15 at 0:33:47
ASCII
DATASET UNSTRUCTURED_GRID

POINTS 20480 double
0 0 0
0.19635 0 0
0 0.311773 0
0.19635 0.311773 0
0.19635 0 0
0.392699 0 0
0.19635 0.311773 0
0.392699 0.311773 0
0 0.311773 0
0.19635 0.311773 0
0 0.62424 0
0.19635 0.62424 0
0.19635 0.311773 0
0.392699 0.311773 0
0.19635 0.62424 0
0.392699 0.62424 0
0.392699 0 0
0.589049 0 0
0.392699 0.311773 0
0.589049 0.311773 0
0.589049 0 0
0.785398 0 0
0.589049 0.311773 0
0.785398 0.311773 0
0.392699 0.311773 0
0.589049 0.311773 0
0.392699 0.62424 0
0.589049 0.62424 0
0.589049 0.311773 0
0.785398 0.311773 0
0.589049 0.62424 0
0.785398 0.62424 0
0 0.62424 0
0.19635 0.62424 0
0 0.936764 0
0.19635 0.936764 0
0.19635 0.62424 0
0.392699 0.62424 0
0.19635 0.936764 0
0.392699 0.936764 0
0 0.936764 0
0.19635 0.936764 0
0 1.24929 0
0.19635 1.24929 0
0.19635 0.936764 0
0.392699 0.936764 0
0.19635 1.24929 0
0.392699 1.24929 0
0.392699 0.62424 0
0.589049 0.62424 0
0.392699 0.936764 0
0.589049 0.936764 0
0.589049 0.62424 0
0.785398 0.62424 0
0.589049 0.936764 0
0.785398 0.936764 0
0.392699 0.936764 0
0.589049 0.936764 0
0.392699 1.24929 0
0.589049 1.24929 0
0.589049 0.936764 0
0.785398 0.936764 0
0.589049 1.24929 0
0.785398 1.24929 0
0.785398 0 0
0.981748 0 0
0.785398 0.311773 0
0.981748 0.311773 0
0.981748 0 0
1.1781 0 0
0.981748 0.311773 0
1.1781 0.311773 0
0.785398 0.311773 0
0.981748 0.311773 0
0.785398 0.62424 0
0.981748 0.62424 0
0.981748 0.311773 0
1.1781 0.311773 0
0.981748 0.62424 0
1.1781 0.62424 0
1.1781 0 0
1.37445 0 0
1.1781 0.311773 0
1.37445 0.311773 0
1.37445 0 0
1.5708 0 0
1.37445 0.311773 0
1.5708 0.311773 0
1.1781 0.311773 0
1.37445 0.311773 0
1.1781 0.62424 0
1.37445 0.62424 0
1.37445 0.311773 0
1.5708 0.311773 0
1.37445 0.62424 0
1.5708 0.62424 0
0.785398 0.62424 0
0.981748 0.62424 0
0.785398 0.936764 0
0.981748 0.936764 0
0.981748 0.62424 0
1.1781 0.62424 0
0.981748 0.936764 0
1.1781 0.936764 0
0.785398 0.936764 0
0.981748 0.936764 0
0.785398 1.24929 0
0.981748 1.24929 0
0.981748 0.936764 0
1.1781 0.936764 0
0.981748 1.24929 0
1.1781 1.24929 0
1.1781 0.62424 0
1.37445 0.62424 0
1.1781 0.936764 0
1.37445 0.936764 0
1.37445 0.62424 0
1.5708 0.62424 0
1.37445 0.936764 0
1.5708 0.936764 0
1.1781 0.936764 0
1.37445 0.936764 0
1.1781 1.24929 0
1.37445 1.24929 0
1.37445 0.936764 0
1.5708 0.936764 0
1.37445 1.24929 0
1.5708 1.24929 0
0 1.24929 0
0.19635 1.24929 0
0 1.56182 0
0.19635 1.56182 0
0.19635 1.24929 0
0.392699 1.24929 0
0.19635 1.56182 0
0.392699 1.56182 0
0 1.56182 0
0.19635 1.56182 0
0 1.87435 0
0.19635 1.87435 0
0.19635 1.56182 0
0.392699 1.56182 0
0.19635 1.87435 0
0.392699 1.87435 0
0.392699 1.24929 0
0.589049 1.24929 0
0.392699 1.56182 0
0.589049 1.56182 0
0.589049 1.24929 0
0.785398 1.24929 0
0.589049 1.56182 0
0.785398 1.56182 0
0.392699 1.56182 0
0.589049 1.56182 0
0.392699 1.87435 0
0.589049 1.87435 0
0.589049 1.56182 0
0.785398 1.56182 0
0.589049 1.87435 0
0.785398 1.87435 0
0 1.87435 0
0.19635 1.87435 0
0 2.18688 0
0.19635 2.18688 0
0.19635 1.87435 0
0.392699 1.87435 0
0.19635 2.18688 0
0.392699 2.18688 0
0 2.18688 0
0.19635 2.18688 0
0 2.49941 0
0.19635 2.49941 0
0.19635 2.18688 0
0.392699 2.18688 0
0.19635 2.49941 0
0.392699 2.49941 0
0.392699 1.87435 0
0.589049 1.87435 0
0.392699 2.18688 0
0.589049 2.18688 0
0.589049 1.87435 0
0.785398 1.87435 0
0.589049 2.18688 0
0.785398 2.18688 0
0.392699 2.18688 0
0.589049 2.18688 0
0.392699 2.49941 0
0.589049 2.49941 0
0.589049 2.18688 0
0.785398 2.18688 0
0.589049 2.49941 0
0.785398 2.49941 0
0.785398 1.24929 0
0.981748 1.24929 0
0.785398 1.56182 0
0.981748 1.56182 0
0.981748 1.24929 0
1.1781 1.24929 0
0.981748 1.56182 0
1.1781 1.56182 0
0.785398 1.56182 0
0.981748 1.56182 0
0.785398 1.87435 0
0.981748 1.87435 0
0.981748 1.56182 0
1.1781 1.56182 0
0.981748 1.87435 0
1.1781 1.87435 0
1.1781 1.24929 0
1.37445 1.24929 0
1.1781 1.56182 0
1.37445 1.56182 0
1.37445 1.24929 0
1.5708 1.24929 0
1.37445 1.56182 0
1.5708 1.56182 0
1.1781 1.56182 0
1.37445 1.56182 0
1.1781 1.87435 0
1.37445 1.87435 0
1.37445 1.56182 0
1.5708 1.56182 0
1.37445 1.87435 0
1.5708 1.87435 0
0.785398 1.87435 0
0.981748 1.87435 0
0.785398 2.18688 0
0.981748 2.18688 0
0.981748 1.87435 0
1.1781 1.87435 0
0.981748 2.18688 0
1.1781 2.18688 0
0.785398 2.18688 0
0.981748 2.18688 0
0.785398 2.49941 0
0.981748 2.49941 0
0.981748 2.18688 0
1.1781 2.18688 0
0.981748 2.49941 0
1.1781 2.49941 0
1.1781 1.87435 0
1.37445 1.87435 0
1.1781 2.18688 0
1.37445 2.18688 0
1.37445 1.87435 0
1.5708 1.87435 0
1.37445 2.18688 0
1.5708 2.18688 0
1.1781 2.18688 0
1.37445 2.18688 0
1.1781 2.49941 0
1.37445 2.49941 0
1.37445 2.18688 0
1.5708 2.18688 0
1.37445 2.49941 0
1.5708 2.49941 0
1.5708 0 0
1.76715 0 0
1.5708 0.311773 0
1.76715 0.311773 0
1.76715 0 0
1.9635 0 0
1.76715 0.311773 0
1.9635 0.311773 0
1.5708 0.311773 0
1.76715 0.311773 0
1.5708 0.62424 0
1.76715 0.62424 0
1.76715 0.311773 0
1.9635 0.311773 0
1.76715 0.62424 0
1.9635 0.62424 0
1.9635 0 0
2.15984 0 0
1.9635 0.311773 0
2.15984 0.311773 0
2.15984 0 0
2.35619 0 0
2.15984 0.311773 0
2.35619 0.311773 0
1.9635 0.311773 0
2.15984 0.311773 0
1.9635 0.62424 0
2.15984 0.62424 0
2.15984 0.311773 0
2.35619 0.311773 0
2.15984 0.62424 0
2.35619 0.62424 0
1.5708 0.62424 0
1.76715 0.62424 0
1.5708 0.936764 0
1.76715 0.936764 0
1.76715 0.62424 0
1.9635 0.62424 0
1.76715 0.936764 0
1.9635 0.936764 0
1.5708 0.936764 0
1.76715 0.936764 0
1.5708 1.24929 0
1.76715 1.24929 0
1.76715 0.936764 0
1.9635 0.936764 0
1.76715 1.24929 0
1.9635 1.24929 0
1.9635 0.62424 0
2.15984 0.62424 0
1.9635 0.936764 0
2.15984 0.936764 0
2.15984 0.62424 0
2.35619 0.62424 0
2.15984 0.936764 0
2.35619 0.936764 0
1.9635 0.936764 0
2.15984 0.936764 0
1.9635 1.24929 0
2.15984 1.24929 0
2.15984 0.936764 0
2.35619 0.936764 0
2.15984 1.24929 0
2.35619 1.24929 0
2.35619 0 0
2.55254 0 0
2.35619 0.311773 0
2.55254 0.311773 0
2.55254 0 0
2.74889 0 0
2.55254 0.311773 0
2.74889 0.311773 0
2.35619 0.311773 0
2.55254 0.311773 0
2.35619 0.62424 0
2.55254 0.62424 0
2.55254 0.311773 0
2.74889 0.311773 0
2.55254 0.62424 0
2.74889 0.62424 0
2.74889 0 0
2.94524 0 0
2.74889 0.311773 0
2.94524 0.311773 0
2.94524 0 0
3.14159 0 0
2.94524 0.311773 0
3.14159 0.311773 0
2.74889 0.311773 0
2.94524 0.311773 0
2.74889 0.62424 0
2.94524 0.62424 0
2.94524 0.311773 0
3.14159 0.311773 0
2.94524 0.62424 0
3.14159 0.62424 0
2.35619 0.62424 0
2.55254 0.62424 0
2.35619 0.936764 0
2.55254 0.936764 0
2.55254 0.62424 0
2.74889 0.62424 0
2.55254 0.936764 0
2.74889 0.936764 0
2.35619 0.936764 0
2.55254 0.936764 0
2.35619 1.24929 0
2.55254 1.24929 0
2.55254 0.936764 0
2.74889 0.936764 0
2.55254 1.24929 0
2.74889 1.24929 0
2.74889 0.62424 0
2.94524 0.62424 0
2.74889 0.936764 0
2.94524 0.936764 0
2.94524 0.62424 0
3.14159 0.62424 0
2.94524 0.936764 0
3.14159 0.936764 0
2.74889 0.936764 0
2.94524 0.936764 0
2.74889 1.24929 0
2.94524 1.24929 0
2.94524 0.936764 0
3.14159 0.936764 0
2.94524 1.24929 0
3.14159 1.24929 0
1.5708 1.24929 0
1.76715 1.24929 0
1.5708 1.56182 0
1.76715 1.56182 0
1.76715 1.24929 0
1.9635 1.24929 0
1.76715 1.56182 0
1.9635 1.56182 0
1.5708 1.56182 0
1.76715 1.56182 0
1.5708 1.87435 0
1.76715 1.87435 0
1.76715 1.56182 0
1.9635 1.56182 0
1.76715 1.87435 0
1.9635 1.87435 0
1.9635 1.24929 0
2.15984 1.24929 0
1.9635 1.56182 0
2.15984 1.56182 0
2.15984 1.24929 0
2.35619 1.24929 0
2.15984 1.56182 0
2.35619 1.56182 0
1.9635 1.56182 0
2.15984 1.56182 0
1.9635 1.87435 0
2.15984 1.87435 0
2.15984 1.56182 0
2.35619 1.56182 0
2.15984 1.87435 0
2.35619 1.87435 0
1.5708 1.87435 0
1.76715 1.87435 0
1.5708 2.18688 0
1.76715 2.18688 0
1.76715 1.87435 0
1.9635 1.87435 0
1.76715 2.18688 0
1.9635 2.18688 0
1.5708 2.18688 0
1.76715 2.18688 0
1.5708 2.49941 0
1.76715 2.49941 0
1.76715 2.18688 0
1.9635 2.18688 0
1.76715 2.49941 0
1.9635 2.49941 0
1.9635 1.87435 0
2.15984 1.87435 0
1.9635 2.18688 0
2.15984 2.18688 0
2.15984 1.87435 0
2.35619 1.87435 0
2.15984 2.18688 0
2.35619 2.18688 0
1.9635 2.18688 0
2.15984 2.18688 0
1.9635 2.49941 0
2.15984 2.49941 0
2.15984 2.18688 0
2.35619 2.18688 0
2.15984 2.49941 0
2.35619 2.49941 0
2.35619 1.24929 0
2.55254 1.24929 0
2.35619 1.56182 0
2.55254 1.56182 0
2.55254 1.24929 0
2.74889 1.24929 0
2.55254 1.56182 0
2.74889 1.56182 0
2.35619 1.56182 0
2.55254 1.56182 0
2.35619 1.87435 0
2.55254 1.87435 0
2.55254 1.56182 0
2.74889 1.56182 0
2.55254 1.87435 0
2.74889 1.87435 0
2.74889 1.24929 0
2.94524 1.24929 0
2.74889 1.56182 0
2.94524 1.56182 0
2.94524 1.24929 0
3.14159 1.24929 0
2.94524 1.56182 0
3.14159 1.56182 0
2.74889 1.56182 0
2.94524 1.56182 0
2.74889 1.87435 0
2.94524 1.87435 0
2.94524 1.56182 0
3.14159 1.56182 0
2.94524 1.87435 0
3.14159 1.87435 0
2.35619 1.87435 0
2.55254 1.87435 0
2.35619 2.18688 0
2.55254 2.18688 0
2.55254 1.87435 0
2.74889 1.87435 0
2.55254 2.18688 0
2.74889 2.18688 0
2.35619 2.18688 0
2.55254 2.18688 0
2.35619 2.49941 0
2.55254 2.49941 0
2.55254 2.18688 0
2.74889 2.18688 0
2.55254 2.49941 0
2.74889 2.49941 0
2.74889 1.87435 0
2.94524 1.87435 0
2.74889 2.18688 0
2.94524 2.18688 0
2.94524 1.87435 0
3.14159 1.87435 0
2.94524 2.18688 0
3.14159 2.18688 0
2.74889 2.18688 0
2.94524 2.18688 0
2.74889 2.49941 0
2.94524 2.49941 0
2.94524 2.18688 0
3.14159 2.18688 0
2.94524 2.49941 0
3.14159 2.49941 0
0 2.49941 0
0.19635 2.49941 0
0 2.81194 0
0.19635 2.81194 0
0.19635 2.49941 0
0.392699 2.49941 0
0.19635 2.81194 0
0.392699 2.81194 0
0 2.81194 0
0.19635 2.81194 0
0 3.12447 0
0.19635 3.12447 0
0.19635 2.81194 0
0.392699 2.81194 0
0.19635 3.12447 0
0.392699 3.12447 0
0.392699 2.49941 0
0.589049 2.49941 0
0.392699 2.81194 0
0.589049 2.81194 0
0.589049 2.49941 0
0.785398 2.49941 0
0.589049 2.81194 0
0.785398 2.81194 0
0.392699 2.81194 0
0.589049 2.81194 0
0.392699 3.12447 0
0.589049 3.12447 0
0.589049 2.81194 0
0.785398 2.81194 0
0.589049 3.12447 0
0.785398 3.12447 0
0 3.12447 0
0.19635 3.12447 0
0 3.43699 0
0.19635 3.43699 0
0.19635 3.12447 0
0.392699 3.12447 0
0.19635 3.43699 0
0.392699 3.43699 0
0 3.43699 0
0.19635 3.43699 0
0 3.74952 0
[...]
POINT_DATA 20480
VECTORS uf double
0 1 0
-1.46041e-13 1 0
0 1.25696 0
1.43614e-13 1.25696 0
-1.46041e-13 1 0
-1.22147e-13 1 0
1.43614e-13 1.25696 0
-8.28366e-14 1.25696 0
0 1.25696 0
5.66201e-14 1.25696 0
0 1.24259 0
-1.15573e-13 1.24259 0
5.66201e-14 1.25696 0
-2.63541e-13 1.25696 0
-1.15573e-13 1.24259 0
5.84737e-14 1.24259 0
-1.22147e-13 1 0
-2.77004e-13 1 0
-8.28366e-14 1.25696 0
1.45738e-14 1.25696 0
-2.77004e-13 1 0
-3.16698e-13 1 0
1.45738e-14 1.25696 0
2.15309e-13 1.25696 0
-2.63541e-13 1.25696 0
-3.20914e-13 1.25696 0
5.84737e-14 1.24259 0
-5.887e-14 1.24259 0
-3.20914e-13 1.25696 0
-2.19231e-13 1.25696 0
-5.887e-14 1.24259 0
7.41098e-15 1.24259 0
0 1.24259 0
-2.32953e-13 1.24259 0
0 1.23307 0
8.59471e-14 1.23307 0
-2.32953e-13 1.24259 0
-1.11479e-14 1.24259 0
8.59471e-14 1.23307 0
-1.01737e-13 1.23307 0
0 1.23307 0
-1.08519e-14 1.23307 0
0 1.22299 0
2.31992e-14 1.22299 0
-1.08519e-14 1.23307 0
-1.07553e-13 1.23307 0
2.31992e-14 1.22299 0
7.3198e-14 1.22299 0
-1.11479e-14 1.24259 0
-5.9359e-14 1.24259 0
-1.01737e-13 1.23307 0
-1.12353e-13 1.23307 0
-5.9359e-14 1.24259 0
1.49743e-13 1.24259 0
-1.12353e-13 1.23307 0
-2.02775e-13 1.23307 0
-1.07553e-13 1.23307 0
8.41346e-14 1.23307 0
7.3198e-14 1.22299 0
-1.53157e-13 1.22299 0
8.41346e-14 1.23307 0
-2.66541e-14 1.23307 0
-1.53157e-13 1.22299 0
-6.16078e-14 1.22299 0
-3.16698e-13 1 0
-3.44081e-13 1 0
2.15309e-13 1.25696 0
5.11385e-13 1.25696 0
-3.44081e-13 1 0
2.25722e-13 1 0
5.11385e-13 1.25696 0
-6.48042e-14 1.25696 0
-2.19231e-13 1.25696 0
1.57827e-13 1.25696 0
7.41098e-15 1.24259 0
-2.87789e-13 1.24259 0
1.57827e-13 1.25696 0
3.31177e-13 1.25696 0
-2.87789e-13 1.24259 0
1.10442e-13 1.24259 0
2.25722e-13 1 0
1.06058e-12 1 0
-6.48042e-14 1.25696 0
-1.036e-12 1.25696 0
1.06058e-12 1 0
3.48782e-13 1 0
-1.036e-12 1.25696 0
-2.31142e-13 1.25696 0
3.31177e-13 1.25696 0
1.4676e-13 1.25696 0
1.10442e-13 1.24259 0
6.30234e-13 1.24259 0
1.4676e-13 1.25696 0
-3.37366e-13 1.25696 0
6.30234e-13 1.24259 0
1.99737e-13 1.24259 0
1.49743e-13 1.24259 0
-3.94548e-13 1.24259 0
-2.02775e-13 1.23307 0
1.51098e-13 1.23307 0
-3.94548e-13 1.24259 0
-1.91323e-13 1.24259 0
1.51098e-13 1.23307 0
2.10272e-13 1.23307 0
-2.66541e-14 1.23307 0
-1.0803e-13 1.23307 0
-6.16078e-14 1.22299 0
1.01969e-13 1.22299 0
-1.0803e-13 1.23307 0
-1.6151e-13 1.23307 0
1.01969e-13 1.22299 0
3.9857e-14 1.22299 0
-1.91323e-13 1.24259 0
2.92806e-13 1.24259 0
2.10272e-13 1.23307 0
-1.73984e-15 1.23307 0
2.92806e-13 1.24259 0
3.83195e-14 1.24259 0
-1.73984e-15 1.23307 0
-6.89448e-14 1.23307 0
-1.6151e-13 1.23307 0
5.8012e-15 1.23307 0
3.9857e-14 1.22299 0
6.1817e-14 1.22299 0
5.8012e-15 1.23307 0
9.24746e-14 1.23307 0
6.1817e-14 1.22299 0
-1.07539e-13 1.22299 0
0 1.22299 0
-3.51861e-14 1.22299 0
0 1.21342 0
6.54619e-14 1.21342 0
-3.51861e-14 1.22299 0
1.65735e-13 1.22299 0
6.54619e-14 1.21342 0
-1.27635e-13 1.21342 0
0 1.21342 0
3.56693e-14 1.21342 0
0 1.20412 0
-4.62509e-14 1.20412 0
3.56693e-14 1.21342 0
-2.27868e-13 1.21342 0
-4.62509e-14 1.20412 0
7.81607e-14 1.20412 0
1.65735e-13 1.22299 0
-1.05539e-13 1.22299 0
-1.27635e-13 1.21342 0
-1.8596e-14 1.21342 0
-1.05539e-13 1.22299 0
-1.72444e-13 1.22299 0
-1.8596e-14 1.21342 0
1.84669e-13 1.21342 0
-2.27868e-13 1.21342 0
6.94744e-14 1.21342 0
7.81607e-14 1.20412 0
-1.7e-13 1.20412 0
6.94744e-14 1.21342 0
2.0526e-13 1.21342 0
-1.7e-13 1.20412 0
-1.56603e-13 1.20412 0
0 1.20412 0
-3.16849e-14 1.20412 0
0 1.19512 0
4.7943e-14 1.19512 0
-3.16849e-14 1.20412 0
4.23254e-14 1.20412 0
4.7943e-14 1.19512 0
9.38178e-14 1.19512 0
0 1.19512 0
-2.60636e-13 1.19512 0
0 1.18641 0
-6.35631e-14 1.18641 0
-2.60636e-13 1.19512 0
4.14154e-14 1.19512 0
-6.35631e-14 1.18641 0
-1.35316e-13 1.18641 0
4.23254e-14 1.20412 0
-1.73028e-13 1.20412 0
9.38178e-14 1.19512 0
-1.43625e-13 1.19512 0
-1.73028e-13 1.20412 0
-1.94974e-13 1.20412 0
-1.43625e-13 1.19512 0
7.7017e-14 1.19512 0
4.14154e-14 1.19512 0
-9.566e-14 1.19512 0
-1.35316e-13 1.18641 0
1.32867e-14 1.18641 0
-9.566e-14 1.19512 0
3.3229e-14 1.19512 0
1.32867e-14 1.18641 0
1.33391e-13 1.18641 0
-1.72444e-13 1.22299 0
1.03469e-13 1.22299 0
1.84669e-13 1.21342 0
-2.84018e-13 1.21342 0
1.03469e-13 1.22299 0
-7.38384e-14 1.22299 0
-2.84018e-13 1.21342 0
-1.82549e-14 1.21342 0
2.0526e-13 1.21342 0
-2.97851e-13 1.21342 0
-1.56603e-13 1.20412 0
3.22254e-13 1.20412 0
-2.97851e-13 1.21342 0
-2.17968e-14 1.21342 0
3.22254e-13 1.20412 0
-7.18276e-14 1.20412 0
-7.38384e-14 1.22299 0
-1.42174e-13 1.22299 0
-1.82549e-14 1.21342 0
8.53034e-14 1.21342 0
-1.42174e-13 1.22299 0
-2.89483e-13 1.22299 0
8.53034e-14 1.21342 0
8.45816e-14 1.21342 0
-2.17968e-14 1.21342 0
4.65736e-14 1.21342 0
-7.18276e-14 1.20412 0
4.17303e-14 1.20412 0
4.65736e-14 1.21342 0
-3.73085e-14 1.21342 0
4.17303e-14 1.20412 0
-2.22862e-13 1.20412 0
-1.94974e-13 1.20412 0
2.24449e-14 1.20412 0
7.7017e-14 1.19512 0
-2.07873e-13 1.19512 0
2.24449e-14 1.20412 0
-3.89999e-14 1.20412 0
-2.07873e-13 1.19512 0
-6.0696e-14 1.19512 0
3.3229e-14 1.19512 0
-1.14828e-13 1.19512 0
1.33391e-13 1.18641 0
4.31421e-14 1.18641 0
-1.14828e-13 1.19512 0
-3.9175e-14 1.19512 0
4.31421e-14 1.18641 0
-2.12405e-13 1.18641 0
-3.89999e-14 1.20412 0
-3.57125e-13 1.20412 0
-6.0696e-14 1.19512 0
2.12031e-13 1.19512 0
-3.57125e-13 1.20412 0
9.9493e-14 1.20412 0
2.12031e-13 1.19512 0
-9.09436e-14 1.19512 0
-3.9175e-14 1.19512 0
-1.5008e-13 1.19512 0
-2.12405e-13 1.18641 0
-7.96388e-14 1.18641 0
-1.5008e-13 1.19512 0
-2.0575e-14 1.19512 0
-7.96388e-14 1.18641 0
-1.20035e-13 1.18641 0
3.48782e-13 1 0
-3.85876e-13 1 0
-2.31142e-13 1.25696 0
5.65508e-13 1.25696 0
-3.85876e-13 1 0
-3.06873e-13 1 0
5.65508e-13 1.25696 0
1.50312e-13 1.25696 0
-3.37366e-13 1.25696 0
2.2714e-13 1.25696 0
1.99737e-13 1.24259 0
-1.94005e-13 1.24259 0
2.2714e-13 1.25696 0
1.56264e-13 1.25696 0
-1.94005e-13 1.24259 0
-2.57024e-13 1.24259 0
-3.06873e-13 1 0
-3.23844e-13 1 0
1.50312e-13 1.25696 0
6.89475e-14 1.25696 0
-3.23844e-13 1 0
1.79891e-13 1 0
6.89475e-14 1.25696 0
-9.86058e-14 1.25696 0
1.56264e-13 1.25696 0
-4.43017e-13 1.25696 0
-2.57024e-13 1.24259 0
2.46599e-13 1.24259 0
-4.43017e-13 1.25696 0
1.5691e-13 1.25696 0
2.46599e-13 1.24259 0
-2.40459e-13 1.24259 0
3.83195e-14 1.24259 0
-6.14747e-14 1.24259 0
-6.89448e-14 1.23307 0
5.88909e-14 1.23307 0
-6.14747e-14 1.24259 0
-6.13501e-14 1.24259 0
5.88909e-14 1.23307 0
2.52267e-13 1.23307 0
9.24746e-14 1.23307 0
-2.80363e-13 1.23307 0
-1.07539e-13 1.22299 0
2.1305e-13 1.22299 0
-2.80363e-13 1.23307 0
2.61415e-13 1.23307 0
2.1305e-13 1.22299 0
-4.34029e-13 1.22299 0
-6.13501e-14 1.24259 0
8.22647e-14 1.24259 0
2.52267e-13 1.23307 0
-1.6043e-13 1.23307 0
8.22647e-14 1.24259 0
-3.70432e-13 1.24259 0
-1.6043e-13 1.23307 0
6.05938e-14 1.23307 0
2.61415e-13 1.23307 0
-3.21273e-13 1.23307 0
-4.34029e-13 1.22299 0
4.31917e-13 1.22299 0
-3.21273e-13 1.23307 0
-3.36996e-13 1.23307 0
4.31917e-13 1.22299 0
2.58646e-13 1.22299 0
1.79891e-13 1 0
-5.17135e-15 1 0
-9.86058e-14 1.25696 0
-1.96993e-13 1.25696 0
-5.17135e-15 1 0
-1.99211e-13 1 0
-1.96993e-13 1.25696 0
-9.58796e-14 1.25696 0
1.5691e-13 1.25696 0
-2.15976e-13 1.25696 0
-2.40459e-13 1.24259 0
3.36272e-14 1.24259 0
-2.15976e-13 1.25696 0
-4.06758e-13 1.25696 0
3.36272e-14 1.24259 0
1.84546e-13 1.24259 0
-1.99211e-13 1 0
-3.333e-13 1 0
-9.58796e-14 1.25696 0
1.85502e-13 1.25696 0
-3.333e-13 1 0
2.93763e-14 1 0
1.85502e-13 1.25696 0
-2.962e-13 1.25696 0
-4.06758e-13 1.25696 0
1.32179e-13 1.25696 0
1.84546e-13 1.24259 0
-1.97431e-13 1.24259 0
1.32179e-13 1.25696 0
6.47275e-14 1.25696 0
-1.97431e-13 1.24259 0
-1.80733e-13 1.24259 0
-3.70432e-13 1.24259 0
-1.55789e-13 1.24259 0
6.05938e-14 1.23307 0
-1.85217e-14 1.23307 0
-1.55789e-13 1.24259 0
-3.18495e-13 1.24259 0
-1.85217e-14 1.23307 0
1.70282e-13 1.23307 0
-3.36996e-13 1.23307 0
4.9555e-13 1.23307 0
2.58646e-13 1.22299 0
-6.53383e-13 1.22299 0
4.9555e-13 1.23307 0
-2.69875e-13 1.23307 0
-6.53383e-13 1.22299 0
2.81886e-13 1.22299 0
-3.18495e-13 1.24259 0
-1.63935e-13 1.24259 0
1.70282e-13 1.23307 0
-7.84396e-14 1.23307 0
-1.63935e-13 1.24259 0
-4.27008e-14 1.24259 0
-7.84396e-14 1.23307 0
-3.34765e-13 1.23307 0
-2.69875e-13 1.23307 0
-2.9422e-13 1.23307 0
2.81886e-13 1.22299 0
-4.93818e-13 1.22299 0
-2.9422e-13 1.23307 0
-2.2423e-13 1.23307 0
-4.93818e-13 1.22299 0
1.76362e-13 1.22299 0
-2.89483e-13 1.22299 0
2.03169e-13 1.22299 0
8.45816e-14 1.21342 0
-4.33177e-13 1.21342 0
2.03169e-13 1.22299 0
-3.3658e-13 1.22299 0
-4.33177e-13 1.21342 0
3.65346e-13 1.21342 0
-3.73085e-14 1.21342 0
-1.308e-13 1.21342 0
-2.22862e-13 1.20412 0
2.12872e-13 1.20412 0
-1.308e-13 1.21342 0
-6.2112e-15 1.21342 0
2.12872e-13 1.20412 0
-2.21427e-13 1.20412 0
-3.3658e-13 1.22299 0
-1.40517e-13 1.22299 0
3.65346e-13 1.21342 0
-2.40591e-13 1.21342 0
-1.40517e-13 1.22299 0
-2.49589e-14 1.22299 0
-2.40591e-13 1.21342 0
-1.57986e-13 1.21342 0
-6.2112e-15 1.21342 0
-3.25446e-14 1.21342 0
-2.21427e-13 1.20412 0
-8.23982e-14 1.20412 0
-3.25446e-14 1.21342 0
-3.73378e-13 1.21342 0
-8.23982e-14 1.20412 0
1.41035e-14 1.20412 0
9.9493e-14 1.20412 0
2.2319e-14 1.20412 0
-9.09436e-14 1.19512 0
-7.57465e-14 1.19512 0
2.2319e-14 1.20412 0
-1.11564e-13 1.20412 0
-7.57465e-14 1.19512 0
-9.99711e-14 1.19512 0
-2.0575e-14 1.19512 0
-1.85139e-13 1.19512 0
-1.20035e-13 1.18641 0
4.81585e-14 1.18641 0
-1.85139e-13 1.19512 0
-4.58292e-14 1.19512 0
4.81585e-14 1.18641 0
-1.24173e-13 1.18641 0
-1.11564e-13 1.20412 0
7.24992e-14 1.20412 0
-9.99711e-14 1.19512 0
-8.19588e-14 1.19512 0
7.24992e-14 1.20412 0
6.28974e-14 1.20412 0
-8.19588e-14 1.19512 0
-1.8015e-13 1.19512 0
-4.58292e-14 1.19512 0
-3.26021e-13 1.19512 0
-1.24173e-13 1.18641 0
-1.15321e-13 1.18641 0
-3.26021e-13 1.19512 0
1.04452e-13 1.19512 0
-1.15321e-13 1.18641 0
-9.40207e-14 1.18641 0
-2.49589e-14 1.22299 0
2.97778e-14 1.22299 0
-1.57986e-13 1.21342 0
3.27302e-14 1.21342 0
2.97778e-14 1.22299 0
-3.12341e-13 1.22299 0
3.27302e-14 1.21342 0
-1.63554e-13 1.21342 0
-3.73378e-13 1.21342 0
-8.85227e-14 1.21342 0
1.41035e-14 1.20412 0
-1.21761e-13 1.20412 0
-8.85227e-14 1.21342 0
-3.88765e-13 1.21342 0
-1.21761e-13 1.20412 0
5.88626e-14 1.20412 0
-3.12341e-13 1.22299 0
-2.75718e-14 1.22299 0
-1.63554e-13 1.21342 0
-1.95967e-15 1.21342 0
-2.75718e-14 1.22299 0
-4.72225e-13 1.22299 0
-1.95967e-15 1.21342 0
1.38423e-13 1.21342 0
-3.88765e-13 1.21342 0
1.69321e-13 1.21342 0
5.88626e-14 1.20412 0
-1.74786e-13 1.20412 0
1.69321e-13 1.21342 0
-2.41273e-13 1.21342 0
-1.74786e-13 1.20412 0
6.74788e-14 1.20412 0
6.28974e-14 1.20412 0
-6.84539e-13 1.20412 0
-1.8015e-13 1.19512 0
5.90294e-13 1.19512 0
-6.84539e-13 1.20412 0
1.57113e-13 1.20412 0
5.90294e-13 1.19512 0
-3.35126e-13 1.19512 0
1.04452e-13 1.19512 0
-3.76313e-13 1.19512 0
-9.40207e-14 1.18641 0
-2.23145e-13 1.18641 0
-3.76313e-13 1.19512 0
-3.24648e-13 1.19512 0
-2.23145e-13 1.18641 0
-6.85666e-14 1.18641 0
1.57113e-13 1.20412 0
1.00491e-14 1.20412 0
-3.35126e-13 1.19512 0
-2.88349e-13 1.19512 0
1.00491e-14 1.20412 0
-4.66906e-14 1.20412 0
-2.88349e-13 1.19512 0
-7.4233e-14 1.19512 0
-3.24648e-13 1.19512 0
-1.25331e-13 1.19512 0
-6.85666e-14 1.18641 0
-2.7338e-14 1.18641 0
-1.25331e-13 1.19512 0
3.19576e-13 1.19512 0
-2.7338e-14 1.18641 0
-5.22438e-13 1.18641 0
0 1.18641 0
-2.26015e-14 1.18641 0
0 1.17798 0
1.94148e-13 1.17798 0
-2.26015e-14 1.18641 0
3.79725e-14 1.18641 0
1.94148e-13 1.17798 0
-1.35446e-13 1.17798 0
0 1.17798 0
8.0397e-14 1.17798 0
0 1.16983 0
-5.38633e-14 1.16983 0
8.0397e-14 1.17798 0
-3.59451e-13 1.17798 0
-5.38633e-14 1.16983 0
3.69533e-14 1.16983 0
3.79725e-14 1.18641 0
-1.0739e-13 1.18641 0
-1.35446e-13 1.17798 0
2.98587e-13 1.17798 0
-1.0739e-13 1.18641 0
1.06885e-13 1.18641 0
2.98587e-13 1.17798 0
-2.60759e-13 1.17798 0
-3.59451e-13 1.17798 0
2.30476e-13 1.17798 0
3.69533e-14 1.16983 0
-3.92938e-13 1.16983 0
2.30476e-13 1.17798 0
-2.26726e-13 1.17798 0
-3.92938e-13 1.16983 0
1.05415e-13 1.16983 0
0 1.16983 0
-6.71545e-14 1.16983 0
0 1.16193 0
-7.27837e-15 1.16193 0
-6.71545e-14 1.16983 0
2.22066e-13 1.16983 0
-7.27837e-15 1.16193 0
5.16776e-14 1.16193 0
0 1.16193 0
-1.56025e-14 1.16193 0
0 1.1543 0
-9.27146e-14 1.1543 0
-1.56025e-14 1.16193 0
-3.14032e-14 1.16193 0
-9.27146e-14 1.1543 0
-3.07779e-14 1.1543 0
2.22066e-13 1.16983 0
-1.77043e-13 1.16983 0
5.16776e-14 1.16193 0
9.48768e-14 1.16193 0
-1.77043e-13 1.16983 0
3.35008e-15 1.16983 0
9.48768e-14 1.16193 0
-2.14796e-14 1.16193 0
-3.14032e-14 1.16193 0
-7.01143e-14 1.16193 0
-3.07779e-14 1.1543 0
3.60963e-14 1.1543 0
-7.01143e-14 1.16193 0
-2.23972e-14 1.16193 0
3.60963e-14 1.1543 0
-2.46767e-14 1.1543 0
1.06885e-13 1.18641 0
-9.20194e-14 1.18641 0
-2.60759e-13 1.17798 0
-2.52847e-13 1.17798 0
-9.20194e-14 1.18641 0
-4.44268e-13 1.18641 0
-2.52847e-13 1.17798 0
1.61978e-13 1.17798 0
-2.26726e-13 1.17798 0
-1.90436e-13 1.17798 0
1.05415e-13 1.16983 0
2.65862e-13 1.16983 0
-1.90436e-13 1.17798 0
4.36611e-14 1.17798 0
2.65862e-13 1.16983 0
-6.20482e-14 1.16983 0
-4.44268e-13 1.18641 0
-4.9019e-14 1.18641 0
1.61978e-13 1.17798 0
-1.33553e-13 1.17798 0
-4.9019e-14 1.18641 0
-2.52552e-15 1.18641 0
-1.33553e-13 1.17798 0
7.72357e-14 1.17798 0
4.36611e-14 1.17798 0
-9.13265e-14 1.17798 0
-6.20482e-14 1.16983 0
-5.87333e-14 1.16983 0
-9.13265e-14 1.17798 0
5.52327e-14 1.17798 0
-5.87333e-14 1.16983 0
-7.43746e-14 1.16983 0
3.35008e-15 1.16983 0
1.85273e-13 1.16983 0
-2.14796e-14 1.16193 0
-9.65252e-14 1.16193 0
1.85273e-13 1.16983 0
-1.77103e-13 1.16983 0
-9.65252e-14 1.16193 0
1.04909e-13 1.16193 0
-2.23972e-14 1.16193 0
-2.31517e-13 1.16193 0
-2.46767e-14 1.1543 0
1.80653e-14 1.1543 0
-2.31517e-13 1.16193 0
7.22515e-14 1.16193 0
1.80653e-14 1.1543 0
-1.78241e-13 1.1543 0
-1.77103e-13 1.16983 0
-5.87173e-14 1.16983 0
1.04909e-13 1.16193 0
5.09527e-15 1.16193 0
-5.87173e-14 1.16983 0
-1.99708e-13 1.16983 0
5.09527e-15 1.16193 0
-2.37249e-13 1.16193 0
7.22515e-14 1.16193 0
-1.11746e-13 1.16193 0
-1.78241e-13 1.1543 0
-1.23065e-13 1.1543 0
-1.11746e-13 1.16193 0
-3.84965e-13 1.16193 0
-1.23065e-13 1.1543 0
1.05639e-13 1.1543 0
0 1.1543 0
-6.96871e-14 1.1543 0
0 1.14691 0
-7.959e-14 1.14691 0
-6.96871e-14 1.1543 0
-3.22236e-13 1.1543 0
-7.959e-14 1.14691 0
-5.71887e-14 1.14691 0
0 1.14691 0
-1.42051e-14 1.14691 0
0 1.13977 0
1.49274e-13 1.13977 0
-1.42051e-14 1.14691 0
2.11137e-13 1.14691 0
1.49274e-13 1.13977 0
1.44942e-13 1.13977 0
-3.22236e-13 1.1543 0
-1.22321e-13 1.1543 0
-5.71887e-14 1.14691 0
-1.05876e-13 1.14691 0
-1.22321e-13 1.1543 0
3.18061e-14 1.1543 0
-1.05876e-13 1.14691 0
-2.04004e-13 1.14691 0
2.11137e-13 1.14691 0
-8.83905e-14 1.14691 0
1.44942e-13 1.13977 0
-1.12708e-14 1.13977 0
-8.83905e-14 1.14691 0
-3.842e-13 1.14691 0
-1.12708e-14 1.13977 0
-7.49868e-14 1.13977 0
0 1.13977 0
-5.28594e-15 1.13977 0
0 1.13286 0
-3.43427e-14 1.13286 0
-5.28594e-15 1.13977 0
7.65207e-14 1.13977 0
-3.43427e-14 1.13286 0
-1.66568e-13 1.13286 0
0 1.13286 0
-2.94332e-14 1.13286 0
0 1.12619 0
1.31254e-13 1.12619 0
-2.94332e-14 1.13286 0
-2.92266e-13 1.13286 0
1.31254e-13 1.12619 0
-2.95948e-14 1.12619 0
7.65207e-14 1.13977 0
8.79642e-14 1.13977 0
-1.66568e-13 1.13286 0
-1.90745e-15 1.13286 0
8.79642e-14 1.13977 0
6.66824e-14 1.13977 0
-1.90745e-15 1.13286 0
1.7539e-13 1.13286 0
-2.92266e-13 1.13286 0
-1.4344e-14 1.13286 0
-2.95948e-14 1.12619 0
-3.78864e-13 1.12619 0
-1.4344e-14 1.13286 0
3.28415e-14 1.13286 0
-3.78864e-13 1.12619 0
-1.87838e-13 1.12619 0
3.18061e-14 1.1543 0
1.19882e-13 1.1543 0
-2.04004e-13 1.14691 0
-9.33452e-14 1.14691 0
1.19882e-13 1.1543 0
-9.92579e-14 1.1543 0
-9.33452e-14 1.14691 0
4.6004e-14 1.14691 0
-3.842e-13 1.14691 0
-2.60293e-13 1.14691 0
-7.49868e-14 1.13977 0
-1.91017e-13 1.13977 0
-2.60293e-13 1.14691 0
-4.48983e-14 1.14691 0
-1.91017e-13 1.13977 0
-2.93381e-13 1.13977 0
-9.92579e-14 1.1543 0
-1.51357e-13 1.1543 0
4.6004e-14 1.14691 0
-1.77852e-13 1.14691 0
-1.51357e-13 1.1543 0
-1.5469e-13 1.1543 0
-1.77852e-13 1.14691 0
3.63888e-14 1.14691 0
-4.48983e-14 1.14691 0
-1.58567e-14 1.14691 0
-2.93381e-13 1.13977 0
2.22709e-14 1.13977 0
-1.58567e-14 1.14691 0
-3.74753e-13 1.14691 0
2.22709e-14 1.13977 0
4.8179e-14 1.13977 0
6.66824e-14 1.13977 0
-4.90718e-14 1.13977 0
1.7539e-13 1.13286 0
-3.39951e-14 1.13286 0
-4.90718e-14 1.13977 0
4.78004e-14 1.13977 0
-3.39951e-14 1.13286 0
2.51952e-13 1.13286 0
3.28415e-14 1.13286 0
-3.29307e-13 1.13286 0
-1.87838e-13 1.12619 0
-9.48048e-14 1.12619 0
-3.29307e-13 1.13286 0
-4.33833e-14 1.13286 0
-9.48048e-14 1.12619 0
-1.91194e-13 1.12619 0
4.78004e-14 1.13977 0
-3.49404e-14 1.13977 0
2.51952e-13 1.13286 0
-3.77729e-14 1.13286 0
-3.49404e-14 1.13977 0
3.08007e-13 1.13977 0
-3.77729e-14 1.13286 0
-3.38471e-13 1.13286 0
-4.33833e-14 1.13286 0
1.11611e-13 1.13286 0
-1.91194e-13 1.12619 0
-1.71528e-13 1.12619 0
1.11611e-13 1.13286 0
-2.11966e-13 1.13286 0
-1.71528e-13 1.12619 0
1.24218e-14 1.12619 0
-2.52552e-15 1.18641 0
-1.02058e-13 1.18641 0
7.72357e-14 1.17798 0
-2.31968e-13 1.17798 0
-1.02058e-13 1.18641 0
-2.71457e-14 1.18641 0
-2.31968e-13 1.17798 0
-1.73243e-13 1.17798 0
5.52327e-14 1.17798 0
-1.26037e-13 1.17798 0
-7.43746e-14 1.16983 0
4.93993e-14 1.16983 0
-1.26037e-13 1.17798 0
-4.71233e-13 1.17798 0
4.93993e-14 1.16983 0
3.72603e-14 1.16983 0
-2.71457e-14 1.18641 0
-2.83581e-13 1.18641 0
-1.73243e-13 1.17798 0
2.97774e-14 1.17798 0
-2.83581e-13 1.18641 0
-2.45716e-13 1.18641 0
2.97774e-14 1.17798 0
-2.0536e-14 1.17798 0
-4.71233e-13 1.17798 0
1.47601e-13 1.17798 0
3.72603e-14 1.16983 0
-3.5241e-13 1.16983 0
1.47601e-13 1.17798 0
1.28128e-14 1.17798 0
-3.5241e-13 1.16983 0
-1.26828e-13 1.16983 0
-1.99708e-13 1.16983 0
-7.5991e-14 1.16983 0
-2.37249e-13 1.16193 0
-8.07074e-14 1.16193 0
-7.5991e-14 1.16983 0
-2.02367e-13 1.16983 0
-8.07074e-14 1.16193 0
-1.2939e-13 1.16193 0
-3.84965e-13 1.16193 0
-2.78137e-13 1.16193 0
1.05639e-13 1.1543 0
-5.28622e-14 1.1543 0
-2.78137e-13 1.16193 0
-2.4405e-14 1.16193 0
-5.28622e-14 1.1543 0
-1.49688e-13 1.1543 0
-2.02367e-13 1.16983 0
-1.2297e-13 1.16983 0
-1.2939e-13 1.16193 0
-5.25339e-14 1.16193 0
-1.2297e-13 1.16983 0
-1.15794e-13 1.16983 0
-5.25339e-14 1.16193 0
2.38804e-14 1.16193 0
-2.4405e-14 1.16193 0
-2.60505e-14 1.16193 0
-1.49688e-13 1.1543 0
-2.13006e-13 1.1543 0
-2.60505e-14 1.16193 0
-7.15878e-14 1.16193 0
-2.13006e-13 1.1543 0
-2.76678e-13 1.1543 0
-2.45716e-13 1.18641 0
-1.95239e-14 1.18641 0
-2.0536e-14 1.17798 0
-4.68166e-13 1.17798 0
-1.95239e-14 1.18641 0
-1.69965e-14 1.18641 0
-4.68166e-13 1.17798 0
8.31089e-14 1.17798 0
1.28128e-14 1.17798 0
-1.86193e-13 1.17798 0
-1.26828e-13 1.16983 0
1.42389e-13 1.16983 0
-1.86193e-13 1.17798 0
-4.69023e-13 1.17798 0
1.42389e-13 1.16983 0
-5.8327e-14 1.16983 0
-1.69965e-14 1.18641 0
-2.96029e-13 1.18641 0
8.31089e-14 1.17798 0
-1.1066e-13 1.17798 0
-2.96029e-13 1.18641 0
-3.19689e-13 1.18641 0
-1.1066e-13 1.17798 0
-5.00528e-14 1.17798 0
-4.69023e-13 1.17798 0
-2.41237e-13 1.17798 0
-5.8327e-14 1.16983 0
-1.02424e-13 1.16983 0
-2.41237e-13 1.17798 0
8.11736e-14 1.17798 0
-1.02424e-13 1.16983 0
-4.69525e-13 1.16983 0
-1.15794e-13 1.16983 0
-9.82779e-14 1.16983 0
2.38804e-14 1.16193 0
1.97325e-14 1.16193 0
-9.82779e-14 1.16983 0
-4.98775e-15 1.16983 0
1.97325e-14 1.16193 0
-4.7597e-13 1.16193 0
-7.15878e-14 1.16193 0
-4.55482e-13 1.16193 0
-2.76678e-13 1.1543 0
1.03483e-13 1.1543 0
-4.55482e-13 1.16193 0
5.005e-14 1.16193 0
1.03483e-13 1.1543 0
-8.91991e-14 1.1543 0
-4.98775e-15 1.16983 0
1.07485e-13 1.16983 0
-4.7597e-13 1.16193 0
-8.29037e-14 1.16193 0
1.07485e-13 1.16983 0
-6.69049e-13 1.16983 0
-8.29037e-14 1.16193 0
2.0651e-14 1.16193 0
5.005e-14 1.16193 0
-2.29409e-13 1.16193 0
-8.91991e-14 1.1543 0
-4.46194e-13 1.1543 0
-2.29409e-13 1.16193 0
3.60369e-14 1.16193 0
-4.46194e-13 1.1543 0
-1.15162e-13 1.1543 0
-1.5469e-13 1.1543 0
-1.54145e-13 1.1543 0
3.63888e-14 1.14691 0
-8.80975e-14 1.14691 0
-1.54145e-13 1.1543 0
-4.42496e-14 1.1543 0
-8.80975e-14 1.14691 0
-2.89454e-13 1.14691 0
-3.74753e-13 1.14691 0
-9.72672e-14 1.14691 0
4.8179e-14 1.13977 0
-3.00595e-13 1.13977 0
-9.72672e-14 1.14691 0
-2.91818e-13 1.14691 0
-3.00595e-13 1.13977 0
-1.47036e-13 1.13977 0
-4.42496e-14 1.1543 0