# vtk DataFile Version 3.0
#This file was generated by the deal.II library on 2018/10/15 at 23:03:59
ASCII
DATASET UNSTRUCTURED_GRID

POINTS 20480 double
0 0 0
0.19635 0 0
0 0.293726 0
0.19635 0.293726 0
0.19635 0 0
0.392699 0 0
0.19635 0.293726 0
0.392699 0.293726 0
0 0.293726 0
0.19635 0.293726 0
0 0.605233 0
0.19635 0.605233 0
0.19635 0.293726 0
0.392699 0.293726 0
0.19635 0.605233 0
0.392699 0.605233 0
0.392699 0 0
0.589049 0 0
0.392699 0.293726 0
0.589049 0.293726 0
0.589049 0 0
0.785398 0 0
0.589049 0.293726 0
0.785398 0.293726 0
0.392699 0.293726 0
0.589049 0.293726 0
0.392699 0.605233 0
0.589049 0.605233 0
0.589049 0.293726 0
0.785398 0.293726 0
0.589049 0.605233 0
0.785398 0.605233 0
0 0.605233 0
0.19635 0.605233 0
0 0.918201 0
0.19635 0.918201 0
0.19635 0.605233 0
0.392699 0.605233 0
0.19635 0.918201 0
0.392699 0.918201 0
0 0.918201 0
0.19635 0.918201 0
0 1.23166 0
0.19635 1.23166 0
0.19635 0.918201 0
0.392699 0.918201 0
0.19635 1.23166 0
0.392699 1.23166 0
0.392699 0.605233 0
0.589049 0.605233 0
0.392699 0.918201 0
0.589049 0.918201 0
0.589049 0.605233 0
0.785398 0.605233 0
0.589049 0.918201 0
0.785398 0.918201 0
0.392699 0.918201 0
0.589049 0.918201 0
0.392699 1.23166 0
0.589049 1.23166 0
0.589049 0.918201 0
0.785398 0.918201 0
0.589049 1.23166 0
0.785398 1.23166 0
0.785398 0 0
0.981748 0 0
0.785398 0.293726 0
0.981748 0.293726 0
0.981748 0 0
1.1781 0 0
0.981748 0.293726 0
1.1781 0.293726 0
0.785398 0.293726 0
0.981748 0.293726 0
0.785398 0.605233 0
0.981748 0.605233 0
0.981748 0.293726 0
1.1781 0.293726 0
0.981748 0.605233 0
1.1781 0.605233 0
1.1781 0 0
1.37445 0 0
1.1781 0.293726 0
1.37445 0.293726 0
1.37445 0 0
1.5708 0 0
1.37445 0.293726 0
1.5708 0.293726 0
1.1781 0.293726 0
1.37445 0.293726 0
1.1781 0.605233 0
1.37445 0.605233 0
1.37445 0.293726 0
1.5708 0.293726 0
1.37445 0.605233 0
1.5708 0.605233 0
0.785398 0.605233 0
0.981748 0.605233 0
0.785398 0.918201 0
0.981748 0.918201 0
0.981748 0.605233 0
1.1781 0.605233 0
0.981748 0.918201 0
1.1781 0.918201 0
0.785398 0.918201 0
0.981748 0.918201 0
0.785398 1.23166 0
0.981748 1.23166 0
0.981748 0.918201 0
1.1781 0.918201 0
0.981748 1.23166 0
1.1781 1.23166 0
1.1781 0.605233 0
1.37445 0.605233 0
1.1781 0.918201 0
1.37445 0.918201 0
1.37445 0.605233 0
1.5708 0.605233 0
1.37445 0.918201 0
1.5708 0.918201 0
1.1781 0.918201 0
1.37445 0.918201 0
1.1781 1.23166 0
1.37445 1.23166 0
1.37445 0.918201 0
1.5708 0.918201 0
1.37445 1.23166 0
1.5708 1.23166 0
0 1.23166 0
0.19635 1.23166 0
0 1.54505 0
0.19635 1.54505 0
0.19635 1.23166 0
0.392699 1.23166 0
0.19635 1.54505 0
0.392699 1.54505 0
0 1.54505 0
0.19635 1.54505 0
0 1.85843 0
0.19635 1.85843 0
0.19635 1.54505 0
0.392699 1.54505 0
0.19635 1.85843 0
0.392699 1.85843 0
0.392699 1.23166 0
0.589049 1.23166 0
0.392699 1.54505 0
0.589049 1.54505 0
0.589049 1.23166 0
0.785398 1.23166 0
0.589049 1.54505 0
0.785398 1.54505 0
0.392699 1.54505 0
0.589049 1.54505 0
0.392699 1.85843 0
0.589049 1.85843 0
0.589049 1.54505 0
0.785398 1.54505 0
0.589049 1.85843 0
0.785398 1.85843 0
0 1.85843 0
0.19635 1.85843 0
0 2.17178 0
0.19635 2.17178 0
0.19635 1.85843 0
0.392699 1.85843 0
0.19635 2.17178 0
0.392699 2.17178 0
0 2.17178 0
0.19635 2.17178 0
0 2.48511 0
0.19635 2.48511 0
0.19635 2.17178 0
0.392699 2.17178 0
0.19635 2.48511 0
0.392699 2.48511 0
0.392699 1.85843 0
0.589049 1.85843 0
0.392699 2.17178 0
0.589049 2.17178 0
0.589049 1.85843 0
0.785398 1.85843 0
0.589049 2.17178 0
0.785398 2.17178 0
0.392699 2.17178 0
0.589049 2.17178 0
0.392699 2.48511 0
0.589049 2.48511 0
0.589049 2.17178 0
0.785398 2.17178 0
0.589049 2.48511 0
0.785398 2.48511 0
0.785398 1.23166 0
0.981748 1.23166 0
0.785398 1.54505 0
0.981748 1.54505 0
0.981748 1.23166 0
1.1781 1.23166 0
0.981748 1.54505 0
1.1781 1.54505 0
0.785398 1.54505 0
0.981748 1.54505 0
0.785398 1.85843 0
0.981748 1.85843 0
0.981748 1.54505 0
1.1781 1.54505 0
0.981748 1.85843 0
1.1781 1.85843 0
1.1781 1.23166 0
1.37445 1.23166 0
1.1781 1.54505 0
1.37445 1.54505 0
1.37445 1.23166 0
1.5708 1.23166 0
1.37445 1.54505 0
1.5708 1.54505 0
1.1781 1.54505 0
1.37445 1.54505 0
1.1781 1.85843 0
1.37445 1.85843 0
1.37445 1.54505 0
1.5708 1.54505 0
1.37445 1.85843 0
1.5708 1.85843 0
0.785398 1.85843 0
0.981748 1.85843 0
0.785398 2.17178 0
0.981748 2.17178 0
0.981748 1.85843 0
1.1781 1.85843 0
0.981748 2.17178 0
1.1781 2.17178 0
0.785398 2.17178 0
0.981748 2.17178 0
0.785398 2.48511 0
0.981748 2.48511 0
0.981748 2.17178 0
1.1781 2.17178 0
0.981748 2.48511 0
1.1781 2.48511 0
1.1781 1.85843 0
1.37445 1.85843 0
1.1781 2.17178 0
1.37445 2.17178 0
1.37445 1.85843 0
1.5708 1.85843 0
1.37445 2.17178 0
1.5708 2.17178 0
1.1781 2.17178 0
1.37445 2.17178 0
1.1781 2.48511 0
1.37445 2.48511 0
1.37445 2.17178 0
1.5708 2.17178 0
1.37445 2.48511 0
1.5708 2.48511 0
1.5708 0 0
1.76715 0 0
1.5708 0.293726 0
1.76715 0.293726 0
1.76715 0 0
1.9635 0 0
1.76715 0.293726 0
1.9635 0.293726 0
1.5708 0.293726 0
1.76715 0.293726 0
1.5708 0.605233 0
1.76715 0.605233 0
1.76715 0.293726 0
1.9635 0.293726 0
1.76715 0.605233 0
1.9635 0.605233 0
1.9635 0 0
2.15984 0 0
1.9635 0.293726 0
2.15984 0.293726 0
2.15984 0 0
2.35619 0 0
2.15984 0.293726 0
2.35619 0.293726 0
1.9635 0.293726 0
2.15984 0.293726 0
1.9635 0.605233 0
2.15984 0.605233 0
2.15984 0.293726 0
2.35619 0.293726 0
2.15984 0.605233 0
2.35619 0.605233 0
1.5708 0.605233 0
1.76715 0.605233 0
1.5708 0.918201 0
1.76715 0.918201 0
1.76715 0.605233 0
1.9635 0.605233 0
1.76715 0.918201 0
1.9635 0.918201 0
1.5708 0.918201 0
1.76715 0.918201 0
1.5708 1.23166 0
1.76715 1.23166 0
1.76715 0.918201 0
1.9635 0.918201 0
1.76715 1.23166 0
1.9635 1.23166 0
1.9635 0.605233 0
2.15984 0.605233 0
1.9635 0.918201 0
2.15984 0.918201 0
2.15984 0.605233 0
2.35619 0.605233 0
2.15984 0.918201 0
2.35619 0.918201 0
1.9635 0.918201 0
2.15984 0.918201 0
1.9635 1.23166 0
2.15984 1.23166 0
2.15984 0.918201 0
2.35619 0.918201 0
2.15984 1.23166 0
2.35619 1.23166 0
2.35619 0 0
2.55254 0 0
2.35619 0.293726 0
2.55254 0.293726 0
2.55254 0 0
2.74889 0 0
2.55254 0.293726 0
2.74889 0.293726 0
2.35619 0.293726 0
2.55254 0.293726 0
2.35619 0.605233 0
2.55254 0.605233 0
2.55254 0.293726 0
2.74889 0.293726 0
2.55254 0.605233 0
2.74889 0.605233 0
2.74889 0 0
2.94524 0 0
2.74889 0.293726 0
2.94524 0.293726 0
2.94524 0 0
3.14159 0 0
2.94524 0.293726 0
3.14159 0.293726 0
2.74889 0.293726 0
2.94524 0.293726 0
2.74889 0.605233 0
2.94524 0.605233 0
2.94524 0.293726 0
3.14159 0.293726 0
2.94524 0.605233 0
3.14159 0.605233 0
2.35619 0.605233 0
2.55254 0.605233 0
2.35619 0.918201 0
2.55254 0.918201 0
2.55254 0.605233 0
2.74889 0.605233 0
2.55254 0.918201 0
2.74889 0.918201 0
2.35619 0.918201 0
2.55254 0.918201 0
2.35619 1.23166 0
2.55254 1.23166 0
2.55254 0.918201 0
2.74889 0.918201 0
2.55254 1.23166 0
2.74889 1.23166 0
2.74889 0.605233 0
2.94524 0.605233 0
2.74889 0.918201 0
2.94524 0.918201 0
2.94524 0.605233 0
3.14159 0.605233 0
2.94524 0.918201 0
3.14159 0.918201 0
2.74889 0.918201 0
2.94524 0.918201 0
2.74889 1.23166 0
2.94524 1.23166 0
2.94524 0.918201 0
3.14159 0.918201 0
2.94524 1.23166 0
3.14159 1.23166 0
1.5708 1.23166 0
1.76715 1.23166 0
1.5708 1.54505 0
1.76715 1.54505 0
1.76715 1.23166 0
1.9635 1.23166 0
1.76715 1.54505 0
1.9635 1.54505 0
1.5708 1.54505 0
1.76715 1.54505 0
1.5708 1.85843 0
1.76715 1.85843 0
1.76715 1.54505 0
1.9635 1.54505 0
1.76715 1.85843 0
1.9635 1.85843 0
1.9635 1.23166 0
2.15984 1.23166 0
1.9635 1.54505 0
2.15984 1.54505 0
2.15984 1.23166 0
2.35619 1.23166 0
2.15984 1.54505 0
2.35619 1.54505 0
1.9635 1.54505 0
2.15984 1.54505 0
1.9635 1.85843 0
2.15984 1.85843 0
2.15984 1.54505 0
2.35619 1.54505 0
2.15984 1.85843 0
2.35619 1.85843 0
1.5708 1.85843 0
1.76715 1.85843 0
1.5708 2.17178 0
1.76715 2.17178 0
1.76715 1.85843 0
1.9635 1.85843 0
1.76715 2.17178 0
1.9635 2.17178 0
1.5708 2.17178 0
1.76715 2.17178 0
1.5708 2.48511 0
1.76715 2.48511 0
1.76715 2.17178 0
1.9635 2.17178 0
1.76715 2.48511 0
1.9635 2.48511 0
1.9635 1.85843 0
2.15984 1.85843 0
1.9635 2.17178 0
2.15984 2.17178 0
2.15984 1.85843 0
2.35619 1.85843 0
2.15984 2.17178 0
2.35619 2.17178 0
1.9635 2.17178 0
2.15984 2.17178 0
1.9635 2.48511 0
2.15984 2.48511 0
2.15984 2.17178 0
2.35619 2.17178 0
2.15984 2.48511 0
2.35619 2.48511 0
2.35619 1.23166 0
2.55254 1.23166 0
2.35619 1.54505 0
2.55254 1.54505 0
2.55254 1.23166 0
2.74889 1.23166 0
2.55254 1.54505 0
2.74889 1.54505 0
2.35619 1.54505 0
2.55254 1.54505 0
2.35619 1.85843 0
2.55254 1.85843 0
2.55254 1.54505 0
2.74889 1.54505 0
2.55254 1.85843 0
2.74889 1.85843 0
2.74889 1.23166 0
2.94524 1.23166 0
2.74889 1.54505 0
2.94524 1.54505 0
2.94524 1.23166 0
3.14159 1.23166 0
2.94524 1.54505 0
3.14159 1.54505 0
2.74889 1.54505 0
2.94524 1.54505 0
2.74889 1.85843 0
2.94524 1.85843 0
2.94524 1.54505 0
3.14159 1.54505 0
2.94524 1.85843 0
3.14159 1.85843 0
2.35619 1.85843 0
2.55254 1.85843 0
2.35619 2.17178 0
2.55254 2.17178 0
2.55254 1.85843 0
2.74889 1.85843 0
2.55254 2.17178 0
2.74889 2.17178 0
2.35619 2.17178 0
2.55254 2.17178 0
2.35619 2.48511 0
2.55254 2.48511 0
2.55254 2.17178 0
2.74889 2.17178 0
2.55254 2.48511 0
2.74889 2.48511 0
2.74889 1.85843 0
2.94524 1.85843 0
2.74889 2.17178 0
2.94524 2.17178 0
2.94524 1.85843 0
3.14159 1.85843 0
2.94524 2.17178 0
3.14159 2.17178 0
2.74889 2.17178 0
2.94524 2.17178 0
2.74889 2.48511 0
2.94524 2.48511 0
2.94524 2.17178 0
3.14159 2.17178 0
2.94524 2.48511 0
3.14159 2.48511 0
0 2.48511 0
0.19635 2.48511 0
0 2.7984 0
0.19635 2.7984 0
0.19635 2.48511 0
0.392699 2.48511 0
0.19635 2.7984 0
0.392699 2.7984 0
0 2.7984 0
0.19635 2.7984 0
0 3.11167 0
0.19635 3.11167 0
0.19635 2.7984 0
0.392699 2.7984 0
0.19635 3.11167 0
0.392699 3.11167 0
0.392699 2.48511 0
0.589049 2.48511 0
0.392699 2.7984 0
0.589049 2.7984 0
0.589049 2.48511 0
0.785398 2.48511 0
0.589049 2.7984 0
0.785398 2.7984 0
0.392699 2.7984 0
0.589049 2.7984 0
0.392699 3.11167 0
0.589049 3.11167 0
0.589049 2.7984 0
0.785398 2.7984 0
0.589049 3.11167 0
0.785398 3.11167 0
0 3.11167 0
0.19635 3.11167 0
0 3.42491 0
0.19635 3.42491 0
0.19635 3.11167 0
0.392699 3.11167 0
0.19635 3.42491 0
0.392699 3.42491 0
[...]
POINT_DATA 20480
VECTORS uf double
0 1 0
-2.02769e-13 1 0
0 1.54343 0
2.97915e-13 1.54343 0
-2.02769e-13 1 0
-6.6155e-14 1 0
2.97915e-13 1.54343 0
1.26962e-13 1.54343 0
0 1.54343 0
1.60751e-13 1.54343 0
0 1.51013 0
1.7087e-14 1.51013 0
1.60751e-13 1.54343 0
-6.23661e-14 1.54343 0
1.7087e-14 1.51013 0
1.81353e-13 1.51013 0
-6.6155e-14 1 0
1.7457e-13 1 0
1.26962e-13 1.54343 0
-3.28711e-13 1.54343 0
1.7457e-13 1 0
-1.83592e-13 1 0
-3.28711e-13 1.54343 0
3.35266e-13 1.54343 0
-6.23661e-14 1.54343 0
-6.37933e-13 1.54343 0
1.81353e-13 1.51013 0
6.79577e-13 1.51013 0
-6.37933e-13 1.54343 0
7.84585e-14 1.54343 0
6.79577e-13 1.51013 0
1.37575e-13 1.51013 0
0 1.51013 0
1.89583e-13 1.51013 0
0 1.49575 0
-7.90299e-14 1.49575 0
1.89583e-13 1.51013 0
2.70001e-13 1.51013 0
-7.90299e-14 1.49575 0
-3.23536e-13 1.49575 0
0 1.49575 0
3.07123e-14 1.49575 0
0 1.46762 0
-1.03087e-13 1.46762 0
3.07123e-14 1.49575 0
-2.40912e-13 1.49575 0
-1.03087e-13 1.46762 0
2.91578e-13 1.46762 0
2.70001e-13 1.51013 0
5.64759e-13 1.51013 0
-3.23536e-13 1.49575 0
-3.00465e-13 1.49575 0
5.64759e-13 1.51013 0
1.23931e-13 1.51013 0
-3.00465e-13 1.49575 0
2.3746e-13 1.49575 0
-2.40912e-13 1.49575 0
2.67968e-13 1.49575 0
2.91578e-13 1.46762 0
-4.81471e-13 1.46762 0
2.67968e-13 1.49575 0
2.32687e-13 1.49575 0
-4.81471e-13 1.46762 0
2.43732e-13 1.46762 0
-1.83592e-13 1 0
-2.41737e-13 1 0
3.35266e-13 1.54343 0
3.96269e-13 1.54343 0
-2.41737e-13 1 0
8.75412e-14 1 0
3.96269e-13 1.54343 0
-1.1229e-13 1.54343 0
7.84585e-14 1.54343 0
5.37146e-13 1.54343 0
1.37575e-13 1.51013 0
-4.02354e-13 1.51013 0
5.37146e-13 1.54343 0
3.82019e-13 1.54343 0
-4.02354e-13 1.51013 0
-6.02768e-13 1.51013 0
8.75412e-14 1 0
7.1155e-13 1 0
-1.1229e-13 1.54343 0
-1.25589e-12 1.54343 0
7.1155e-13 1 0
4.40148e-13 1 0
-1.25589e-12 1.54343 0
-6.44504e-13 1.54343 0
3.82019e-13 1.54343 0
-9.17562e-13 1.54343 0
-6.02768e-13 1.51013 0
3.77489e-13 1.51013 0
-9.17562e-13 1.54343 0
-5.16998e-13 1.54343 0
3.77489e-13 1.51013 0
1.4371e-13 1.51013 0
1.23931e-13 1.51013 0
-3.51467e-13 1.51013 0
2.3746e-13 1.49575 0
1.71515e-13 1.49575 0
-3.51467e-13 1.51013 0
-5.0646e-13 1.51013 0
1.71515e-13 1.49575 0
2.27303e-13 1.49575 0
2.32687e-13 1.49575 0
-3.87539e-14 1.49575 0
2.43732e-13 1.46762 0
-1.72433e-13 1.46762 0
-3.87539e-14 1.49575 0
-1.82844e-13 1.49575 0
-1.72433e-13 1.46762 0
1.86583e-13 1.46762 0
-5.0646e-13 1.51013 0
-1.52821e-13 1.51013 0
2.27303e-13 1.49575 0
-1.17727e-13 1.49575 0
-1.52821e-13 1.51013 0
7.78994e-14 1.51013 0
-1.17727e-13 1.49575 0
-3.64041e-13 1.49575 0
-1.82844e-13 1.49575 0
-7.02041e-14 1.49575 0
1.86583e-13 1.46762 0
1.05399e-14 1.46762 0
-7.02041e-14 1.49575 0
6.97875e-14 1.49575 0
1.05399e-14 1.46762 0
-3.03453e-13 1.46762 0
0 1.46762 0
-1.62033e-13 1.46762 0
0 1.44486 0
2.85862e-13 1.44486 0
-1.62033e-13 1.46762 0
4.73631e-13 1.46762 0
2.85862e-13 1.44486 0
-6.04138e-13 1.44486 0
0 1.44486 0
4.354e-13 1.44486 0
0 1.42208 0
-3.60647e-13 1.42208 0
4.354e-13 1.44486 0
-5.86335e-13 1.44486 0
-3.60647e-13 1.42208 0
2.70684e-13 1.42208 0
4.73631e-13 1.46762 0
-4.24262e-13 1.46762 0
-6.04138e-13 1.44486 0
4.11908e-13 1.44486 0
-4.24262e-13 1.46762 0
2.64406e-13 1.46762 0
4.11908e-13 1.44486 0
2.76821e-14 1.44486 0
-5.86335e-13 1.44486 0
2.14505e-13 1.44486 0
2.70684e-13 1.42208 0
-4.64873e-15 1.42208 0
2.14505e-13 1.44486 0
7.64745e-14 1.44486 0
-4.64873e-15 1.42208 0
9.18571e-14 1.42208 0
0 1.42208 0
-1.85872e-13 1.42208 0
0 1.40089 0
-9.64038e-14 1.40089 0
-1.85872e-13 1.42208 0
1.14699e-13 1.42208 0
-9.64038e-14 1.40089 0
7.93535e-15 1.40089 0
0 1.40089 0
-3.18527e-13 1.40089 0
0 1.38074 0
1.88879e-13 1.38074 0
-3.18527e-13 1.40089 0
-9.4779e-14 1.40089 0
1.88879e-13 1.38074 0
9.08221e-14 1.38074 0
1.14699e-13 1.42208 0
1.51968e-13 1.42208 0
7.93535e-15 1.40089 0
-7.03476e-14 1.40089 0
1.51968e-13 1.42208 0
2.49012e-13 1.42208 0
-7.03476e-14 1.40089 0
-1.43207e-13 1.40089 0
-9.4779e-14 1.40089 0
1.43227e-13 1.40089 0
9.08221e-14 1.38074 0
-4.47933e-13 1.38074 0
1.43227e-13 1.40089 0
-1.52492e-13 1.40089 0
-4.47933e-13 1.38074 0
2.54507e-13 1.38074 0
2.64406e-13 1.46762 0
-2.80618e-14 1.46762 0
2.76821e-14 1.44486 0
-4.20824e-14 1.44486 0
-2.80618e-14 1.46762 0
5.81437e-14 1.46762 0
-4.20824e-14 1.44486 0
-1.21132e-13 1.44486 0
7.64745e-14 1.44486 0
-3.11136e-13 1.44486 0
9.18571e-14 1.42208 0
2.51829e-13 1.42208 0
-3.11136e-13 1.44486 0
1.03736e-13 1.44486 0
2.51829e-13 1.42208 0
-2.03912e-13 1.42208 0
5.81437e-14 1.46762 0
-3.37505e-13 1.46762 0
-1.21132e-13 1.44486 0
1.58661e-13 1.44486 0
-3.37505e-13 1.46762 0
-4.93565e-13 1.46762 0
1.58661e-13 1.44486 0
3.89387e-13 1.44486 0
1.03736e-13 1.44486 0
1.67543e-14 1.44486 0
-2.03912e-13 1.42208 0
-5.46032e-14 1.42208 0
1.67543e-14 1.44486 0
2.938e-13 1.44486 0
-5.46032e-14 1.42208 0
-3.60351e-13 1.42208 0
2.49012e-13 1.42208 0
2.12564e-13 1.42208 0
-1.43207e-13 1.40089 0
-1.64945e-13 1.40089 0
2.12564e-13 1.42208 0
-3.19044e-13 1.42208 0
-1.64945e-13 1.40089 0
-3.45907e-14 1.40089 0
-1.52492e-13 1.40089 0
-1.75167e-13 1.40089 0
2.54507e-13 1.38074 0
3.49208e-13 1.38074 0
-1.75167e-13 1.40089 0
-6.96978e-14 1.40089 0
3.49208e-13 1.38074 0
-9.01554e-14 1.38074 0
-3.19044e-13 1.42208 0
-5.79289e-13 1.42208 0
-3.45907e-14 1.40089 0
6.27526e-13 1.40089 0
-5.79289e-13 1.42208 0
1.74956e-13 1.42208 0
6.27526e-13 1.40089 0
-8.08094e-14 1.40089 0
-6.96978e-14 1.40089 0
3.39149e-13 1.40089 0
-9.01554e-14 1.38074 0
-2.45941e-13 1.38074 0
3.39149e-13 1.40089 0
2.39854e-13 1.40089 0
-2.45941e-13 1.38074 0
-1.23774e-13 1.38074 0
4.40148e-13 1 0
-3.96286e-13 1 0
-6.44504e-13 1.54343 0
8.11917e-13 1.54343 0
-3.96286e-13 1 0
-2.25526e-13 1 0
8.11917e-13 1.54343 0
2.53131e-13 1.54343 0
-5.16998e-13 1.54343 0
7.81143e-13 1.54343 0
1.4371e-13 1.51013 0
-5.01934e-13 1.51013 0
7.81143e-13 1.54343 0
2.91654e-13 1.54343 0
-5.01934e-13 1.51013 0
-2.73042e-13 1.51013 0
-2.25526e-13 1 0
-1.91594e-13 1 0
2.53131e-13 1.54343 0
1.14282e-13 1.54343 0
-1.91594e-13 1 0
2.62802e-13 1 0
1.14282e-13 1.54343 0
1.48384e-13 1.54343 0
2.91654e-13 1.54343 0
-3.73791e-13 1.54343 0
-2.73042e-13 1.51013 0
4.50918e-13 1.51013 0
-3.73791e-13 1.54343 0
6.128e-13 1.54343 0
4.50918e-13 1.51013 0
-4.73938e-13 1.51013 0
7.78994e-14 1.51013 0
-2.06893e-13 1.51013 0
-3.64041e-13 1.49575 0
1.84437e-13 1.49575 0
-2.06893e-13 1.51013 0
2.60218e-13 1.51013 0
1.84437e-13 1.49575 0
5.06492e-14 1.49575 0
6.97875e-14 1.49575 0
-1.86234e-13 1.49575 0
-3.03453e-13 1.46762 0
3.78923e-13 1.46762 0
-1.86234e-13 1.49575 0
-2.98605e-14 1.49575 0
3.78923e-13 1.46762 0
-3.58691e-13 1.46762 0
2.60218e-13 1.51013 0
2.15433e-13 1.51013 0
5.06492e-14 1.49575 0
-1.66937e-13 1.49575 0
2.15433e-13 1.51013 0
-5.91516e-13 1.51013 0
-1.66937e-13 1.49575 0
3.88613e-13 1.49575 0
-2.98605e-14 1.49575 0
-3.7792e-13 1.49575 0
-3.58691e-13 1.46762 0
6.10075e-13 1.46762 0
-3.7792e-13 1.49575 0
4.17725e-14 1.49575 0
6.10075e-13 1.46762 0
1.57431e-13 1.46762 0
2.62802e-13 1 0
2.42611e-13 1 0
1.48384e-13 1.54343 0
-3.34012e-13 1.54343 0
2.42611e-13 1 0
-1.02726e-13 1 0
-3.34012e-13 1.54343 0
3.49225e-14 1.54343 0
6.128e-13 1.54343 0
-3.14346e-13 1.54343 0
-4.73938e-13 1.51013 0
2.56687e-13 1.51013 0
-3.14346e-13 1.54343 0
-2.41255e-13 1.54343 0
2.56687e-13 1.51013 0
2.44443e-13 1.51013 0
-1.02726e-13 1 0
-1.70762e-13 1 0
3.49225e-14 1.54343 0
2.3647e-13 1.54343 0
-1.70762e-13 1 0
1.18017e-13 1 0
2.3647e-13 1.54343 0
-5.9898e-14 1.54343 0
-2.41255e-13 1.54343 0
2.43364e-13 1.54343 0
2.44443e-13 1.51013 0
-1.4267e-13 1.51013 0
2.43364e-13 1.54343 0
4.13006e-13 1.54343 0
-1.4267e-13 1.51013 0
-5.39904e-14 1.51013 0
-5.91516e-13 1.51013 0
7.07959e-15 1.51013 0
3.88613e-13 1.49575 0
2.54948e-14 1.49575 0
7.07959e-15 1.51013 0
-2.21186e-13 1.51013 0
2.54948e-14 1.49575 0
2.64558e-13 1.49575 0
4.17725e-14 1.49575 0
6.93396e-13 1.49575 0
1.57431e-13 1.46762 0
-6.94266e-13 1.46762 0
6.93396e-13 1.49575 0
-1.40389e-14 1.49575 0
-6.94266e-13 1.46762 0
3.79591e-13 1.46762 0
-2.21186e-13 1.51013 0
-8.40123e-14 1.51013 0
2.64558e-13 1.49575 0
2.77136e-14 1.49575 0
-8.40123e-14 1.51013 0
2.14556e-13 1.51013 0
2.77136e-14 1.49575 0
-9.20228e-14 1.49575 0
-1.40389e-14 1.49575 0
-2.30142e-13 1.49575 0
3.79591e-13 1.46762 0
-2.89187e-13 1.46762 0
-2.30142e-13 1.49575 0
3.08428e-13 1.49575 0
-2.89187e-13 1.46762 0
-1.54862e-14 1.46762 0
-4.93565e-13 1.46762 0
7.79667e-13 1.46762 0
3.89387e-13 1.44486 0
-7.11886e-13 1.44486 0
7.79667e-13 1.46762 0
-1.84392e-13 1.46762 0
-7.11886e-13 1.44486 0
1.97014e-13 1.44486 0
2.938e-13 1.44486 0
-1.23468e-13 1.44486 0
-3.60351e-13 1.42208 0
3.34677e-13 1.42208 0
-1.23468e-13 1.44486 0
-2.45216e-13 1.44486 0
3.34677e-13 1.42208 0
1.99054e-13 1.42208 0
-1.84392e-13 1.46762 0
-3.16612e-14 1.46762 0
1.97014e-13 1.44486 0
-2.52533e-13 1.44486 0
-3.16612e-14 1.46762 0
3.70298e-15 1.46762 0
-2.52533e-13 1.44486 0
-4.90433e-14 1.44486 0
-2.45216e-13 1.44486 0
-1.3498e-14 1.44486 0
1.99054e-13 1.42208 0
-8.49324e-14 1.42208 0
-1.3498e-14 1.44486 0
-1.76342e-13 1.44486 0
-8.49324e-14 1.42208 0
-3.15643e-14 1.42208 0
1.74956e-13 1.42208 0
2.00179e-13 1.42208 0
-8.08094e-14 1.40089 0
-1.93208e-13 1.40089 0
2.00179e-13 1.42208 0
1.03356e-13 1.42208 0
-1.93208e-13 1.40089 0
-3.786e-14 1.40089 0
2.39854e-13 1.40089 0
-1.6099e-13 1.40089 0
-1.23774e-13 1.38074 0
1.11973e-13 1.38074 0
-1.6099e-13 1.40089 0
2.19629e-13 1.40089 0
1.11973e-13 1.38074 0
-6.92364e-14 1.38074 0
1.03356e-13 1.42208 0
-1.70038e-13 1.42208 0
-3.786e-14 1.40089 0
2.95186e-13 1.40089 0
-1.70038e-13 1.42208 0
2.68541e-13 1.42208 0
2.95186e-13 1.40089 0
-2.14765e-13 1.40089 0
2.19629e-13 1.40089 0
-3.22009e-14 1.40089 0
-6.92364e-14 1.38074 0
-7.62676e-14 1.38074 0
-3.22009e-14 1.40089 0
4.4934e-13 1.40089 0
-7.62676e-14 1.38074 0
-4.33196e-13 1.38074 0
3.70298e-15 1.46762 0
1.88124e-13 1.46762 0
-4.90433e-14 1.44486 0
2.8401e-13 1.44486 0
1.88124e-13 1.46762 0
-2.6505e-13 1.46762 0
2.8401e-13 1.44486 0
1.70596e-13 1.44486 0
-1.76342e-13 1.44486 0
4.21352e-14 1.44486 0
-3.15643e-14 1.42208 0
2.54207e-13 1.42208 0
4.21352e-14 1.44486 0
1.08315e-13 1.44486 0
2.54207e-13 1.42208 0
-2.31257e-13 1.42208 0
-2.6505e-13 1.46762 0
5.42531e-13 1.46762 0
1.70596e-13 1.44486 0
-5.77144e-13 1.44486 0
5.42531e-13 1.46762 0
-6.96115e-13 1.46762 0
-5.77144e-13 1.44486 0
6.34965e-13 1.44486 0
1.08315e-13 1.44486 0
-2.76637e-13 1.44486 0
-2.31257e-13 1.42208 0
4.58871e-13 1.42208 0
-2.76637e-13 1.44486 0
2.64256e-13 1.44486 0
4.58871e-13 1.42208 0
-1.44275e-13 1.42208 0
2.68541e-13 1.42208 0
-3.47464e-13 1.42208 0
-2.14765e-13 1.40089 0
4.57274e-13 1.40089 0
-3.47464e-13 1.42208 0
-1.73783e-13 1.42208 0
4.57274e-13 1.40089 0
-2.98084e-14 1.40089 0
4.4934e-13 1.40089 0
-7.98784e-13 1.40089 0
-4.33196e-13 1.38074 0
6.92216e-13 1.38074 0
-7.98784e-13 1.40089 0
1.85846e-13 1.40089 0
6.92216e-13 1.38074 0
4.72457e-14 1.38074 0
-1.73783e-13 1.42208 0
5.01043e-13 1.42208 0
-2.98084e-14 1.40089 0
-5.04025e-13 1.40089 0
5.01043e-13 1.42208 0
-7.87269e-15 1.42208 0
-5.04025e-13 1.40089 0
7.38827e-14 1.40089 0
1.85846e-13 1.40089 0
2.66077e-14 1.40089 0
4.72457e-14 1.38074 0
-1.02601e-13 1.38074 0
2.66077e-14 1.40089 0
1.36716e-13 1.40089 0
-1.02601e-13 1.38074 0
2.31874e-13 1.38074 0
0 1.38074 0
1.14881e-13 1.38074 0
0 1.36172 0
-5.04386e-14 1.36172 0
1.14881e-13 1.38074 0
2.58726e-13 1.38074 0
-5.04386e-14 1.36172 0
-2.674e-13 1.36172 0
0 1.36172 0
1.69277e-13 1.36172 0
0 1.34372 0
-2.55838e-13 1.34372 0
1.69277e-13 1.36172 0
-2.90406e-13 1.36172 0
-2.55838e-13 1.34372 0
1.75241e-13 1.34372 0
2.58726e-13 1.38074 0
-6.34902e-13 1.38074 0
-2.674e-13 1.36172 0
6.6281e-13 1.36172 0
-6.34902e-13 1.38074 0
2.18033e-13 1.38074 0
6.6281e-13 1.36172 0
-3.0501e-14 1.36172 0
-2.90406e-13 1.36172 0
5.41718e-13 1.36172 0
1.75241e-13 1.34372 0
-3.27057e-13 1.34372 0
5.41718e-13 1.36172 0
1.12139e-13 1.36172 0
-3.27057e-13 1.34372 0
-3.7907e-14 1.34372 0
0 1.34372 0
-2.72574e-13 1.34372 0
0 1.32669 0
-7.68284e-14 1.32669 0
-2.72574e-13 1.34372 0
-1.02045e-13 1.34372 0
-7.68284e-14 1.32669 0
1.82772e-13 1.32669 0
0 1.32669 0
1.11604e-13 1.32669 0
0 1.31059 0
-4.5139e-14 1.31059 0
1.11604e-13 1.32669 0
3.00734e-13 1.32669 0
-4.5139e-14 1.31059 0
-2.97634e-13 1.31059 0
-1.02045e-13 1.34372 0
-2.53386e-13 1.34372 0
1.82772e-13 1.32669 0
2.40036e-13 1.32669 0
-2.53386e-13 1.34372 0
-3.61811e-14 1.34372 0
2.40036e-13 1.32669 0
-7.54725e-14 1.32669 0
3.00734e-13 1.32669 0
9.46476e-14 1.32669 0
-2.97634e-13 1.31059 0
7.48402e-14 1.31059 0
9.46476e-14 1.32669 0
-8.52761e-14 1.32669 0
7.48402e-14 1.31059 0
1.3862e-13 1.31059 0
2.18033e-13 1.38074 0
4.8517e-13 1.38074 0
-3.0501e-14 1.36172 0
-3.99352e-13 1.36172 0
4.8517e-13 1.38074 0
-4.53526e-13 1.38074 0
-3.99352e-13 1.36172 0
5.49469e-13 1.36172 0
1.12139e-13 1.36172 0
-4.2027e-13 1.36172 0
-3.7907e-14 1.34372 0
3.33483e-13 1.34372 0
-4.2027e-13 1.36172 0
6.90914e-14 1.36172 0
3.33483e-13 1.34372 0
4.1358e-14 1.34372 0
-4.53526e-13 1.38074 0
-2.72264e-13 1.38074 0
5.49469e-13 1.36172 0
8.40219e-14 1.36172 0
-2.72264e-13 1.38074 0
3.71454e-14 1.38074 0
8.40219e-14 1.36172 0
-1.15729e-13 1.36172 0
6.90914e-14 1.36172 0
2.42698e-13 1.36172 0
4.1358e-14 1.34372 0
-1.51072e-13 1.34372 0
2.42698e-13 1.36172 0
2.45333e-14 1.36172 0
-1.51072e-13 1.34372 0
-1.48691e-13 1.34372 0
-3.61811e-14 1.34372 0
4.09897e-13 1.34372 0
-7.54725e-14 1.32669 0
-4.2392e-13 1.32669 0
4.09897e-13 1.34372 0
9.53247e-14 1.34372 0
-4.2392e-13 1.32669 0
4.23814e-14 1.32669 0
-8.52761e-14 1.32669 0
-4.6043e-13 1.32669 0
1.3862e-13 1.31059 0
3.73824e-13 1.31059 0
-4.6043e-13 1.32669 0
1.81255e-13 1.32669 0
3.73824e-13 1.31059 0
-1.86491e-13 1.31059 0
9.53247e-14 1.34372 0
-6.18152e-14 1.34372 0
4.23814e-14 1.32669 0
1.664e-13 1.32669 0
-6.18152e-14 1.34372 0
-1.37657e-14 1.34372 0
1.664e-13 1.32669 0
-3.21298e-13 1.32669 0
1.81255e-13 1.32669 0
4.44264e-13 1.32669 0
-1.86491e-13 1.31059 0
-4.70004e-13 1.31059 0
4.44264e-13 1.32669 0
-5.52824e-13 1.32669 0
-4.70004e-13 1.31059 0
7.12254e-13 1.31059 0
0 1.31059 0
-3.85252e-13 1.31059 0
0 1.29535 0
3.71319e-13 1.29535 0
-3.85252e-13 1.31059 0
-2.47116e-13 1.31059 0
3.71319e-13 1.29535 0
2.42909e-13 1.29535 0
0 1.29535 0
5.04916e-14 1.29535 0
0 1.28092 0
1.46303e-13 1.28092 0
5.04916e-14 1.29535 0
7.27911e-14 1.29535 0
1.46303e-13 1.28092 0
1.86434e-15 1.28092 0
-2.47116e-13 1.31059 0
4.05436e-13 1.31059 0
2.42909e-13 1.29535 0
-2.69282e-13 1.29535 0
4.05436e-13 1.31059 0
1.36702e-13 1.31059 0
-2.69282e-13 1.29535 0
1.13489e-14 1.29535 0
7.27911e-14 1.29535 0
-2.10829e-13 1.29535 0
1.86434e-15 1.28092 0
-1.72088e-13 1.28092 0
-2.10829e-13 1.29535 0
1.21107e-13 1.29535 0
-1.72088e-13 1.28092 0
-6.69457e-14 1.28092 0
0 1.28092 0
3.54965e-13 1.28092 0
0 1.26727 0
-9.15595e-14 1.26727 0
3.54965e-13 1.28092 0
2.85067e-13 1.28092 0
-9.15595e-14 1.26727 0
-4.26593e-13 1.26727 0
0 1.26727 0
-1.17813e-13 1.26727 0
0 1.25436 0
1.21696e-13 1.25436 0
-1.17813e-13 1.26727 0
-4.77981e-13 1.26727 0
1.21696e-13 1.25436 0
2.16447e-13 1.25436 0
2.85067e-13 1.28092 0
-4.47571e-13 1.28092 0
-4.26593e-13 1.26727 0
3.88741e-13 1.26727 0
-4.47571e-13 1.28092 0
-3.40684e-14 1.28092 0
3.88741e-13 1.26727 0
9.44138e-14 1.26727 0
-4.77981e-13 1.26727 0
4.70049e-13 1.26727 0
2.16447e-13 1.25436 0
-2.98086e-13 1.25436 0
4.70049e-13 1.26727 0
1.74282e-13 1.26727 0
-2.98086e-13 1.25436 0
-2.36183e-13 1.25436 0
1.36702e-13 1.31059 0
4.00795e-13 1.31059 0
1.13489e-14 1.29535 0
-5.20203e-13 1.29535 0
4.00795e-13 1.31059 0
-3.55113e-13 1.31059 0
-5.20203e-13 1.29535 0
4.78219e-13 1.29535 0
1.21107e-13 1.29535 0
-2.54891e-13 1.29535 0
-6.69457e-14 1.28092 0
3.28297e-14 1.28092 0
-2.54891e-13 1.29535 0
5.40285e-13 1.29535 0
3.28297e-14 1.28092 0
-2.58487e-13 1.28092 0
-3.55113e-13 1.31059 0
-2.46823e-13 1.31059 0
4.78219e-13 1.29535 0
1.21013e-13 1.29535 0
-2.46823e-13 1.31059 0
5.41281e-13 1.31059 0
1.21013e-13 1.29535 0
-2.55234e-13 1.29535 0
5.40285e-13 1.29535 0
-1.30925e-13 1.29535 0
-2.58487e-13 1.28092 0
1.64623e-13 1.28092 0
-1.30925e-13 1.29535 0
-4.94517e-13 1.29535 0
1.64623e-13 1.28092 0
3.14937e-13 1.28092 0
-3.40684e-14 1.28092 0
-7.86414e-14 1.28092 0
9.44138e-14 1.26727 0
-6.30544e-14 1.26727 0
-7.86414e-14 1.28092 0
-1.3828e-13 1.28092 0
-6.30544e-14 1.26727 0
8.61787e-14 1.26727 0
1.74282e-13 1.26727 0
-7.78528e-14 1.26727 0
-2.36183e-13 1.25436 0
-3.57954e-14 1.25436 0
-7.78528e-14 1.26727 0
-1.88462e-15 1.26727 0
-3.57954e-14 1.25436 0
7.91258e-14 1.25436 0
-1.3828e-13 1.28092 0
1.28313e-13 1.28092 0
8.61787e-14 1.26727 0
1.62828e-14 1.26727 0
1.28313e-13 1.28092 0
4.24579e-13 1.28092 0
1.62828e-14 1.26727 0
-2.65635e-13 1.26727 0
-1.88462e-15 1.26727 0
2.32257e-13 1.26727 0
7.91258e-14 1.25436 0
-1.5369e-13 1.25436 0
2.32257e-13 1.26727 0
-3.7558e-14 1.26727 0
-1.5369e-13 1.25436 0
1.34902e-13 1.25436 0
3.71454e-14 1.38074 0
6.04627e-14 1.38074 0
-1.15729e-13 1.36172 0
-1.08762e-13 1.36172 0
6.04627e-14 1.38074 0
2.86351e-13 1.38074 0
-1.08762e-13 1.36172 0
-2.6043e-13 1.36172 0
2.45333e-14 1.36172 0
4.18332e-14 1.36172 0
-1.48691e-13 1.34372 0
1.75407e-13 1.34372 0
4.18332e-14 1.36172 0
-5.58459e-13 1.36172 0
1.75407e-13 1.34372 0
3.14999e-13 1.34372 0
2.86351e-13 1.38074 0
-1.53885e-13 1.38074 0
-2.6043e-13 1.36172 0
1.47084e-13 1.36172 0
-1.53885e-13 1.38074 0
-6.96233e-13 1.38074 0
1.47084e-13 1.36172 0
5.80686e-13 1.36172 0
-5.58459e-13 1.36172 0
2.00826e-13 1.36172 0
3.14999e-13 1.34372 0
-2.043e-13 1.34372 0
2.00826e-13 1.36172 0
5.19183e-13 1.36172 0
-2.043e-13 1.34372 0
-4.15238e-13 1.34372 0
-1.37657e-14 1.34372 0
1.03883e-13 1.34372 0
-3.21298e-13 1.32669 0
-1.65629e-14 1.32669 0
1.03883e-13 1.34372 0
-1.5595e-13 1.34372 0
-1.65629e-14 1.32669 0
3.34523e-14 1.32669 0
-5.52824e-13 1.32669 0
-2.51787e-13 1.32669 0
7.12254e-13 1.31059 0
3.09171e-13 1.31059 0
-2.51787e-13 1.32669 0
3.78262e-13 1.32669 0
3.09171e-13 1.31059 0
-2.83109e-13 1.31059 0
-1.5595e-13 1.34372 0
4.57677e-14 1.34372 0
3.34523e-14 1.32669 0
7.08695e-14 1.32669 0
4.57677e-14 1.34372 0
-4.25685e-14 1.34372 0
7.08695e-14 1.32669 0
5.62648e-14 1.32669 0
3.78262e-13 1.32669 0
-2.23145e-13 1.32669 0
-2.83109e-13 1.31059 0
4.01098e-13 1.31059 0
-2.23145e-13 1.32669 0
9.51594e-14 1.32669 0
4.01098e-13 1.31059 0
-4.08599e-13 1.31059 0
-6.96233e-13 1.38074 0
8.08046e-13 1.38074 0
5.80686e-13 1.36172 0
-7.31141e-13 1.36172 0
8.08046e-13 1.38074 0
-2.39118e-13 1.38074 0
-7.31141e-13 1.36172 0
2.84538e-13 1.36172 0
5.19183e-13 1.36172 0
1.75316e-13 1.36172 0
-4.15238e-13 1.34372 0
8.45753e-14 1.34372 0
1.75316e-13 1.36172 0
-1.59983e-13 1.36172 0
8.45753e-14 1.34372 0
3.35855e-14 1.34372 0
-2.39118e-13 1.38074 0
-2.12069e-13 1.38074 0
2.84538e-13 1.36172 0
6.73609e-14 1.36172 0
-2.12069e-13 1.38074 0
7.68703e-13 1.38074 0
6.73609e-14 1.36172 0
-5.02172e-13 1.36172 0
-1.59983e-13 1.36172 0
-1.76097e-13 1.36172 0
3.35855e-14 1.34372 0
-1.15663e-14 1.34372 0
-1.76097e-13 1.36172 0
-3.4217e-13 1.36172 0
-1.15663e-14 1.34372 0
4.75923e-13 1.34372 0
-4.25685e-14 1.34372 0
-2.08405e-13 1.34372 0
5.62648e-14 1.32669 0
4.94667e-13 1.32669 0
-2.08405e-13 1.34372 0
2.8643e-13 1.34372 0
4.94667e-13 1.32669 0
-5.22257e-13 1.32669 0
9.51594e-14 1.32669 0
4.56783e-14 1.32669 0
-4.08599e-13 1.31059 0
-1.2416e-13 1.31059 0
4.56783e-14 1.32669 0
-6.26571e-14 1.32669 0
-1.2416e-13 1.31059 0
4.83147e-13 1.31059 0
2.8643e-13 1.34372 0
2.11037e-13 1.34372 0
-5.22257e-13 1.32669 0
3.64057e-14 1.32669 0
2.11037e-13 1.34372 0
7.15042e-14 1.34372 0
3.64057e-14 1.32669 0
-1.3393e-14 1.32669 0
-6.26571e-14 1.32669 0
-1.81413e-14 1.32669 0
4.83147e-13 1.31059 0
-4.42755e-13 1.31059 0
-1.81413e-14 1.32669 0
2.56057e-13 1.32669 0
-4.42755e-13 1.31059 0
3.88284e-15 1.31059 0
5.41281e-13 1.31059 0
-3.42209e-14 1.31059 0
-2.55234e-13 1.29535 0
-2.92956e-14 1.29535 0
-3.42209e-14 1.31059 0
-2.29641e-13 1.31059 0
-2.92956e-14 1.29535 0
1.56948e-14 1.29535 0
-4.94517e-13 1.29535 0
1.47149e-13 1.29535 0
3.14937e-13 1.28092 0
-1.84024e-13 1.28092 0
1.47149e-13 1.29535 0
3.11316e-13 1.29535 0
-1.84024e-13 1.28092 0
-2.06878e-13 1.28092 0
-2.29641e-13 1.31059 0
4.11423e-13 1.31059 0
1.56948e-14 1.29535 0