# vtk DataFile Version 3.0
#This file was generated by the deal.II library on 2018/10/15 at 12:43:29
ASCII
DATASET UNSTRUCTURED_GRID

POINTS 20480 double
0 0 0
0.19635 0 0
0 0.302827 0
0.19635 0.302827 0
0.19635 0 0
0.392699 0 0
0.19635 0.302827 0
0.392699 0.302827 0
0 0.302827 0
0.19635 0.302827 0
0 0.614879 0
0.19635 0.614879 0
0.19635 0.302827 0
0.392699 0.302827 0
0.19635 0.614879 0
0.392699 0.614879 0
0.392699 0 0
0.589049 0 0
0.392699 0.302827 0
0.589049 0.302827 0
0.589049 0 0
0.785398 0 0
0.589049 0.302827 0
0.785398 0.302827 0
0.392699 0.302827 0
0.589049 0.302827 0
0.392699 0.614879 0
0.589049 0.614879 0
0.589049 0.302827 0
0.785398 0.302827 0
0.589049 0.614879 0
0.785398 0.614879 0
0 0.614879 0
0.19635 0.614879 0
0 0.927668 0
0.19635 0.927668 0
0.19635 0.614879 0
0.392699 0.614879 0
0.19635 0.927668 0
0.392699 0.927668 0
0 0.927668 0
0.19635 0.927668 0
0 1.24063 0
0.19635 1.24063 0
0.19635 0.927668 0
0.392699 0.927668 0
0.19635 1.24063 0
0.392699 1.24063 0
0.392699 0.614879 0
0.589049 0.614879 0
0.392699 0.927668 0
0.589049 0.927668 0
0.589049 0.614879 0
0.785398 0.614879 0
0.589049 0.927668 0
0.785398 0.927668 0
0.392699 0.927668 0
0.589049 0.927668 0
0.392699 1.24063 0
0.589049 1.24063 0
0.589049 0.927668 0
0.785398 0.927668 0
0.589049 1.24063 0
0.785398 1.24063 0
0.785398 0 0
0.981748 0 0
0.785398 0.302827 0
0.981748 0.302827 0
0.981748 0 0
1.1781 0 0
0.981748 0.302827 0
1.1781 0.302827 0
0.785398 0.302827 0
0.981748 0.302827 0
0.785398 0.614879 0
0.981748 0.614879 0
0.981748 0.302827 0
1.1781 0.302827 0
0.981748 0.614879 0
1.1781 0.614879 0
1.1781 0 0
1.37445 0 0
1.1781 0.302827 0
1.37445 0.302827 0
1.37445 0 0
1.5708 0 0
1.37445 0.302827 0
1.5708 0.302827 0
1.1781 0.302827 0
1.37445 0.302827 0
1.1781 0.614879 0
1.37445 0.614879 0
1.37445 0.302827 0
1.5708 0.302827 0
1.37445 0.614879 0
1.5708 0.614879 0
0.785398 0.614879 0
0.981748 0.614879 0
0.785398 0.927668 0
0.981748 0.927668 0
0.981748 0.614879 0
1.1781 0.614879 0
0.981748 0.927668 0
1.1781 0.927668 0
0.785398 0.927668 0
0.981748 0.927668 0
0.785398 1.24063 0
0.981748 1.24063 0
0.981748 0.927668 0
1.1781 0.927668 0
0.981748 1.24063 0
1.1781 1.24063 0
1.1781 0.614879 0
1.37445 0.614879 0
1.1781 0.927668 0
1.37445 0.927668 0
1.37445 0.614879 0
1.5708 0.614879 0
1.37445 0.927668 0
1.5708 0.927668 0
1.1781 0.927668 0
1.37445 0.927668 0
1.1781 1.24063 0
1.37445 1.24063 0
1.37445 0.927668 0
1.5708 0.927668 0
1.37445 1.24063 0
1.5708 1.24063 0
0 1.24063 0
0.19635 1.24063 0
0 1.55358 0
0.19635 1.55358 0
0.19635 1.24063 0
0.392699 1.24063 0
0.19635 1.55358 0
0.392699 1.55358 0
0 1.55358 0
0.19635 1.55358 0
0 1.86651 0
0.19635 1.86651 0
0.19635 1.55358 0
0.392699 1.55358 0
0.19635 1.86651 0
0.392699 1.86651 0
0.392699 1.24063 0
0.589049 1.24063 0
0.392699 1.55358 0
0.589049 1.55358 0
0.589049 1.24063 0
0.785398 1.24063 0
0.589049 1.55358 0
0.785398 1.55358 0
0.392699 1.55358 0
0.589049 1.55358 0
0.392699 1.86651 0
0.589049 1.86651 0
0.589049 1.55358 0
0.785398 1.55358 0
0.589049 1.86651 0
0.785398 1.86651 0
0 1.86651 0
0.19635 1.86651 0
0 2.17943 0
0.19635 2.17943 0
0.19635 1.86651 0
0.392699 1.86651 0
0.19635 2.17943 0
0.392699 2.17943 0
0 2.17943 0
0.19635 2.17943 0
0 2.49234 0
0.19635 2.49234 0
0.19635 2.17943 0
0.392699 2.17943 0
0.19635 2.49234 0
0.392699 2.49234 0
0.392699 1.86651 0
0.589049 1.86651 0
0.392699 2.17943 0
0.589049 2.17943 0
0.589049 1.86651 0
0.785398 1.86651 0
0.589049 2.17943 0
0.785398 2.17943 0
0.392699 2.17943 0
0.589049 2.17943 0
0.392699 2.49234 0
0.589049 2.49234 0
0.589049 2.17943 0
0.785398 2.17943 0
0.589049 2.49234 0
0.785398 2.49234 0
0.785398 1.24063 0
0.981748 1.24063 0
0.785398 1.55358 0
0.981748 1.55358 0
0.981748 1.24063 0
1.1781 1.24063 0
0.981748 1.55358 0
1.1781 1.55358 0
0.785398 1.55358 0
0.981748 1.55358 0
0.785398 1.86651 0
0.981748 1.86651 0
0.981748 1.55358 0
1.1781 1.55358 0
0.981748 1.86651 0
1.1781 1.86651 0
1.1781 1.24063 0
1.37445 1.24063 0
1.1781 1.55358 0
1.37445 1.55358 0
1.37445 1.24063 0
1.5708 1.24063 0
1.37445 1.55358 0
1.5708 1.55358 0
1.1781 1.55358 0
1.37445 1.55358 0
1.1781 1.86651 0
1.37445 1.86651 0
1.37445 1.55358 0
1.5708 1.55358 0
1.37445 1.86651 0
1.5708 1.86651 0
0.785398 1.86651 0
0.981748 1.86651 0
0.785398 2.17943 0
0.981748 2.17943 0
0.981748 1.86651 0
1.1781 1.86651 0
0.981748 2.17943 0
1.1781 2.17943 0
0.785398 2.17943 0
0.981748 2.17943 0
0.785398 2.49234 0
0.981748 2.49234 0
0.981748 2.17943 0
1.1781 2.17943 0
0.981748 2.49234 0
1.1781 2.49234 0
1.1781 1.86651 0
1.37445 1.86651 0
1.1781 2.17943 0
1.37445 2.17943 0
1.37445 1.86651 0
1.5708 1.86651 0
1.37445 2.17943 0
1.5708 2.17943 0
1.1781 2.17943 0
1.37445 2.17943 0
1.1781 2.49234 0
1.37445 2.49234 0
1.37445 2.17943 0
1.5708 2.17943 0
1.37445 2.49234 0
1.5708 2.49234 0
1.5708 0 0
1.76715 0 0
1.5708 0.302827 0
1.76715 0.302827 0
1.76715 0 0
1.9635 0 0
1.76715 0.302827 0
1.9635 0.302827 0
1.5708 0.302827 0
1.76715 0.302827 0
1.5708 0.614879 0
1.76715 0.614879 0
1.76715 0.302827 0
1.9635 0.302827 0
1.76715 0.614879 0
1.9635 0.614879 0
1.9635 0 0
2.15984 0 0
1.9635 0.302827 0
2.15984 0.302827 0
2.15984 0 0
2.35619 0 0
2.15984 0.302827 0
2.35619 0.302827 0
1.9635 0.302827 0
2.15984 0.302827 0
1.9635 0.614879 0
2.15984 0.614879 0
2.15984 0.302827 0
2.35619 0.302827 0
2.15984 0.614879 0
2.35619 0.614879 0
1.5708 0.614879 0
1.76715 0.614879 0
1.5708 0.927668 0
1.76715 0.927668 0
1.76715 0.614879 0
1.9635 0.614879 0
1.76715 0.927668 0
1.9635 0.927668 0
1.5708 0.927668 0
1.76715 0.927668 0
1.5708 1.24063 0
1.76715 1.24063 0
1.76715 0.927668 0
1.9635 0.927668 0
1.76715 1.24063 0
1.9635 1.24063 0
1.9635 0.614879 0
2.15984 0.614879 0
1.9635 0.927668 0
2.15984 0.927668 0
2.15984 0.614879 0
2.35619 0.614879 0
2.15984 0.927668 0
2.35619 0.927668 0
1.9635 0.927668 0
2.15984 0.927668 0
1.9635 1.24063 0
2.15984 1.24063 0
2.15984 0.927668 0
2.35619 0.927668 0
2.15984 1.24063 0
2.35619 1.24063 0
2.35619 0 0
2.55254 0 0
2.35619 0.302827 0
2.55254 0.302827 0
2.55254 0 0
2.74889 0 0
2.55254 0.302827 0
2.74889 0.302827 0
2.35619 0.302827 0
2.55254 0.302827 0
2.35619 0.614879 0
2.55254 0.614879 0
2.55254 0.302827 0
2.74889 0.302827 0
2.55254 0.614879 0
2.74889 0.614879 0
2.74889 0 0
2.94524 0 0
2.74889 0.302827 0
2.94524 0.302827 0
2.94524 0 0
3.14159 0 0
2.94524 0.302827 0
3.14159 0.302827 0
2.74889 0.302827 0
2.94524 0.302827 0
2.74889 0.614879 0
2.94524 0.614879 0
2.94524 0.302827 0
3.14159 0.302827 0
2.94524 0.614879 0
3.14159 0.614879 0
2.35619 0.614879 0
2.55254 0.614879 0
2.35619 0.927668 0
2.55254 0.927668 0
2.55254 0.614879 0
2.74889 0.614879 0
2.55254 0.927668 0
2.74889 0.927668 0
2.35619 0.927668 0
2.55254 0.927668 0
2.35619 1.24063 0
2.55254 1.24063 0
2.55254 0.927668 0
2.74889 0.927668 0
2.55254 1.24063 0
2.74889 1.24063 0
2.74889 0.614879 0
2.94524 0.614879 0
2.74889 0.927668 0
2.94524 0.927668 0
2.94524 0.614879 0
3.14159 0.614879 0
2.94524 0.927668 0
3.14159 0.927668 0
2.74889 0.927668 0
2.94524 0.927668 0
2.74889 1.24063 0
2.94524 1.24063 0
2.94524 0.927668 0
3.14159 0.927668 0
2.94524 1.24063 0
3.14159 1.24063 0
1.5708 1.24063 0
1.76715 1.24063 0
1.5708 1.55358 0
1.76715 1.55358 0
1.76715 1.24063 0
1.9635 1.24063 0
1.76715 1.55358 0
1.9635 1.55358 0
1.5708 1.55358 0
1.76715 1.55358 0
1.5708 1.86651 0
1.76715 1.86651 0
1.76715 1.55358 0
1.9635 1.55358 0
1.76715 1.86651 0
1.9635 1.86651 0
1.9635 1.24063 0
2.15984 1.24063 0
1.9635 1.55358 0
2.15984 1.55358 0
2.15984 1.24063 0
2.35619 1.24063 0
2.15984 1.55358 0
2.35619 1.55358 0
1.9635 1.55358 0
2.15984 1.55358 0
1.9635 1.86651 0
2.15984 1.86651 0
2.15984 1.55358 0
2.35619 1.55358 0
2.15984 1.86651 0
2.35619 1.86651 0
1.5708 1.86651 0
1.76715 1.86651 0
1.5708 2.17943 0
1.76715 2.17943 0
1.76715 1.86651 0
1.9635 1.86651 0
1.76715 2.17943 0
1.9635 2.17943 0
1.5708 2.17943 0
1.76715 2.17943 0
1.5708 2.49234 0
1.76715 2.49234 0
1.76715 2.17943 0
1.9635 2.17943 0
1.76715 2.49234 0
1.9635 2.49234 0
1.9635 1.86651 0
2.15984 1.86651 0
1.9635 2.17943 0
2.15984 2.17943 0
2.15984 1.86651 0
2.35619 1.86651 0
2.15984 2.17943 0
2.35619 2.17943 0
1.9635 2.17943 0
2.15984 2.17943 0
1.9635 2.49234 0
2.15984 2.49234 0
2.15984 2.17943 0
2.35619 2.17943 0
2.15984 2.49234 0
2.35619 2.49234 0
2.35619 1.24063 0
2.55254 1.24063 0
2.35619 1.55358 0
2.55254 1.55358 0
2.55254 1.24063 0
2.74889 1.24063 0
2.55254 1.55358 0
2.74889 1.55358 0
2.35619 1.55358 0
2.55254 1.55358 0
2.35619 1.86651 0
2.55254 1.86651 0
2.55254 1.55358 0
2.74889 1.55358 0
2.55254 1.86651 0
2.74889 1.86651 0
2.74889 1.24063 0
2.94524 1.24063 0
2.74889 1.55358 0
2.94524 1.55358 0
2.94524 1.24063 0
3.14159 1.24063 0
2.94524 1.55358 0
3.14159 1.55358 0
2.74889 1.55358 0
2.94524 1.55358 0
2.74889 1.86651 0
2.94524 1.86651 0
2.94524 1.55358 0
3.14159 1.55358 0
2.94524 1.86651 0
3.14159 1.86651 0
2.35619 1.86651 0
2.55254 1.86651 0
2.35619 2.17943 0
2.55254 2.17943 0
2.55254 1.86651 0
2.74889 1.86651 0
2.55254 2.17943 0
2.74889 2.17943 0
2.35619 2.17943 0
2.55254 2.17943 0
2.35619 2.49234 0
2.55254 2.49234 0
2.55254 2.17943 0
2.74889 2.17943 0
2.55254 2.49234 0
2.74889 2.49234 0
2.74889 1.86651 0
2.94524 1.86651 0
2.74889 2.17943 0
2.94524 2.17943 0
2.94524 1.86651 0
3.14159 1.86651 0
2.94524 2.17943 0
3.14159 2.17943 0
2.74889 2.17943 0
2.94524 2.17943 0
2.74889 2.49234 0
2.94524 2.49234 0
2.94524 2.17943 0
3.14159 2.17943 0
2.94524 2.49234 0
3.14159 2.49234 0
0 2.49234 0
0.19635 2.49234 0
0 2.80524 0
0.19635 2.80524 0
0.19635 2.49234 0
0.392699 2.49234 0
0.19635 2.80524 0
0.392699 2.80524 0
0 2.80524 0
0.19635 2.80524 0
0 3.11812 0
0.19635 3.11812 0
0.19635 2.80524 0
0.392699 2.80524 0
0.19635 3.11812 0
0.392699 3.11812 0
0.392699 2.49234 0
0.589049 2.49234 0
0.392699 2.80524 0
0.589049 2.80524 0
0.589049 2.49234 0
0.785398 2.49234 0
0.589049 2.80524 0
0.785398 2.80524 0
0.392699 2.80524 0
0.589049 2.80524 0
0.392699 3.11812 0
0.589049 3.11812 0
0.589049 2.80524 0
0.785398 2.80524 0
0.589049 3.11812 0
0.785398 3.11812 0
0 3.11812 0
0.19635 3.11812 0
0 3.431 0
0.19635 3.431 0
0.19635 3.11812 0
0.392699 3.11812 0
0.19635 3.431 0
[...]
POINT_DATA 20480
VECTORS uf double
0 1 0
-2.14159e-13 1 0
0 1.47625 0
3.38871e-13 1.47625 0
-2.14159e-13 1 0
-5.60139e-14 1 0
3.38871e-13 1.47625 0
6.94399e-14 1.47625 0
0 1.47625 0
2.52353e-13 1.47625 0
0 1.44337 0
-5.10985e-14 1.44337 0
2.52353e-13 1.47625 0
-1.55874e-13 1.47625 0
-5.10985e-14 1.44337 0
2.15455e-13 1.44337 0
-5.60139e-14 1 0
1.03268e-13 1 0
6.94399e-14 1.47625 0
-2.14444e-13 1.47625 0
1.03268e-13 1 0
-1.84412e-13 1 0
-2.14444e-13 1.47625 0
2.95822e-13 1.47625 0
-1.55874e-13 1.47625 0
-4.97253e-13 1.47625 0
2.15455e-13 1.44337 0
5.89895e-13 1.44337 0
-4.97253e-13 1.47625 0
2.37917e-13 1.47625 0
5.89895e-13 1.44337 0
5.29019e-14 1.44337 0
0 1.44337 0
1.86954e-13 1.44337 0
0 1.42813 0
-2.19727e-13 1.42813 0
1.86954e-13 1.44337 0
2.34754e-13 1.44337 0
-2.19727e-13 1.42813 0
-1.83005e-13 1.42813 0
0 1.42813 0
-1.55234e-13 1.42813 0
0 1.40567 0
-9.28093e-15 1.40567 0
-1.55234e-13 1.42813 0
-8.37799e-14 1.42813 0
-9.28093e-15 1.40567 0
3.12822e-13 1.40567 0
2.34754e-13 1.44337 0
5.03209e-13 1.44337 0
-1.83005e-13 1.42813 0
-2.96587e-13 1.42813 0
5.03209e-13 1.44337 0
2.4631e-14 1.44337 0
-2.96587e-13 1.42813 0
2.31117e-13 1.42813 0
-8.37799e-14 1.42813 0
2.06369e-13 1.42813 0
3.12822e-13 1.40567 0
-4.49748e-13 1.40567 0
2.06369e-13 1.42813 0
2.90924e-13 1.42813 0
-4.49748e-13 1.40567 0
8.66716e-14 1.40567 0
-1.84412e-13 1 0
-2.38481e-13 1 0
2.95822e-13 1.47625 0
3.46326e-13 1.47625 0
-2.38481e-13 1 0
6.10984e-14 1 0
3.46326e-13 1.47625 0
-1.18527e-13 1.47625 0
2.37917e-13 1.47625 0
4.84081e-13 1.47625 0
5.29019e-14 1.44337 0
-4.50445e-13 1.44337 0
4.84081e-13 1.47625 0
4.20542e-13 1.47625 0
-4.50445e-13 1.44337 0
-5.54169e-13 1.44337 0
6.10984e-14 1 0
6.8976e-13 1 0
-1.18527e-13 1.47625 0
-1.22684e-12 1.47625 0
6.8976e-13 1 0
3.7694e-13 1 0
-1.22684e-12 1.47625 0
-6.5707e-13 1.47625 0
4.20542e-13 1.47625 0
-1.19944e-12 1.47625 0
-5.54169e-13 1.44337 0
3.57826e-13 1.44337 0
-1.19944e-12 1.47625 0
-5.19503e-13 1.47625 0
3.57826e-13 1.44337 0
2.77685e-13 1.44337 0
2.4631e-14 1.44337 0
-3.94136e-13 1.44337 0
2.31117e-13 1.42813 0
2.21441e-13 1.42813 0
-3.94136e-13 1.44337 0
-3.41512e-13 1.44337 0
2.21441e-13 1.42813 0
6.11166e-14 1.42813 0
2.90924e-13 1.42813 0
2.29486e-14 1.42813 0
8.66716e-14 1.40567 0
-9.45451e-14 1.40567 0
2.29486e-14 1.42813 0
-2.8563e-13 1.42813 0
-9.45451e-14 1.40567 0
1.37672e-13 1.40567 0
-3.41512e-13 1.44337 0
-2.68352e-13 1.44337 0
6.11166e-14 1.42813 0
1.75297e-14 1.42813 0
-2.68352e-13 1.44337 0
8.92949e-14 1.44337 0
1.75297e-14 1.42813 0
-3.33645e-13 1.42813 0
-2.8563e-13 1.42813 0
-1.24237e-13 1.42813 0
1.37672e-13 1.40567 0
4.10524e-14 1.40567 0
-1.24237e-13 1.42813 0
4.24389e-14 1.42813 0
4.10524e-14 1.40567 0
-2.29559e-13 1.40567 0
0 1.40567 0
-8.86809e-14 1.40567 0
0 1.38634 0
1.86948e-13 1.38634 0
-8.86809e-14 1.40567 0
5.05001e-13 1.40567 0
1.86948e-13 1.38634 0
-5.43144e-13 1.38634 0
0 1.38634 0
2.50963e-13 1.38634 0
0 1.36735 0
-2.32156e-13 1.36735 0
2.50963e-13 1.38634 0
-3.93309e-13 1.38634 0
-2.32156e-13 1.36735 0
1.38843e-13 1.36735 0
5.05001e-13 1.40567 0
-3.93883e-13 1.40567 0
-5.43144e-13 1.38634 0
3.07022e-13 1.38634 0
-3.93883e-13 1.40567 0
-4.18303e-15 1.40567 0
3.07022e-13 1.38634 0
1.78018e-13 1.38634 0
-3.93309e-13 1.38634 0
1.48157e-13 1.38634 0
1.38843e-13 1.36735 0
-1.03449e-13 1.36735 0
1.48157e-13 1.38634 0
9.673e-14 1.38634 0
-1.03449e-13 1.36735 0
1.62961e-13 1.36735 0
0 1.36735 0
-1.71446e-13 1.36735 0
0 1.34946 0
-2.18061e-14 1.34946 0
-1.71446e-13 1.36735 0
-6.89632e-14 1.36735 0
-2.18061e-14 1.34946 0
3.2987e-14 1.34946 0
0 1.34946 0
-1.63573e-13 1.34946 0
0 1.3324 0
1.10388e-13 1.3324 0
-1.63573e-13 1.34946 0
-6.24959e-15 1.34946 0
1.10388e-13 1.3324 0
9.9233e-14 1.3324 0
-6.89632e-14 1.36735 0
2.05173e-14 1.36735 0
3.2987e-14 1.34946 0
1.57316e-14 1.34946 0
2.05173e-14 1.36735 0
3.18662e-13 1.36735 0
1.57316e-14 1.34946 0
-2.02199e-13 1.34946 0
-6.24959e-15 1.34946 0
4.9601e-14 1.34946 0
9.9233e-14 1.3324 0
-3.30388e-13 1.3324 0
4.9601e-14 1.34946 0
-2.30139e-13 1.34946 0
-3.30388e-13 1.3324 0
2.18632e-13 1.3324 0
-4.18303e-15 1.40567 0
3.15326e-14 1.40567 0
1.78018e-13 1.38634 0
-1.54406e-13 1.38634 0
3.15326e-14 1.40567 0
1.93898e-14 1.40567 0
-1.54406e-13 1.38634 0
-1.00387e-13 1.38634 0
9.673e-14 1.38634 0
-2.77372e-13 1.38634 0
1.62961e-13 1.36735 0
1.88856e-13 1.36735 0
-2.77372e-13 1.38634 0
2.24787e-14 1.38634 0
1.88856e-13 1.36735 0
-1.42892e-13 1.36735 0
1.93898e-14 1.40567 0
-3.02595e-13 1.40567 0
-1.00387e-13 1.38634 0
1.59748e-13 1.38634 0
-3.02595e-13 1.40567 0
-3.45956e-13 1.40567 0
1.59748e-13 1.38634 0
2.33982e-13 1.38634 0
2.24787e-14 1.38634 0
6.89005e-15 1.38634 0
-1.42892e-13 1.36735 0
4.2459e-14 1.36735 0
6.89005e-15 1.38634 0
1.77305e-13 1.38634 0
4.2459e-14 1.36735 0
-3.96452e-13 1.36735 0
3.18662e-13 1.36735 0
8.84937e-14 1.36735 0
-2.02199e-13 1.34946 0
-1.938e-13 1.34946 0
8.84937e-14 1.36735 0
-2.07947e-13 1.36735 0
-1.938e-13 1.34946 0
3.25901e-15 1.34946 0
-2.30139e-13 1.34946 0
-1.89196e-13 1.34946 0
2.18632e-13 1.3324 0
3.48187e-13 1.3324 0
-1.89196e-13 1.34946 0
-7.7478e-14 1.34946 0
3.48187e-13 1.3324 0
-2.17556e-13 1.3324 0
-2.07947e-13 1.36735 0
-4.06153e-13 1.36735 0
3.25901e-15 1.34946 0
5.04004e-13 1.34946 0
-4.06153e-13 1.36735 0
4.87264e-14 1.36735 0
5.04004e-13 1.34946 0
8.29262e-14 1.34946 0
-7.7478e-14 1.34946 0
1.57879e-13 1.34946 0
-2.17556e-13 1.3324 0
-2.46889e-13 1.3324 0
1.57879e-13 1.34946 0
3.08769e-13 1.34946 0
-2.46889e-13 1.3324 0
-7.09618e-14 1.3324 0
3.7694e-13 1 0
-3.45844e-13 1 0
-6.5707e-13 1.47625 0
6.32693e-13 1.47625 0
-3.45844e-13 1 0
-2.27538e-13 1 0
6.32693e-13 1.47625 0
2.62027e-13 1.47625 0
-5.19503e-13 1.47625 0
7.37673e-13 1.47625 0
2.77685e-13 1.44337 0
-4.7083e-13 1.44337 0
7.37673e-13 1.47625 0
3.95413e-13 1.47625 0
-4.7083e-13 1.44337 0
-3.33383e-13 1.44337 0
-2.27538e-13 1 0
-2.81919e-13 1 0
2.62027e-13 1.47625 0
2.61753e-13 1.47625 0
-2.81919e-13 1 0
3.08422e-13 1 0
2.61753e-13 1.47625 0
-2.51795e-15 1.47625 0
3.95413e-13 1.47625 0
-2.96618e-13 1.47625 0
-3.33383e-13 1.44337 0
3.1346e-13 1.44337 0
-2.96618e-13 1.47625 0
3.21993e-13 1.47625 0
3.1346e-13 1.44337 0
-3.00266e-13 1.44337 0
8.92949e-14 1.44337 0
-1.88894e-13 1.44337 0
-3.33645e-13 1.42813 0
1.43726e-13 1.42813 0
-1.88894e-13 1.44337 0
-5.90383e-14 1.44337 0
1.43726e-13 1.42813 0
8.36129e-14 1.42813 0
4.24389e-14 1.42813 0
-6.08673e-14 1.42813 0
-2.29559e-13 1.40567 0
1.32663e-13 1.40567 0
-6.08673e-14 1.42813 0
2.16823e-14 1.42813 0
1.32663e-13 1.40567 0
-2.67078e-13 1.40567 0
-5.90383e-14 1.44337 0
4.0399e-13 1.44337 0
8.36129e-14 1.42813 0
-2.61001e-13 1.42813 0
4.0399e-13 1.44337 0
-4.74908e-13 1.44337 0
-2.61001e-13 1.42813 0
3.19111e-13 1.42813 0
2.16823e-14 1.42813 0
-4.95062e-13 1.42813 0
-2.67078e-13 1.40567 0
5.76352e-13 1.40567 0
-4.95062e-13 1.42813 0
-6.27812e-14 1.42813 0
5.76352e-13 1.40567 0
1.07547e-13 1.40567 0
3.08422e-13 1 0
1.58134e-13 1 0
-2.51795e-15 1.47625 0
-2.08786e-13 1.47625 0
1.58134e-13 1 0
-8.69979e-14 1 0
-2.08786e-13 1.47625 0
-3.95448e-14 1.47625 0
3.21993e-13 1.47625 0
-2.04154e-13 1.47625 0
-3.00266e-13 1.44337 0
1.75707e-13 1.44337 0
-2.04154e-13 1.47625 0
-2.96018e-13 1.47625 0
1.75707e-13 1.44337 0
2.09583e-13 1.44337 0
-8.69979e-14 1 0
-1.97695e-13 1 0
-3.95448e-14 1.47625 0
2.26245e-13 1.47625 0
-1.97695e-13 1 0
1.34046e-13 1 0
2.26245e-13 1.47625 0
-1.23392e-13 1.47625 0
-2.96018e-13 1.47625 0
1.63046e-13 1.47625 0
2.09583e-13 1.44337 0
-6.89659e-14 1.44337 0
1.63046e-13 1.47625 0
3.48653e-13 1.47625 0
-6.89659e-14 1.44337 0
-8.08727e-14 1.44337 0
-4.74908e-13 1.44337 0
1.77022e-15 1.44337 0
3.19111e-13 1.42813 0
3.43112e-14 1.42813 0
1.77022e-15 1.44337 0
-2.65658e-13 1.44337 0
3.43112e-14 1.42813 0
2.55575e-13 1.42813 0
-6.27812e-14 1.42813 0
6.51963e-13 1.42813 0
1.07547e-13 1.40567 0
-5.74502e-13 1.40567 0
6.51963e-13 1.42813 0
1.08492e-14 1.42813 0
-5.74502e-13 1.40567 0
2.0433e-13 1.40567 0
-2.65658e-13 1.44337 0
4.91188e-14 1.44337 0
2.55575e-13 1.42813 0
-5.02694e-14 1.42813 0
4.91188e-14 1.44337 0
1.95695e-13 1.44337 0
-5.02694e-14 1.42813 0
-1.97924e-13 1.42813 0
1.08492e-14 1.42813 0
-2.28585e-13 1.42813 0
2.0433e-13 1.40567 0
-3.09578e-13 1.40567 0
-2.28585e-13 1.42813 0
1.35901e-13 1.42813 0
-3.09578e-13 1.40567 0
1.43788e-13 1.40567 0
-3.45956e-13 1.40567 0
5.00303e-13 1.40567 0
2.33982e-13 1.38634 0
-5.75798e-13 1.38634 0
5.00303e-13 1.40567 0
-1.39315e-13 1.40567 0
-5.75798e-13 1.38634 0
2.08889e-13 1.38634 0
1.77305e-13 1.38634 0
-1.02151e-13 1.38634 0
-3.96452e-13 1.36735 0
3.57054e-13 1.36735 0
-1.02151e-13 1.38634 0
-1.30904e-13 1.38634 0
3.57054e-13 1.36735 0
3.5034e-14 1.36735 0
-1.39315e-13 1.40567 0
-6.38032e-14 1.40567 0
2.08889e-13 1.38634 0
-1.92893e-13 1.38634 0
-6.38032e-14 1.40567 0
-7.55634e-14 1.40567 0
-1.92893e-13 1.38634 0
-8.93722e-14 1.38634 0
-1.30904e-13 1.38634 0
3.59754e-14 1.38634 0
3.5034e-14 1.36735 0
-1.41812e-13 1.36735 0
3.59754e-14 1.38634 0
-2.74923e-13 1.38634 0
-1.41812e-13 1.36735 0
4.6268e-14 1.36735 0
4.87264e-14 1.36735 0
2.47824e-13 1.36735 0
8.29262e-14 1.34946 0
-1.75277e-13 1.34946 0
2.47824e-13 1.36735 0
5.91925e-14 1.36735 0
-1.75277e-13 1.34946 0
-1.67895e-13 1.34946 0
3.08769e-13 1.34946 0
-8.90608e-14 1.34946 0
-7.09618e-14 1.3324 0
-1.06583e-14 1.3324 0
-8.90608e-14 1.34946 0
7.22039e-14 1.34946 0
-1.06583e-14 1.3324 0
6.41824e-14 1.3324 0
5.91925e-14 1.36735 0
-1.79317e-13 1.36735 0
-1.67895e-13 1.34946 0
2.7604e-13 1.34946 0
-1.79317e-13 1.36735 0
2.94919e-13 1.36735 0
2.7604e-13 1.34946 0
-2.18491e-13 1.34946 0
7.22039e-14 1.34946 0
-1.8981e-15 1.34946 0
6.41824e-14 1.3324 0
-1.59415e-13 1.3324 0
-1.8981e-15 1.34946 0
3.44745e-13 1.34946 0
-1.59415e-13 1.3324 0
-2.71115e-13 1.3324 0
-7.55634e-14 1.40567 0
3.52271e-13 1.40567 0
-8.93722e-14 1.38634 0
1.10375e-13 1.38634 0
3.52271e-13 1.40567 0
-4.26122e-13 1.40567 0
1.10375e-13 1.38634 0
2.09993e-13 1.38634 0
-2.74923e-13 1.38634 0
-8.50113e-14 1.38634 0
4.6268e-14 1.36735 0
1.77932e-13 1.36735 0
-8.50113e-14 1.38634 0
3.90967e-14 1.38634 0
1.77932e-13 1.36735 0
-1.06103e-13 1.36735 0
-4.26122e-13 1.40567 0
4.49975e-13 1.40567 0
2.09993e-13 1.38634 0
-4.21539e-13 1.38634 0
4.49975e-13 1.40567 0
-5.23497e-13 1.40567 0
-4.21539e-13 1.38634 0
4.33246e-13 1.38634 0
3.90967e-14 1.38634 0
-1.7709e-13 1.38634 0
-1.06103e-13 1.36735 0
3.67599e-13 1.36735 0
-1.7709e-13 1.38634 0
1.85148e-13 1.38634 0
3.67599e-13 1.36735 0
-1.97795e-13 1.36735 0
2.94919e-13 1.36735 0
-4.42871e-13 1.36735 0
-2.18491e-13 1.34946 0
6.05946e-13 1.34946 0
-4.42871e-13 1.36735 0
-5.21691e-14 1.36735 0
6.05946e-13 1.34946 0
-1.71314e-13 1.34946 0
3.44745e-13 1.34946 0
-6.81018e-13 1.34946 0
-2.71115e-13 1.3324 0
3.63653e-13 1.3324 0
-6.81018e-13 1.34946 0
3.93311e-14 1.34946 0
3.63653e-13 1.3324 0
1.12877e-13 1.3324 0
-5.21691e-14 1.36735 0
4.5509e-13 1.36735 0
-1.71314e-13 1.34946 0
-4.97929e-13 1.34946 0
4.5509e-13 1.36735 0
-9.11789e-14 1.36735 0
-4.97929e-13 1.34946 0
1.13903e-13 1.34946 0
3.93311e-14 1.34946 0
-1.91432e-14 1.34946 0
1.12877e-13 1.3324 0
2.46811e-14 1.3324 0
-1.91432e-14 1.34946 0
2.25391e-13 1.34946 0
2.46811e-14 1.3324 0
-8.60215e-14 1.3324 0
0 1.3324 0
-3.70482e-14 1.3324 0
0 1.3162 0
6.40948e-14 1.3162 0
-3.70482e-14 1.3324 0
3.50629e-13 1.3324 0
6.40948e-14 1.3162 0
-3.57403e-13 1.3162 0
0 1.3162 0
2.29519e-13 1.3162 0
0 1.30078 0
-2.35596e-13 1.30078 0
2.29519e-13 1.3162 0
-4.91765e-13 1.3162 0
-2.35596e-13 1.30078 0
2.81801e-13 1.30078 0
3.50629e-13 1.3324 0
-5.12394e-13 1.3324 0
-3.57403e-13 1.3162 0
6.27934e-13 1.3162 0
-5.12394e-13 1.3324 0
1.48715e-13 1.3324 0
6.27934e-13 1.3162 0
-3.90593e-14 1.3162 0
-4.91765e-13 1.3162 0
5.80675e-13 1.3162 0
2.81801e-13 1.30078 0
-3.23324e-13 1.30078 0
5.80675e-13 1.3162 0
1.11097e-13 1.3162 0
-3.23324e-13 1.30078 0
-2.20742e-14 1.30078 0
0 1.30078 0
-1.43017e-13 1.30078 0
0 1.28612 0
-6.75615e-14 1.28612 0
-1.43017e-13 1.30078 0
8.24682e-14 1.30078 0
-6.75615e-14 1.28612 0
6.66213e-14 1.28612 0
0 1.28612 0
4.03118e-15 1.28612 0
0 1.27218 0
-4.68156e-14 1.27218 0
4.03118e-15 1.28612 0
1.80985e-13 1.28612 0
-4.68156e-14 1.27218 0
-1.12042e-13 1.27218 0
8.24682e-14 1.30078 0
-2.49079e-13 1.30078 0
6.66213e-14 1.28612 0
1.16034e-13 1.28612 0
-2.49079e-13 1.30078 0
-6.8633e-14 1.30078 0
1.16034e-13 1.28612 0
-1.75321e-14 1.28612 0
1.80985e-13 1.28612 0
2.42857e-14 1.28612 0
-1.12042e-13 1.27218 0
3.21353e-15 1.27218 0
2.42857e-14 1.28612 0
-4.35385e-14 1.28612 0
3.21353e-15 1.27218 0
9.34942e-14 1.27218 0
1.48715e-13 1.3324 0
3.35262e-13 1.3324 0
-3.90593e-14 1.3162 0
-2.43074e-13 1.3162 0
3.35262e-13 1.3324 0
-4.03344e-13 1.3324 0
-2.43074e-13 1.3162 0
4.22508e-13 1.3162 0
1.11097e-13 1.3162 0
-2.88689e-13 1.3162 0
-2.20742e-14 1.30078 0
3.01266e-13 1.30078 0
-2.88689e-13 1.3162 0
5.86388e-14 1.3162 0
3.01266e-13 1.30078 0
5.03752e-14 1.30078 0
-4.03344e-13 1.3324 0
-1.35952e-13 1.3324 0
4.22508e-13 1.3162 0
-9.12733e-14 1.3162 0
-1.35952e-13 1.3324 0
1.24253e-13 1.3324 0
-9.12733e-14 1.3162 0
2.73093e-14 1.3162 0
5.86388e-14 1.3162 0
7.79099e-15 1.3162 0
5.03752e-14 1.30078 0
3.66362e-14 1.30078 0
7.79099e-15 1.3162 0
5.28192e-14 1.3162 0
3.66362e-14 1.30078 0
-2.76274e-13 1.30078 0
-6.8633e-14 1.30078 0
2.84189e-13 1.30078 0
-1.75321e-14 1.28612 0
-2.48932e-13 1.28612 0
2.84189e-13 1.30078 0
8.06799e-15 1.30078 0
-2.48932e-13 1.28612 0
-4.68149e-14 1.28612 0
-4.35385e-14 1.28612 0
-2.51758e-13 1.28612 0
9.34942e-14 1.27218 0
2.76132e-13 1.27218 0
-2.51758e-13 1.28612 0
1.15319e-13 1.28612 0
2.76132e-13 1.27218 0
-2.1587e-13 1.27218 0
8.06799e-15 1.30078 0
1.47248e-13 1.30078 0
-4.68149e-14 1.28612 0
-1.73107e-14 1.28612 0
1.47248e-13 1.30078 0
-6.07128e-14 1.30078 0
-1.73107e-14 1.28612 0
-2.41524e-13 1.28612 0
1.15319e-13 1.28612 0
1.21384e-13 1.28612 0
-2.1587e-13 1.27218 0
-1.86132e-13 1.27218 0
1.21384e-13 1.28612 0
-4.1964e-13 1.28612 0
-1.86132e-13 1.27218 0
4.15575e-13 1.27218 0
0 1.27218 0
-2.53067e-13 1.27218 0
0 1.25892 0
2.41809e-13 1.25892 0
-2.53067e-13 1.27218 0
-1.27916e-13 1.27218 0
2.41809e-13 1.25892 0
1.94461e-13 1.25892 0
0 1.25892 0
3.55501e-14 1.25892 0
0 1.2463 0
1.65971e-13 1.2463 0
3.55501e-14 1.25892 0
1.39133e-13 1.25892 0
1.65971e-13 1.2463 0
-4.59651e-14 1.2463 0
-1.27916e-13 1.27218 0
1.09568e-13 1.27218 0
1.94461e-13 1.25892 0
-2.64334e-13 1.25892 0
1.09568e-13 1.27218 0
1.30363e-13 1.27218 0
-2.64334e-13 1.25892 0
4.77672e-14 1.25892 0
1.39133e-13 1.25892 0
-1.44286e-13 1.25892 0
-4.59651e-14 1.2463 0
1.43237e-14 1.2463 0
-1.44286e-13 1.25892 0
1.06442e-13 1.25892 0
1.43237e-14 1.2463 0
-1.11281e-13 1.2463 0
0 1.2463 0
2.27035e-13 1.2463 0
0 1.2343 0
-5.15762e-14 1.2343 0
2.27035e-13 1.2463 0
1.44155e-13 1.2463 0
-5.15762e-14 1.2343 0
-3.54669e-13 1.2343 0
0 1.2343 0
-7.05243e-14 1.2343 0
0 1.22289 0
4.1498e-14 1.22289 0
-7.05243e-14 1.2343 0
-3.85183e-13 1.2343 0
4.1498e-14 1.22289 0
2.03281e-13 1.22289 0
1.44155e-13 1.2463 0
-2.79727e-13 1.2463 0
-3.54669e-13 1.2343 0
2.18986e-13 1.2343 0
-2.79727e-13 1.2463 0
-4.83741e-14 1.2463 0
2.18986e-13 1.2343 0
1.16901e-13 1.2343 0
-3.85183e-13 1.2343 0
2.10406e-13 1.2343 0
2.03281e-13 1.22289 0
-2.16192e-13 1.22289 0
2.10406e-13 1.2343 0
4.70658e-14 1.2343 0
-2.16192e-13 1.22289 0
-1.2223e-13 1.22289 0
1.30363e-13 1.27218 0
2.64414e-13 1.27218 0
4.77672e-14 1.25892 0
-3.74474e-13 1.25892 0
2.64414e-13 1.27218 0
-3.39985e-13 1.27218 0
-3.74474e-13 1.25892 0
5.09003e-13 1.25892 0
1.06442e-13 1.25892 0
-1.63679e-13 1.25892 0
-1.11281e-13 1.2463 0
1.30902e-14 1.2463 0
-1.63679e-13 1.25892 0
4.45896e-13 1.25892 0
1.30902e-14 1.2463 0
-1.73005e-13 1.2463 0
-3.39985e-13 1.27218 0
1.32094e-13 1.27218 0
5.09003e-13 1.25892 0
-1.45321e-13 1.25892 0
1.32094e-13 1.27218 0
2.39666e-13 1.27218 0
-1.45321e-13 1.25892 0
-8.69881e-14 1.25892 0
4.45896e-13 1.25892 0
-2.0424e-13 1.25892 0
-1.73005e-13 1.2463 0
3.73186e-14 1.2463 0
-2.0424e-13 1.25892 0
-3.12191e-13 1.25892 0
3.73186e-14 1.2463 0
2.12558e-13 1.2463 0
-4.83741e-14 1.2463 0
-1.15391e-14 1.2463 0
1.16901e-13 1.2343 0
-1.0428e-13 1.2343 0
-1.15391e-14 1.2463 0
-2.35709e-13 1.2463 0
-1.0428e-13 1.2343 0
-1.16238e-13 1.2343 0
4.70658e-14 1.2343 0
-6.37175e-14 1.2343 0
-1.2223e-13 1.22289 0
-2.14387e-13 1.22289 0
-6.37175e-14 1.2343 0
-4.7415e-14 1.2343 0
-2.14387e-13 1.22289 0
-1.5943e-14 1.22289 0
-2.35709e-13 1.2463 0
-6.62364e-14 1.2463 0
-1.16238e-13 1.2343 0
-1.71637e-15 1.2343 0
-6.62364e-14 1.2463 0
4.38913e-13 1.2463 0
-1.71637e-15 1.2343 0
-2.56047e-13 1.2343 0
-4.7415e-14 1.2343 0
1.5879e-13 1.2343 0
-1.5943e-14 1.22289 0
1.18252e-13 1.22289 0
1.5879e-13 1.2343 0
-2.48217e-14 1.2343 0
1.18252e-13 1.22289 0
1.168e-13 1.22289 0
1.24253e-13 1.3324 0
-8.94354e-14 1.3324 0
2.73093e-14 1.3162 0
-6.81296e-14 1.3162 0
-8.94354e-14 1.3324 0
3.00159e-13 1.3324 0
-6.81296e-14 1.3162 0
-4.42379e-13 1.3162 0
5.28192e-14 1.3162 0
7.38412e-14 1.3162 0
-2.76274e-13 1.30078 0
1.05282e-13 1.30078 0
7.38412e-14 1.3162 0
-6.32981e-13 1.3162 0
1.05282e-13 1.30078 0
4.24781e-13 1.30078 0
3.00159e-13 1.3324 0
-2.73401e-13 1.3324 0
-4.42379e-13 1.3162 0
2.19415e-13 1.3162 0
-2.73401e-13 1.3324 0
-4.20725e-13 1.3324 0
2.19415e-13 1.3162 0
3.94059e-13 1.3162 0
-6.32981e-13 1.3162 0
3.26774e-13 1.3162 0
4.24781e-13 1.30078 0
-4.48612e-13 1.30078 0
3.26774e-13 1.3162 0
2.714e-13 1.3162 0
-4.48612e-13 1.30078 0
-2.67584e-13 1.30078 0
-6.07128e-14 1.30078 0
-4.78502e-14 1.30078 0
-2.41524e-13 1.28612 0
-2.08635e-14 1.28612 0
-4.78502e-14 1.30078 0
-6.87342e-14 1.30078 0
-2.08635e-14 1.28612 0
-6.71246e-14 1.28612 0
-4.1964e-13 1.28612 0
-2.43548e-13 1.28612 0
4.15575e-13 1.27218 0
3.32507e-13 1.27218 0
-2.43548e-13 1.28612 0
2.98555e-13 1.28612 0
3.32507e-13 1.27218 0
-2.47625e-13 1.27218 0
-6.87342e-14 1.30078 0
-2.10361e-13 1.30078 0
-6.71246e-14 1.28612 0
1.93228e-13 1.28612 0
-2.10361e-13 1.30078 0
3.85205e-14 1.30078 0
1.93228e-13 1.28612 0
1.03539e-14 1.28612 0
2.98555e-13 1.28612 0
9.78395e-15 1.28612 0
-2.47625e-13 1.27218 0
8.91006e-14 1.27218 0
9.78395e-15 1.28612 0
1.54457e-14 1.28612 0
8.91006e-14 1.27218 0
-1.37303e-13 1.27218 0
-4.20725e-13 1.3324 0
5.9623e-13 1.3324 0
3.94059e-13 1.3162 0
-6.06969e-13 1.3162 0
5.9623e-13 1.3324 0
-1.66655e-13 1.3324 0
-6.06969e-13 1.3162 0
2.32491e-13 1.3162 0
2.714e-13 1.3162 0
6.29846e-14 1.3162 0
-2.67584e-13 1.30078 0
7.52748e-14 1.30078 0
6.29846e-14 1.3162 0
-2.29522e-13 1.3162 0
7.52748e-14 1.30078 0
1.63025e-14 1.30078 0
-1.66655e-13 1.3324 0
-2.19286e-13 1.3324 0
2.32491e-13 1.3162 0
7.32497e-14 1.3162 0
-2.19286e-13 1.3324 0
4.20721e-13 1.3324 0
7.32497e-14 1.3162 0
-3.32336e-13 1.3162 0
-2.29522e-13 1.3162 0
-5.29543e-14 1.3162 0
1.63025e-14 1.30078 0
-4.27305e-14 1.30078 0
-5.29543e-14 1.3162 0
-2.2697e-13 1.3162 0
-4.27305e-14 1.30078 0
1.75733e-13 1.30078 0
3.85205e-14 1.30078 0
-1.31398e-13 1.30078 0
1.03539e-14 1.28612 0
3.32743e-13 1.28612 0
-1.31398e-13 1.30078 0
2.43742e-13 1.30078 0
3.32743e-13 1.28612 0
-4.98585e-13 1.28612 0
1.54457e-14 1.28612 0
-1.34541e-13 1.28612 0
-1.37303e-13 1.27218 0
-7.37298e-15 1.27218 0
-1.34541e-13 1.28612 0
5.66246e-14 1.28612 0
-7.37298e-15 1.27218 0
2.31395e-13 1.27218 0
2.43742e-13 1.30078 0
1.6992e-13 1.30078 0
-4.98585e-13 1.28612 0
-2.22372e-15 1.28612 0
1.6992e-13 1.30078 0
-1.18787e-13 1.30078 0
-2.22372e-15 1.28612 0
8.74815e-14 1.28612 0
5.66246e-14 1.28612 0
-6.46161e-14 1.28612 0
2.31395e-13 1.27218 0
-2.47974e-13 1.27218 0
-6.46161e-14 1.28612 0
1.45156e-13 1.28612 0
-2.47974e-13 1.27218 0
-1.80936e-14 1.27218 0
2.39666e-13 1.27218 0
3.04207e-14 1.27218 0
-8.69881e-14 1.25892 0
-4.33635e-14 1.25892 0
3.04207e-14 1.27218 0
-2.82516e-13 1.27218 0
-4.33635e-14 1.25892 0
5.41365e-14 1.25892 0
-3.12191e-13 1.25892 0
7.3838e-14 1.25892 0
2.12558e-13 1.2463 0
-1.78019e-13 1.2463 0
7.3838e-14 1.25892 0
1.86293e-13 1.25892 0
-1.78019e-13 1.2463 0
-2.71962e-13 1.2463 0
-2.82516e-13 1.27218 0
2.28194e-14 1.27218 0
5.41365e-14 1.25892 0
-7.38502e-14 1.25892 0
2.28194e-14 1.27218 0
-3.07408e-14 1.27218 0
-7.38502e-14 1.25892 0
1.00883e-13 1.25892 0
1.86293e-13 1.25892 0
1.25558e-13 1.25892 0
-2.71962e-13 1.2463 0