# vtk DataFile Version 3.0
#This file was generated by the deal.II library on 2018/10/15 at 18:09:20
ASCII
DATASET UNSTRUCTURED_GRID

POINTS 20480 double
0 0 0
0.19635 0 0
0 0.298365 0
0.19635 0.298365 0
0.19635 0 0
0.392699 0 0
0.19635 0.298365 0
0.392699 0.298365 0
0 0.298365 0
0.19635 0.298365 0
0 0.610167 0
0.19635 0.610167 0
0.19635 0.298365 0
0.392699 0.298365 0
0.19635 0.610167 0
0.392699 0.610167 0
0.392699 0 0
0.589049 0 0
0.392699 0.298365 0
0.589049 0.298365 0
0.589049 0 0
0.785398 0 0
0.589049 0.298365 0
0.785398 0.298365 0
0.392699 0.298365 0
0.589049 0.298365 0
0.392699 0.610167 0
0.589049 0.610167 0
0.589049 0.298365 0
0.785398 0.298365 0
0.589049 0.610167 0
0.785398 0.610167 0
0 0.610167 0
0.19635 0.610167 0
0 0.923056 0
0.19635 0.923056 0
0.19635 0.610167 0
0.392699 0.610167 0
0.19635 0.923056 0
0.392699 0.923056 0
0 0.923056 0
0.19635 0.923056 0
0 1.23626 0
0.19635 1.23626 0
0.19635 0.923056 0
0.392699 0.923056 0
0.19635 1.23626 0
0.392699 1.23626 0
0.392699 0.610167 0
0.589049 0.610167 0
0.392699 0.923056 0
0.589049 0.923056 0
0.589049 0.610167 0
0.785398 0.610167 0
0.589049 0.923056 0
0.785398 0.923056 0
0.392699 0.923056 0
0.589049 0.923056 0
0.392699 1.23626 0
0.589049 1.23626 0
0.589049 0.923056 0
0.785398 0.923056 0
0.589049 1.23626 0
0.785398 1.23626 0
0.785398 0 0
0.981748 0 0
0.785398 0.298365 0
0.981748 0.298365 0
0.981748 0 0
1.1781 0 0
0.981748 0.298365 0
1.1781 0.298365 0
0.785398 0.298365 0
0.981748 0.298365 0
0.785398 0.610167 0
0.981748 0.610167 0
0.981748 0.298365 0
1.1781 0.298365 0
0.981748 0.610167 0
1.1781 0.610167 0
1.1781 0 0
1.37445 0 0
1.1781 0.298365 0
1.37445 0.298365 0
1.37445 0 0
1.5708 0 0
1.37445 0.298365 0
1.5708 0.298365 0
1.1781 0.298365 0
1.37445 0.298365 0
1.1781 0.610167 0
1.37445 0.610167 0
1.37445 0.298365 0
1.5708 0.298365 0
1.37445 0.610167 0
1.5708 0.610167 0
0.785398 0.610167 0
0.981748 0.610167 0
0.785398 0.923056 0
0.981748 0.923056 0
0.981748 0.610167 0
1.1781 0.610167 0
0.981748 0.923056 0
1.1781 0.923056 0
0.785398 0.923056 0
0.981748 0.923056 0
0.785398 1.23626 0
0.981748 1.23626 0
0.981748 0.923056 0
1.1781 0.923056 0
0.981748 1.23626 0
1.1781 1.23626 0
1.1781 0.610167 0
1.37445 0.610167 0
1.1781 0.923056 0
1.37445 0.923056 0
1.37445 0.610167 0
1.5708 0.610167 0
1.37445 0.923056 0
1.5708 0.923056 0
1.1781 0.923056 0
1.37445 0.923056 0
1.1781 1.23626 0
1.37445 1.23626 0
1.37445 0.923056 0
1.5708 0.923056 0
1.37445 1.23626 0
1.5708 1.23626 0
0 1.23626 0
0.19635 1.23626 0
0 1.54942 0
0.19635 1.54942 0
0.19635 1.23626 0
0.392699 1.23626 0
0.19635 1.54942 0
0.392699 1.54942 0
0 1.54942 0
0.19635 1.54942 0
0 1.86257 0
0.19635 1.86257 0
0.19635 1.54942 0
0.392699 1.54942 0
0.19635 1.86257 0
0.392699 1.86257 0
0.392699 1.23626 0
0.589049 1.23626 0
0.392699 1.54942 0
0.589049 1.54942 0
0.589049 1.23626 0
0.785398 1.23626 0
0.589049 1.54942 0
0.785398 1.54942 0
0.392699 1.54942 0
0.589049 1.54942 0
0.392699 1.86257 0
0.589049 1.86257 0
0.589049 1.54942 0
0.785398 1.54942 0
0.589049 1.86257 0
0.785398 1.86257 0
0 1.86257 0
0.19635 1.86257 0
0 2.1757 0
0.19635 2.1757 0
0.19635 1.86257 0
0.392699 1.86257 0
0.19635 2.1757 0
0.392699 2.1757 0
0 2.1757 0
0.19635 2.1757 0
0 2.48881 0
0.19635 2.48881 0
0.19635 2.1757 0
0.392699 2.1757 0
0.19635 2.48881 0
0.392699 2.48881 0
0.392699 1.86257 0
0.589049 1.86257 0
0.392699 2.1757 0
0.589049 2.1757 0
0.589049 1.86257 0
0.785398 1.86257 0
0.589049 2.1757 0
0.785398 2.1757 0
0.392699 2.1757 0
0.589049 2.1757 0
0.392699 2.48881 0
0.589049 2.48881 0
0.589049 2.1757 0
0.785398 2.1757 0
0.589049 2.48881 0
0.785398 2.48881 0
0.785398 1.23626 0
0.981748 1.23626 0
0.785398 1.54942 0
0.981748 1.54942 0
0.981748 1.23626 0
1.1781 1.23626 0
0.981748 1.54942 0
1.1781 1.54942 0
0.785398 1.54942 0
0.981748 1.54942 0
0.785398 1.86257 0
0.981748 1.86257 0
0.981748 1.54942 0
1.1781 1.54942 0
0.981748 1.86257 0
1.1781 1.86257 0
1.1781 1.23626 0
1.37445 1.23626 0
1.1781 1.54942 0
1.37445 1.54942 0
1.37445 1.23626 0
1.5708 1.23626 0
1.37445 1.54942 0
1.5708 1.54942 0
1.1781 1.54942 0
1.37445 1.54942 0
1.1781 1.86257 0
1.37445 1.86257 0
1.37445 1.54942 0
1.5708 1.54942 0
1.37445 1.86257 0
1.5708 1.86257 0
0.785398 1.86257 0
0.981748 1.86257 0
0.785398 2.1757 0
0.981748 2.1757 0
0.981748 1.86257 0
1.1781 1.86257 0
0.981748 2.1757 0
1.1781 2.1757 0
0.785398 2.1757 0
0.981748 2.1757 0
0.785398 2.48881 0
0.981748 2.48881 0
0.981748 2.1757 0
1.1781 2.1757 0
0.981748 2.48881 0
1.1781 2.48881 0
1.1781 1.86257 0
1.37445 1.86257 0
1.1781 2.1757 0
1.37445 2.1757 0
1.37445 1.86257 0
1.5708 1.86257 0
1.37445 2.1757 0
1.5708 2.1757 0
1.1781 2.1757 0
1.37445 2.1757 0
1.1781 2.48881 0
1.37445 2.48881 0
1.37445 2.1757 0
1.5708 2.1757 0
1.37445 2.48881 0
1.5708 2.48881 0
1.5708 0 0
1.76715 0 0
1.5708 0.298365 0
1.76715 0.298365 0
1.76715 0 0
1.9635 0 0
1.76715 0.298365 0
1.9635 0.298365 0
1.5708 0.298365 0
1.76715 0.298365 0
1.5708 0.610167 0
1.76715 0.610167 0
1.76715 0.298365 0
1.9635 0.298365 0
1.76715 0.610167 0
1.9635 0.610167 0
1.9635 0 0
2.15984 0 0
1.9635 0.298365 0
2.15984 0.298365 0
2.15984 0 0
2.35619 0 0
2.15984 0.298365 0
2.35619 0.298365 0
1.9635 0.298365 0
2.15984 0.298365 0
1.9635 0.610167 0
2.15984 0.610167 0
2.15984 0.298365 0
2.35619 0.298365 0
2.15984 0.610167 0
2.35619 0.610167 0
1.5708 0.610167 0
1.76715 0.610167 0
1.5708 0.923056 0
1.76715 0.923056 0
1.76715 0.610167 0
1.9635 0.610167 0
1.76715 0.923056 0
1.9635 0.923056 0
1.5708 0.923056 0
1.76715 0.923056 0
1.5708 1.23626 0
1.76715 1.23626 0
1.76715 0.923056 0
1.9635 0.923056 0
1.76715 1.23626 0
1.9635 1.23626 0
1.9635 0.610167 0
2.15984 0.610167 0
1.9635 0.923056 0
2.15984 0.923056 0
2.15984 0.610167 0
2.35619 0.610167 0
2.15984 0.923056 0
2.35619 0.923056 0
1.9635 0.923056 0
2.15984 0.923056 0
1.9635 1.23626 0
2.15984 1.23626 0
2.15984 0.923056 0
2.35619 0.923056 0
2.15984 1.23626 0
2.35619 1.23626 0
2.35619 0 0
2.55254 0 0
2.35619 0.298365 0
2.55254 0.298365 0
2.55254 0 0
2.74889 0 0
2.55254 0.298365 0
2.74889 0.298365 0
2.35619 0.298365 0
2.55254 0.298365 0
2.35619 0.610167 0
2.55254 0.610167 0
2.55254 0.298365 0
2.74889 0.298365 0
2.55254 0.610167 0
2.74889 0.610167 0
2.74889 0 0
2.94524 0 0
2.74889 0.298365 0
2.94524 0.298365 0
2.94524 0 0
3.14159 0 0
2.94524 0.298365 0
3.14159 0.298365 0
2.74889 0.298365 0
2.94524 0.298365 0
2.74889 0.610167 0
2.94524 0.610167 0
2.94524 0.298365 0
3.14159 0.298365 0
2.94524 0.610167 0
3.14159 0.610167 0
2.35619 0.610167 0
2.55254 0.610167 0
2.35619 0.923056 0
2.55254 0.923056 0
2.55254 0.610167 0
2.74889 0.610167 0
2.55254 0.923056 0
2.74889 0.923056 0
2.35619 0.923056 0
2.55254 0.923056 0
2.35619 1.23626 0
2.55254 1.23626 0
2.55254 0.923056 0
2.74889 0.923056 0
2.55254 1.23626 0
2.74889 1.23626 0
2.74889 0.610167 0
2.94524 0.610167 0
2.74889 0.923056 0
2.94524 0.923056 0
2.94524 0.610167 0
3.14159 0.610167 0
2.94524 0.923056 0
3.14159 0.923056 0
2.74889 0.923056 0
2.94524 0.923056 0
2.74889 1.23626 0
2.94524 1.23626 0
2.94524 0.923056 0
3.14159 0.923056 0
2.94524 1.23626 0
3.14159 1.23626 0
1.5708 1.23626 0
1.76715 1.23626 0
1.5708 1.54942 0
1.76715 1.54942 0
1.76715 1.23626 0
1.9635 1.23626 0
1.76715 1.54942 0
1.9635 1.54942 0
1.5708 1.54942 0
1.76715 1.54942 0
1.5708 1.86257 0
1.76715 1.86257 0
1.76715 1.54942 0
1.9635 1.54942 0
1.76715 1.86257 0
1.9635 1.86257 0
1.9635 1.23626 0
2.15984 1.23626 0
1.9635 1.54942 0
2.15984 1.54942 0
2.15984 1.23626 0
2.35619 1.23626 0
2.15984 1.54942 0
2.35619 1.54942 0
1.9635 1.54942 0
2.15984 1.54942 0
1.9635 1.86257 0
2.15984 1.86257 0
2.15984 1.54942 0
2.35619 1.54942 0
2.15984 1.86257 0
2.35619 1.86257 0
1.5708 1.86257 0
1.76715 1.86257 0
1.5708 2.1757 0
1.76715 2.1757 0
1.76715 1.86257 0
1.9635 1.86257 0
1.76715 2.1757 0
1.9635 2.1757 0
1.5708 2.1757 0
1.76715 2.1757 0
1.5708 2.48881 0
1.76715 2.48881 0
1.76715 2.1757 0
1.9635 2.1757 0
1.76715 2.48881 0
1.9635 2.48881 0
1.9635 1.86257 0
2.15984 1.86257 0
1.9635 2.1757 0
2.15984 2.1757 0
2.15984 1.86257 0
2.35619 1.86257 0
2.15984 2.1757 0
2.35619 2.1757 0
1.9635 2.1757 0
2.15984 2.1757 0
1.9635 2.48881 0
2.15984 2.48881 0
2.15984 2.1757 0
2.35619 2.1757 0
2.15984 2.48881 0
2.35619 2.48881 0
2.35619 1.23626 0
2.55254 1.23626 0
2.35619 1.54942 0
2.55254 1.54942 0
2.55254 1.23626 0
2.74889 1.23626 0
2.55254 1.54942 0
2.74889 1.54942 0
2.35619 1.54942 0
2.55254 1.54942 0
2.35619 1.86257 0
2.55254 1.86257 0
2.55254 1.54942 0
2.74889 1.54942 0
2.55254 1.86257 0
2.74889 1.86257 0
2.74889 1.23626 0
2.94524 1.23626 0
2.74889 1.54942 0
2.94524 1.54942 0
2.94524 1.23626 0
3.14159 1.23626 0
2.94524 1.54942 0
3.14159 1.54942 0
2.74889 1.54942 0
2.94524 1.54942 0
2.74889 1.86257 0
2.94524 1.86257 0
2.94524 1.54942 0
3.14159 1.54942 0
2.94524 1.86257 0
3.14159 1.86257 0
2.35619 1.86257 0
2.55254 1.86257 0
2.35619 2.1757 0
2.55254 2.1757 0
2.55254 1.86257 0
2.74889 1.86257 0
2.55254 2.1757 0
2.74889 2.1757 0
2.35619 2.1757 0
2.55254 2.1757 0
2.35619 2.48881 0
2.55254 2.48881 0
2.55254 2.1757 0
2.74889 2.1757 0
2.55254 2.48881 0
2.74889 2.48881 0
2.74889 1.86257 0
2.94524 1.86257 0
2.74889 2.1757 0
2.94524 2.1757 0
2.94524 1.86257 0
3.14159 1.86257 0
2.94524 2.1757 0
3.14159 2.1757 0
2.74889 2.1757 0
2.94524 2.1757 0
2.74889 2.48881 0
2.94524 2.48881 0
2.94524 2.1757 0
3.14159 2.1757 0
2.94524 2.48881 0
3.14159 2.48881 0
0 2.48881 0
0.19635 2.48881 0
0 2.8019 0
0.19635 2.8019 0
0.19635 2.48881 0
0.392699 2.48881 0
0.19635 2.8019 0
0.392699 2.8019 0
0 2.8019 0
0.19635 2.8019 0
0 3.11497 0
0.19635 3.11497 0
0.19635 2.8019 0
0.392699 2.8019 0
0.19635 3.11497 0
0.392699 3.11497 0
0.392699 2.48881 0
0.589049 2.48881 0
0.392699 2.8019 0
0.589049 2.8019 0
0.589049 2.48881 0
0.785398 2.48881 0
0.589049 2.8019 0
0.785398 2.8019 0
0.392699 2.8019 0
0.589049 2.8019 0
0.392699 3.11497 0
0.589049 3.11497 0
0.589049 2.8019 0
0.785398 2.8019 0
0.589049 3.11497 0
0.785398 3.11497 0
0 3.11497 0
0.19635 3.11497 0
0 3.42802 0
0.19635 3.42802 0
0.19635 3.11497 0
0.392699 3.11497 0
0.19635 3.42802 0
0.392699 3.42802 0
0 3.42802 0
0.19635 3.42802 0
0 3.74105 0
0.19635 3.74105 0
[...]
POINT_DATA 20480
VECTORS uf double
0 1 0
-2.05083e-13 1 0
0 1.51473 0
2.9038e-13 1.51473 0
-2.05083e-13 1 0
-5.79208e-14 1 0
2.9038e-13 1.51473 0
1.12668e-13 1.51473 0
0 1.51473 0
1.8029e-13 1.51473 0
0 1.48074 0
2.07328e-14 1.48074 0
1.8029e-13 1.51473 0
-5.87146e-14 1.51473 0
2.07328e-14 1.48074 0
1.32161e-13 1.48074 0
-5.79208e-14 1 0
1.57737e-13 1 0
1.12668e-13 1.51473 0
-2.92313e-13 1.51473 0
1.57737e-13 1 0
-1.84812e-13 1 0
-2.92313e-13 1.51473 0
3.4556e-13 1.51473 0
-5.87146e-14 1.51473 0
-6.05753e-13 1.51473 0
1.32161e-13 1.48074 0
6.32318e-13 1.48074 0
-6.05753e-13 1.51473 0
5.52678e-14 1.51473 0
6.32318e-13 1.48074 0
1.44643e-13 1.48074 0
0 1.48074 0
2.78297e-13 1.48074 0
0 1.46568 0
-2.07445e-13 1.46568 0
2.78297e-13 1.48074 0
1.50734e-13 1.48074 0
-2.07445e-13 1.46568 0
-1.99454e-13 1.46568 0
0 1.46568 0
-1.33807e-13 1.46568 0
0 1.44018 0
1.51556e-15 1.44018 0
-1.33807e-13 1.46568 0
-8.64986e-14 1.46568 0
1.51556e-15 1.44018 0
2.53416e-13 1.44018 0
1.50734e-13 1.48074 0
5.30861e-13 1.48074 0
-1.99454e-13 1.46568 0
-2.76465e-13 1.46568 0
5.30861e-13 1.48074 0
1.23474e-13 1.48074 0
-2.76465e-13 1.46568 0
1.7333e-13 1.46568 0
-8.64986e-14 1.46568 0
2.37452e-13 1.46568 0
2.53416e-13 1.44018 0
-5.04273e-13 1.44018 0
2.37452e-13 1.46568 0
1.90596e-13 1.46568 0
-5.04273e-13 1.44018 0
2.45445e-13 1.44018 0
-1.84812e-13 1 0
-2.47087e-13 1 0
3.4556e-13 1.51473 0
3.36763e-13 1.51473 0
-2.47087e-13 1 0
9.40396e-14 1 0
3.36763e-13 1.51473 0
-1.00503e-13 1.51473 0
5.52678e-14 1.51473 0
6.14539e-13 1.51473 0
1.44643e-13 1.48074 0
-4.47315e-13 1.48074 0
6.14539e-13 1.51473 0
3.64811e-13 1.51473 0
-4.47315e-13 1.48074 0
-5.82028e-13 1.48074 0
9.40396e-14 1 0
7.21388e-13 1 0
-1.00503e-13 1.51473 0
-1.24627e-12 1.51473 0
7.21388e-13 1 0
4.16396e-13 1 0
-1.24627e-12 1.51473 0
-6.57483e-13 1.51473 0
3.64811e-13 1.51473 0
-9.34281e-13 1.51473 0
-5.82028e-13 1.48074 0
3.41254e-13 1.48074 0
-9.34281e-13 1.51473 0
-5.56796e-13 1.51473 0
3.41254e-13 1.48074 0
2.48139e-13 1.48074 0
1.23474e-13 1.48074 0
-4.23563e-13 1.48074 0
1.7333e-13 1.46568 0
2.44291e-13 1.46568 0
-4.23563e-13 1.48074 0
-3.87101e-13 1.48074 0
2.44291e-13 1.46568 0
1.59012e-13 1.46568 0
1.90596e-13 1.46568 0
5.58464e-14 1.46568 0
2.45445e-13 1.44018 0
-2.04088e-13 1.44018 0
5.58464e-14 1.46568 0
-2.38286e-13 1.46568 0
-2.04088e-13 1.44018 0
1.86477e-13 1.44018 0
-3.87101e-13 1.48074 0
-2.15278e-13 1.48074 0
1.59012e-13 1.46568 0
-4.20751e-14 1.46568 0
-2.15278e-13 1.48074 0
1.16563e-13 1.48074 0
-4.20751e-14 1.46568 0
-3.361e-13 1.46568 0
-2.38286e-13 1.46568 0
-8.09185e-14 1.46568 0
1.86477e-13 1.44018 0
7.47069e-15 1.44018 0
-8.09185e-14 1.46568 0
6.85226e-14 1.46568 0
7.47069e-15 1.44018 0
-2.79875e-13 1.44018 0
0 1.44018 0
-6.14716e-14 1.44018 0
0 1.41894 0
2.04643e-13 1.41894 0
-6.14716e-14 1.44018 0
4.53199e-13 1.44018 0
2.04643e-13 1.41894 0
-5.72705e-13 1.41894 0
0 1.41894 0
2.94863e-13 1.41894 0
0 1.39787 0
-2.95518e-13 1.39787 0
2.94863e-13 1.41894 0
-5.18356e-13 1.41894 0
-2.95518e-13 1.39787 0
2.12926e-13 1.39787 0
4.53199e-13 1.44018 0
-4.23617e-13 1.44018 0
-5.72705e-13 1.41894 0
3.95348e-13 1.41894 0
-4.23617e-13 1.44018 0
2.08317e-13 1.44018 0
3.95348e-13 1.41894 0
4.96984e-14 1.41894 0
-5.18356e-13 1.41894 0
2.21082e-13 1.41894 0
2.12926e-13 1.39787 0
-9.70863e-14 1.39787 0
2.21082e-13 1.41894 0
4.84401e-14 1.41894 0
-9.70863e-14 1.39787 0
1.58594e-13 1.39787 0
0 1.39787 0
-1.36588e-13 1.39787 0
0 1.37816 0
-6.1867e-14 1.37816 0
-1.36588e-13 1.39787 0
7.61205e-14 1.39787 0
-6.1867e-14 1.37816 0
1.75789e-14 1.37816 0
0 1.37816 0
-2.34434e-13 1.37816 0
0 1.3594 0
9.00096e-14 1.3594 0
-2.34434e-13 1.37816 0
-9.30218e-14 1.37816 0
9.00096e-14 1.3594 0
1.20167e-13 1.3594 0
7.61205e-14 1.39787 0
3.31565e-14 1.39787 0
1.75789e-14 1.37816 0
-1.60145e-14 1.37816 0
3.31565e-14 1.39787 0
3.51069e-13 1.39787 0
-1.60145e-14 1.37816 0
-2.20637e-13 1.37816 0
-9.30218e-14 1.37816 0
1.45103e-13 1.37816 0
1.20167e-13 1.3594 0
-4.0623e-13 1.3594 0
1.45103e-13 1.37816 0
-2.10966e-13 1.37816 0
-4.0623e-13 1.3594 0
2.20371e-13 1.3594 0
2.08317e-13 1.44018 0
-2.46162e-14 1.44018 0
4.96984e-14 1.41894 0
-9.19373e-14 1.41894 0
-2.46162e-14 1.44018 0
5.89066e-14 1.44018 0
-9.19373e-14 1.41894 0
-1.06561e-13 1.41894 0
4.84401e-14 1.41894 0
-2.59323e-13 1.41894 0
1.58594e-13 1.39787 0
2.18007e-13 1.39787 0
-2.59323e-13 1.41894 0
7.01257e-14 1.41894 0
2.18007e-13 1.39787 0
-2.55051e-13 1.39787 0
5.89066e-14 1.44018 0
-3.78921e-13 1.44018 0
-1.06561e-13 1.41894 0
1.61384e-13 1.41894 0
-3.78921e-13 1.44018 0
-4.50332e-13 1.44018 0
1.61384e-13 1.41894 0
3.59727e-13 1.41894 0
7.01257e-14 1.41894 0
1.79559e-14 1.41894 0
-2.55051e-13 1.39787 0
1.75393e-14 1.39787 0
1.79559e-14 1.41894 0
2.72477e-13 1.41894 0
1.75393e-14 1.39787 0
-3.55596e-13 1.39787 0
3.51069e-13 1.39787 0
1.30178e-13 1.39787 0
-2.20637e-13 1.37816 0
-1.76579e-13 1.37816 0
1.30178e-13 1.39787 0
-2.86712e-13 1.39787 0
-1.76579e-13 1.37816 0
2.06282e-14 1.37816 0
-2.10966e-13 1.37816 0
-1.67292e-13 1.37816 0
2.20371e-13 1.3594 0
3.32691e-13 1.3594 0
-1.67292e-13 1.37816 0
-6.57037e-14 1.37816 0
3.32691e-13 1.3594 0
-1.52383e-13 1.3594 0
-2.86712e-13 1.39787 0
-5.03321e-13 1.39787 0
2.06282e-14 1.37816 0
5.24708e-13 1.37816 0
-5.03321e-13 1.39787 0
1.2315e-13 1.39787 0
5.24708e-13 1.37816 0
-1.53618e-14 1.37816 0
-6.57037e-14 1.37816 0
2.99017e-13 1.37816 0
-1.52383e-13 1.3594 0
-1.91938e-13 1.3594 0
2.99017e-13 1.37816 0
3.28134e-13 1.37816 0
-1.91938e-13 1.3594 0
-1.10739e-13 1.3594 0
4.16396e-13 1 0
-3.70106e-13 1 0
-6.57483e-13 1.51473 0
7.30595e-13 1.51473 0
-3.70106e-13 1 0
-2.1641e-13 1 0
7.30595e-13 1.51473 0
2.72714e-13 1.51473 0
-5.56796e-13 1.51473 0
7.82918e-13 1.51473 0
2.48139e-13 1.48074 0
-4.89114e-13 1.48074 0
7.82918e-13 1.51473 0
3.57712e-13 1.51473 0
-4.89114e-13 1.48074 0
-3.54347e-13 1.48074 0
-2.1641e-13 1 0
-2.16711e-13 1 0
2.72714e-13 1.51473 0
1.47565e-13 1.51473 0
-2.16711e-13 1 0
2.77582e-13 1 0
1.47565e-13 1.51473 0
8.97199e-14 1.51473 0
3.57712e-13 1.51473 0
-3.34782e-13 1.51473 0
-3.54347e-13 1.48074 0
4.05872e-13 1.48074 0
-3.34782e-13 1.51473 0
5.24907e-13 1.51473 0
4.05872e-13 1.48074 0
-4.03504e-13 1.48074 0
1.16563e-13 1.48074 0
-1.64639e-13 1.48074 0
-3.361e-13 1.46568 0
1.08143e-13 1.46568 0
-1.64639e-13 1.48074 0
9.08105e-14 1.48074 0
1.08143e-13 1.46568 0
1.28457e-13 1.46568 0
6.85226e-14 1.46568 0
-1.68302e-13 1.46568 0
-2.79875e-13 1.44018 0
3.01306e-13 1.44018 0
-1.68302e-13 1.46568 0
-1.17132e-14 1.46568 0
3.01306e-13 1.44018 0
-2.92161e-13 1.44018 0
9.08105e-14 1.48074 0
2.91545e-13 1.48074 0
1.28457e-13 1.46568 0
-2.10773e-13 1.46568 0
2.91545e-13 1.48074 0
-5.33716e-13 1.48074 0
-2.10773e-13 1.46568 0
3.63501e-13 1.46568 0
-1.17132e-14 1.46568 0
-4.08692e-13 1.46568 0
-2.92161e-13 1.44018 0
5.95237e-13 1.44018 0
-4.08692e-13 1.46568 0
2.38854e-15 1.46568 0
5.95237e-13 1.44018 0
1.15088e-13 1.44018 0
2.77582e-13 1 0
1.98212e-13 1 0
8.97199e-14 1.51473 0
-2.62359e-13 1.51473 0
1.98212e-13 1 0
-8.56518e-14 1 0
-2.62359e-13 1.51473 0
7.79478e-17 1.51473 0
5.24907e-13 1.51473 0
-2.74694e-13 1.51473 0
-4.03504e-13 1.48074 0
2.30516e-13 1.48074 0
-2.74694e-13 1.51473 0
-2.91984e-13 1.51473 0
2.30516e-13 1.48074 0
2.32019e-13 1.48074 0
-8.56518e-14 1 0
-1.76209e-13 1 0
7.79478e-17 1.51473 0
2.3709e-13 1.51473 0
-1.76209e-13 1 0
1.3086e-13 1 0
2.3709e-13 1.51473 0
-7.69915e-14 1.51473 0
-2.91984e-13 1.51473 0
2.01612e-13 1.51473 0
2.32019e-13 1.48074 0
-9.08284e-14 1.48074 0
2.01612e-13 1.51473 0
4.00483e-13 1.51473 0
-9.08284e-14 1.48074 0
-8.09109e-14 1.48074 0
-5.33716e-13 1.48074 0
-1.34798e-14 1.48074 0
3.63501e-13 1.46568 0
4.7411e-14 1.46568 0
-1.34798e-14 1.48074 0
-2.31908e-13 1.48074 0
4.7411e-14 1.46568 0
2.77866e-13 1.46568 0
2.38854e-15 1.46568 0
6.62757e-13 1.46568 0
1.15088e-13 1.44018 0
-5.75381e-13 1.44018 0
6.62757e-13 1.46568 0
1.19986e-14 1.46568 0
-5.75381e-13 1.44018 0
3.05355e-13 1.44018 0
-2.31908e-13 1.48074 0
7.03293e-15 1.48074 0
2.77866e-13 1.46568 0
-3.82714e-14 1.46568 0
7.03293e-15 1.48074 0
1.9706e-13 1.48074 0
-3.82714e-14 1.46568 0
-1.3939e-13 1.46568 0
1.19986e-14 1.46568 0
-2.39362e-13 1.46568 0
3.05355e-13 1.44018 0
-2.8428e-13 1.44018 0
-2.39362e-13 1.46568 0
2.692e-13 1.46568 0
-2.8428e-13 1.44018 0
5.08615e-14 1.44018 0
-4.50332e-13 1.44018 0
6.95893e-13 1.44018 0
3.59727e-13 1.41894 0
-6.87006e-13 1.41894 0
6.95893e-13 1.44018 0
-1.53046e-13 1.44018 0
-6.87006e-13 1.41894 0
1.43402e-13 1.41894 0
2.72477e-13 1.41894 0
-1.31974e-13 1.41894 0
-3.55596e-13 1.39787 0
3.44472e-13 1.39787 0
-1.31974e-13 1.41894 0
-2.39321e-13 1.41894 0
3.44472e-13 1.39787 0
1.93222e-13 1.39787 0
-1.53046e-13 1.44018 0
-1.00832e-13 1.44018 0
1.43402e-13 1.41894 0
-1.62376e-13 1.41894 0
-1.00832e-13 1.44018 0
-4.51237e-14 1.44018 0
-1.62376e-13 1.41894 0
-7.99144e-14 1.41894 0
-2.39321e-13 1.41894 0
8.83683e-14 1.41894 0
1.93222e-13 1.39787 0
-1.40794e-13 1.39787 0
8.83683e-14 1.41894 0
-2.57849e-13 1.41894 0
-1.40794e-13 1.39787 0
4.75326e-14 1.39787 0
1.2315e-13 1.39787 0
2.19205e-13 1.39787 0
-1.53618e-14 1.37816 0
-1.63182e-13 1.37816 0
2.19205e-13 1.39787 0
1.22151e-13 1.39787 0
-1.63182e-13 1.37816 0
-1.16033e-13 1.37816 0
3.28134e-13 1.37816 0
-1.55623e-13 1.37816 0
-1.10739e-13 1.3594 0
6.81671e-14 1.3594 0
-1.55623e-13 1.37816 0
1.25161e-13 1.37816 0
6.81671e-14 1.3594 0
5.05747e-16 1.3594 0
1.22151e-13 1.39787 0
-1.73644e-13 1.39787 0
-1.16033e-13 1.37816 0
3.0693e-13 1.37816 0
-1.73644e-13 1.39787 0
3.15097e-13 1.39787 0
3.0693e-13 1.37816 0
-2.51845e-13 1.37816 0
1.25161e-13 1.37816 0
4.80665e-14 1.37816 0
5.05747e-16 1.3594 0
-1.10023e-13 1.3594 0
4.80665e-14 1.37816 0
3.9053e-13 1.37816 0
-1.10023e-13 1.3594 0
-3.85134e-13 1.3594 0
-4.51237e-14 1.44018 0
3.14285e-13 1.44018 0
-7.99144e-14 1.41894 0
1.58392e-13 1.41894 0
3.14285e-13 1.44018 0
-3.44662e-13 1.44018 0
1.58392e-13 1.41894 0
2.18484e-13 1.41894 0
-2.57849e-13 1.41894 0
-1.86626e-14 1.41894 0
4.75326e-14 1.39787 0
2.05396e-13 1.39787 0
-1.86626e-14 1.41894 0
1.21141e-13 1.41894 0
2.05396e-13 1.39787 0
-1.94986e-13 1.39787 0
-3.44662e-13 1.44018 0
5.00197e-13 1.44018 0
2.18484e-13 1.41894 0
-5.26901e-13 1.41894 0
5.00197e-13 1.44018 0
-6.21245e-13 1.44018 0
-5.26901e-13 1.41894 0
5.36659e-13 1.41894 0
1.21141e-13 1.41894 0
-2.53583e-13 1.41894 0
-1.94986e-13 1.39787 0
4.186e-13 1.39787 0
-2.53583e-13 1.41894 0
2.31465e-13 1.41894 0
4.186e-13 1.39787 0
-1.66e-13 1.39787 0
3.15097e-13 1.39787 0
-3.91546e-13 1.39787 0
-2.51845e-13 1.37816 0
5.11824e-13 1.37816 0
-3.91546e-13 1.39787 0
-1.24562e-13 1.39787 0
5.11824e-13 1.37816 0
-6.72429e-14 1.37816 0
3.9053e-13 1.37816 0
-7.62147e-13 1.37816 0
-3.85134e-13 1.3594 0
5.92072e-13 1.3594 0
-7.62147e-13 1.37816 0
1.46233e-13 1.37816 0
5.92072e-13 1.3594 0
5.03174e-14 1.3594 0
-1.24562e-13 1.39787 0
4.7614e-13 1.39787 0
-6.72429e-14 1.37816 0
-5.01429e-13 1.37816 0
4.7614e-13 1.39787 0
-1.07656e-14 1.39787 0
-5.01429e-13 1.37816 0
8.23285e-14 1.37816 0
1.46233e-13 1.37816 0
5.30905e-14 1.37816 0
5.03174e-14 1.3594 0
-3.89318e-14 1.3594 0
5.30905e-14 1.37816 0
1.49605e-13 1.37816 0
-3.89318e-14 1.3594 0
1.24736e-13 1.3594 0
0 1.3594 0
2.15279e-14 1.3594 0
0 1.34164 0
6.95535e-15 1.34164 0
2.15279e-14 1.3594 0
3.28725e-13 1.3594 0
6.95535e-15 1.34164 0
-3.66696e-13 1.34164 0
0 1.34164 0
2.11015e-13 1.34164 0
0 1.32479 0
-2.76489e-13 1.32479 0
2.11015e-13 1.34164 0
-4.13218e-13 1.34164 0
-2.76489e-13 1.32479 0
2.57038e-13 1.32479 0
3.28725e-13 1.3594 0
-5.70596e-13 1.3594 0
-3.66696e-13 1.34164 0
6.70625e-13 1.34164 0
-5.70596e-13 1.3594 0
1.5602e-13 1.3594 0
6.70625e-13 1.34164 0
-1.15632e-15 1.34164 0
-4.13218e-13 1.34164 0
5.92087e-13 1.34164 0
2.57038e-13 1.32479 0
-3.53331e-13 1.32479 0
5.92087e-13 1.34164 0
1.34796e-13 1.34164 0
-3.53331e-13 1.32479 0
-2.56751e-14 1.32479 0
0 1.32479 0
-2.23941e-13 1.32479 0
0 1.30882 0
-1.14584e-13 1.30882 0
-2.23941e-13 1.32479 0
7.44355e-15 1.32479 0
-1.14584e-13 1.30882 0
1.54022e-13 1.30882 0
0 1.30882 0
4.37721e-14 1.30882 0
0 1.29367 0
-4.15146e-14 1.29367 0
4.37721e-14 1.30882 0
2.83669e-13 1.30882 0
-4.15146e-14 1.29367 0
-2.17125e-13 1.29367 0
7.44355e-15 1.32479 0
-2.61946e-13 1.32479 0
1.54022e-13 1.30882 0
2.11569e-13 1.30882 0
-2.61946e-13 1.32479 0
-5.40659e-14 1.32479 0
2.11569e-13 1.30882 0
-5.18764e-14 1.30882 0
2.83669e-13 1.30882 0
6.5349e-14 1.30882 0
-2.17125e-13 1.29367 0
1.39017e-14 1.29367 0
6.5349e-14 1.30882 0
-3.39623e-14 1.30882 0
1.39017e-14 1.29367 0
8.85122e-14 1.29367 0
1.5602e-13 1.3594 0
4.26477e-13 1.3594 0
-1.15632e-15 1.34164 0
-3.16621e-13 1.34164 0
4.26477e-13 1.3594 0
-4.06903e-13 1.3594 0
-3.16621e-13 1.34164 0
5.25051e-13 1.34164 0
1.34796e-13 1.34164 0
-3.22688e-13 1.34164 0
-2.56751e-14 1.32479 0
3.44356e-13 1.32479 0
-3.22688e-13 1.34164 0
7.16596e-14 1.34164 0
3.44356e-13 1.32479 0
2.25456e-14 1.32479 0
-4.06903e-13 1.3594 0
-2.06196e-13 1.3594 0
5.25051e-13 1.34164 0
-7.31466e-14 1.34164 0
-2.06196e-13 1.3594 0
1.35034e-14 1.3594 0
-7.31466e-14 1.34164 0
-4.91118e-14 1.34164 0
7.16596e-14 1.34164 0
1.1327e-13 1.34164 0
2.25456e-14 1.32479 0
-3.09786e-14 1.32479 0
1.1327e-13 1.34164 0
8.61814e-14 1.34164 0
-3.09786e-14 1.32479 0
-1.655e-13 1.32479 0
-5.40659e-14 1.32479 0
3.90149e-13 1.32479 0
-5.18764e-14 1.30882 0
-3.85505e-13 1.30882 0
3.90149e-13 1.32479 0
1.69407e-14 1.32479 0
-3.85505e-13 1.30882 0
1.42961e-14 1.30882 0
-3.39623e-14 1.30882 0
-4.08845e-13 1.30882 0
8.85122e-14 1.29367 0
3.58977e-13 1.29367 0
-4.08845e-13 1.30882 0
1.39469e-13 1.30882 0
3.58977e-13 1.29367 0
-1.58414e-13 1.29367 0
1.69407e-14 1.32479 0
5.6695e-14 1.32479 0
1.42961e-14 1.30882 0
4.13562e-14 1.30882 0
5.6695e-14 1.32479 0
-1.17875e-14 1.32479 0
4.13562e-14 1.30882 0
-2.82933e-13 1.30882 0
1.39469e-13 1.30882 0
2.82796e-13 1.30882 0
-1.58414e-13 1.29367 0
-3.74762e-13 1.29367 0
2.82796e-13 1.30882 0
-4.98511e-13 1.30882 0
-3.74762e-13 1.29367 0
6.11309e-13 1.29367 0
0 1.29367 0
-2.68696e-13 1.29367 0
0 1.27931 0
3.02365e-13 1.27931 0
-2.68696e-13 1.29367 0
-1.59004e-13 1.29367 0
3.02365e-13 1.27931 0
1.77172e-13 1.27931 0
0 1.27931 0
7.90245e-15 1.27931 0
0 1.26569 0
1.13625e-13 1.26569 0
7.90245e-15 1.27931 0
4.03688e-14 1.27931 0
1.13625e-13 1.26569 0
-3.527e-14 1.26569 0
-1.59004e-13 1.29367 0
2.23532e-13 1.29367 0
1.77172e-13 1.27931 0
-1.67056e-13 1.27931 0
2.23532e-13 1.29367 0
6.20019e-14 1.29367 0
-1.67056e-13 1.27931 0
1.96413e-14 1.27931 0
4.03688e-14 1.27931 0
-1.32487e-13 1.27931 0
-3.527e-14 1.26569 0
-1.12484e-13 1.26569 0
-1.32487e-13 1.27931 0
1.15704e-13 1.27931 0
-1.12484e-13 1.26569 0
-7.0456e-14 1.26569 0
0 1.26569 0
2.91141e-13 1.26569 0
0 1.25276 0
-7.20698e-14 1.25276 0
2.91141e-13 1.26569 0
1.65585e-13 1.26569 0
-7.20698e-14 1.25276 0
-3.96005e-13 1.25276 0
0 1.25276 0
-3.17546e-14 1.25276 0
0 1.24051 0
1.15135e-13 1.24051 0
-3.17546e-14 1.25276 0
-4.56569e-13 1.25276 0
1.15135e-13 1.24051 0
2.36388e-13 1.24051 0
1.65585e-13 1.26569 0
-4.12141e-13 1.26569 0
-3.96005e-13 1.25276 0
2.60554e-13 1.25276 0
-4.12141e-13 1.26569 0
-3.21173e-14 1.26569 0
2.60554e-13 1.25276 0
1.13552e-13 1.25276 0
-4.56569e-13 1.25276 0
3.56595e-13 1.25276 0
2.36388e-13 1.24051 0
-2.48537e-13 1.24051 0
3.56595e-13 1.25276 0
1.21308e-13 1.25276 0
-2.48537e-13 1.24051 0
-1.7242e-13 1.24051 0
6.20019e-14 1.29367 0
4.1514e-13 1.29367 0
1.96413e-14 1.27931 0
-5.02142e-13 1.27931 0
4.1514e-13 1.29367 0
-3.5584e-13 1.29367 0
-5.02142e-13 1.27931 0
5.2279e-13 1.27931 0
1.15704e-13 1.27931 0
-3.3652e-13 1.27931 0
-7.0456e-14 1.26569 0
3.47089e-14 1.26569 0
-3.3652e-13 1.27931 0
5.35951e-13 1.27931 0
3.47089e-14 1.26569 0
-2.6226e-13 1.26569 0
-3.5584e-13 1.29367 0
-9.12546e-14 1.29367 0
5.2279e-13 1.27931 0
4.05233e-15 1.27931 0
-9.12546e-14 1.29367 0
4.72921e-13 1.29367 0
4.05233e-15 1.27931 0
-1.97358e-13 1.27931 0
5.35951e-13 1.27931 0
-1.80914e-13 1.27931 0
-2.6226e-13 1.26569 0
1.70065e-13 1.26569 0
-1.80914e-13 1.27931 0
-4.59423e-13 1.27931 0
1.70065e-13 1.26569 0
2.27195e-13 1.26569 0
-3.21173e-14 1.26569 0
-2.67148e-14 1.26569 0
1.13552e-13 1.25276 0
-2.87729e-14 1.25276 0
-2.67148e-14 1.26569 0
-2.6264e-13 1.26569 0
-2.87729e-14 1.25276 0
-2.73715e-14 1.25276 0
1.21308e-13 1.25276 0
-9.86824e-14 1.25276 0
-1.7242e-13 1.24051 0
-8.33082e-14 1.24051 0
-9.86824e-14 1.25276 0
-2.31194e-14 1.25276 0
-8.33082e-14 1.24051 0
6.38757e-14 1.24051 0
-2.6264e-13 1.26569 0
1.27782e-13 1.26569 0
-2.73715e-14 1.25276 0
1.67389e-14 1.25276 0
1.27782e-13 1.26569 0
4.48415e-13 1.26569 0
1.67389e-14 1.25276 0
-2.69707e-13 1.25276 0
-2.31194e-14 1.25276 0
2.13956e-13 1.25276 0
6.38757e-14 1.24051 0
-9.81419e-14 1.24051 0
2.13956e-13 1.25276 0
-1.63196e-14 1.25276 0
-9.81419e-14 1.24051 0
1.38899e-13 1.24051 0
1.35034e-14 1.3594 0
-1.53319e-14 1.3594 0
-4.91118e-14 1.34164 0
-1.21475e-13 1.34164 0
-1.53319e-14 1.3594 0
3.32069e-13 1.3594 0
-1.21475e-13 1.34164 0
-3.94317e-13 1.34164 0
8.61814e-14 1.34164 0
3.4306e-14 1.34164 0
-1.655e-13 1.32479 0
2.01773e-13 1.32479 0
3.4306e-14 1.34164 0
-6.05122e-13 1.34164 0
2.01773e-13 1.32479 0
3.53699e-13 1.32479 0
3.32069e-13 1.3594 0
-1.99115e-13 1.3594 0
-3.94317e-13 1.34164 0
1.9117e-13 1.34164 0
-1.99115e-13 1.3594 0
-5.98936e-13 1.3594 0
1.9117e-13 1.34164 0
4.89502e-13 1.34164 0
-6.05122e-13 1.34164 0
2.7911e-13 1.34164 0
3.53699e-13 1.32479 0
-3.48193e-13 1.32479 0
2.7911e-13 1.34164 0
4.12613e-13 1.34164 0
-3.48193e-13 1.32479 0
-2.9182e-13 1.32479 0
-1.17875e-14 1.32479 0
6.38022e-14 1.32479 0
-2.82933e-13 1.30882 0
-2.12628e-14 1.30882 0
6.38022e-14 1.32479 0
-1.06631e-13 1.32479 0
-2.12628e-14 1.30882 0
-1.2394e-14 1.30882 0
-4.98511e-13 1.30882 0
-2.34906e-13 1.30882 0
6.11309e-13 1.29367 0
3.14907e-13 1.29367 0
-2.34906e-13 1.30882 0
3.20869e-13 1.30882 0
3.14907e-13 1.29367 0
-2.84349e-13 1.29367 0
-1.06631e-13 1.32479 0
-7.15975e-14 1.32479 0
-1.2394e-14 1.30882 0
1.46822e-13 1.30882 0
-7.15975e-14 1.32479 0
2.6759e-14 1.32479 0
1.46822e-13 1.30882 0
1.58977e-14 1.30882 0
3.20869e-13 1.30882 0
-1.11167e-13 1.30882 0
-2.84349e-13 1.29367 0
2.38236e-13 1.29367 0
-1.11167e-13 1.30882 0
7.47225e-14 1.30882 0
2.38236e-13 1.29367 0
-2.88665e-13 1.29367 0
-5.98936e-13 1.3594 0
7.18112e-13 1.3594 0
4.89502e-13 1.34164 0
-6.97211e-13 1.34164 0
7.18112e-13 1.3594 0
-2.51058e-13 1.3594 0
-6.97211e-13 1.34164 0
2.83546e-13 1.34164 0
4.12613e-13 1.34164 0
1.09352e-13 1.34164 0
-2.9182e-13 1.32479 0
1.05225e-13 1.32479 0
1.09352e-13 1.34164 0
-1.68884e-13 1.34164 0
1.05225e-13 1.32479 0
6.16798e-15 1.32479 0
-2.51058e-13 1.3594 0
-2.01391e-13 1.3594 0
2.83546e-13 1.34164 0
5.90295e-14 1.34164 0
-2.01391e-13 1.3594 0
6.46213e-13 1.3594 0
5.90295e-14 1.34164 0
-4.18288e-13 1.34164 0
-1.68884e-13 1.34164 0
-9.58798e-14 1.34164 0
6.16798e-15 1.32479 0
-9.00773e-15 1.32479 0
-9.58798e-14 1.34164 0
-3.10386e-13 1.34164 0
-9.00773e-15 1.32479 0
3.28106e-13 1.32479 0
2.6759e-14 1.32479 0
-1.5665e-13 1.32479 0
1.58977e-14 1.30882 0
4.30254e-13 1.30882 0
-1.5665e-13 1.32479 0
2.32439e-13 1.32479 0
4.30254e-13 1.30882 0
-4.78119e-13 1.30882 0
7.47225e-14 1.30882 0
-1.7169e-14 1.30882 0
-2.88665e-13 1.29367 0
-8.99621e-14 1.29367 0
-1.7169e-14 1.30882 0
2.9226e-14 1.30882 0
-8.99621e-14 1.29367 0
3.28825e-13 1.29367 0
2.32439e-13 1.32479 0
2.47387e-13 1.32479 0
-4.78119e-13 1.30882 0
-1.38133e-14 1.30882 0
2.47387e-13 1.32479 0
3.75442e-14 1.32479 0
-1.38133e-14 1.30882 0
2.79649e-14 1.30882 0
2.9226e-14 1.30882 0
-1.22691e-13 1.30882 0
3.28825e-13 1.29367 0
-2.83741e-13 1.29367 0
-1.22691e-13 1.30882 0
2.12897e-13 1.30882 0
-2.83741e-13 1.29367 0
-5.43908e-14 1.29367 0
4.72921e-13 1.29367 0
1.4064e-14 1.29367 0
-1.97358e-13 1.27931 0
-7.8671e-14 1.27931 0
1.4064e-14 1.29367 0
-2.84199e-13 1.29367 0
-7.8671e-14 1.27931 0
8.351e-14 1.27931 0
-4.59423e-13 1.27931 0
1.18954e-13 1.27931 0
2.27195e-13 1.26569 0
-1.71447e-13 1.26569 0
1.18954e-13 1.27931 0
2.72478e-13 1.27931 0
-1.71447e-13 1.26569 0
-2.66667e-13 1.26569 0
-2.84199e-13 1.29367 0
1.54332e-13 1.29367 0
8.351e-14 1.27931 0
-1.92983e-13 1.27931 0
1.54332e-13 1.29367 0
-1.95896e-13 1.29367 0