# vtk DataFile Version 3.0
#This file was generated by the deal.II library on 2018/10/16 at 8:29:15
ASCII
DATASET UNSTRUCTURED_GRID

POINTS 20480 double
0 0 0
0.19635 0 0
0 0.285742 0
0.19635 0.285742 0
0.19635 0 0
0.392699 0 0
0.19635 0.285742 0
0.392699 0.285742 0
0 0.285742 0
0.19635 0.285742 0
0 0.596646 0
0.19635 0.596646 0
0.19635 0.285742 0
0.392699 0.285742 0
0.19635 0.596646 0
0.392699 0.596646 0
0.392699 0 0
0.589049 0 0
0.392699 0.285742 0
0.589049 0.285742 0
0.589049 0 0
0.785398 0 0
0.589049 0.285742 0
0.785398 0.285742 0
0.392699 0.285742 0
0.589049 0.285742 0
0.392699 0.596646 0
0.589049 0.596646 0
0.589049 0.285742 0
0.785398 0.285742 0
0.589049 0.596646 0
0.785398 0.596646 0
0 0.596646 0
0.19635 0.596646 0
0 0.909693 0
0.19635 0.909693 0
0.19635 0.596646 0
0.392699 0.596646 0
0.19635 0.909693 0
0.392699 0.909693 0
0 0.909693 0
0.19635 0.909693 0
0 1.22362 0
0.19635 1.22362 0
0.19635 0.909693 0
0.392699 0.909693 0
0.19635 1.22362 0
0.392699 1.22362 0
0.392699 0.596646 0
0.589049 0.596646 0
0.392699 0.909693 0
0.589049 0.909693 0
0.589049 0.596646 0
0.785398 0.596646 0
0.589049 0.909693 0
0.785398 0.909693 0
0.392699 0.909693 0
0.589049 0.909693 0
0.392699 1.22362 0
0.589049 1.22362 0
0.589049 0.909693 0
0.785398 0.909693 0
0.589049 1.22362 0
0.785398 1.22362 0
0.785398 0 0
0.981748 0 0
0.785398 0.285742 0
0.981748 0.285742 0
0.981748 0 0
1.1781 0 0
0.981748 0.285742 0
1.1781 0.285742 0
0.785398 0.285742 0
0.981748 0.285742 0
0.785398 0.596646 0
0.981748 0.596646 0
0.981748 0.285742 0
1.1781 0.285742 0
0.981748 0.596646 0
1.1781 0.596646 0
1.1781 0 0
1.37445 0 0
1.1781 0.285742 0
1.37445 0.285742 0
1.37445 0 0
1.5708 0 0
1.37445 0.285742 0
1.5708 0.285742 0
1.1781 0.285742 0
1.37445 0.285742 0
1.1781 0.596646 0
1.37445 0.596646 0
1.37445 0.285742 0
1.5708 0.285742 0
1.37445 0.596646 0
1.5708 0.596646 0
0.785398 0.596646 0
0.981748 0.596646 0
0.785398 0.909693 0
0.981748 0.909693 0
0.981748 0.596646 0
1.1781 0.596646 0
0.981748 0.909693 0
1.1781 0.909693 0
0.785398 0.909693 0
0.981748 0.909693 0
0.785398 1.22362 0
0.981748 1.22362 0
0.981748 0.909693 0
1.1781 0.909693 0
0.981748 1.22362 0
1.1781 1.22362 0
1.1781 0.596646 0
1.37445 0.596646 0
1.1781 0.909693 0
1.37445 0.909693 0
1.37445 0.596646 0
1.5708 0.596646 0
1.37445 0.909693 0
1.5708 0.909693 0
1.1781 0.909693 0
1.37445 0.909693 0
1.1781 1.22362 0
1.37445 1.22362 0
1.37445 0.909693 0
1.5708 0.909693 0
1.37445 1.22362 0
1.5708 1.22362 0
0 1.22362 0
0.19635 1.22362 0
0 1.53741 0
0.19635 1.53741 0
0.19635 1.22362 0
0.392699 1.22362 0
0.19635 1.53741 0
0.392699 1.53741 0
0 1.53741 0
0.19635 1.53741 0
0 1.85121 0
0.19635 1.85121 0
0.19635 1.53741 0
0.392699 1.53741 0
0.19635 1.85121 0
0.392699 1.85121 0
0.392699 1.22362 0
0.589049 1.22362 0
0.392699 1.53741 0
0.589049 1.53741 0
0.589049 1.22362 0
0.785398 1.22362 0
0.589049 1.53741 0
0.785398 1.53741 0
0.392699 1.53741 0
0.589049 1.53741 0
0.392699 1.85121 0
0.589049 1.85121 0
0.589049 1.53741 0
0.785398 1.53741 0
0.589049 1.85121 0
0.785398 1.85121 0
0 1.85121 0
0.19635 1.85121 0
0 2.16495 0
0.19635 2.16495 0
0.19635 1.85121 0
0.392699 1.85121 0
0.19635 2.16495 0
0.392699 2.16495 0
0 2.16495 0
0.19635 2.16495 0
0 2.47865 0
0.19635 2.47865 0
0.19635 2.16495 0
0.392699 2.16495 0
0.19635 2.47865 0
0.392699 2.47865 0
0.392699 1.85121 0
0.589049 1.85121 0
0.392699 2.16495 0
0.589049 2.16495 0
0.589049 1.85121 0
0.785398 1.85121 0
0.589049 2.16495 0
0.785398 2.16495 0
0.392699 2.16495 0
0.589049 2.16495 0
0.392699 2.47865 0
0.589049 2.47865 0
0.589049 2.16495 0
0.785398 2.16495 0
0.589049 2.47865 0
0.785398 2.47865 0
0.785398 1.22362 0
0.981748 1.22362 0
0.785398 1.53741 0
0.981748 1.53741 0
0.981748 1.22362 0
1.1781 1.22362 0
0.981748 1.53741 0
1.1781 1.53741 0
0.785398 1.53741 0
0.981748 1.53741 0
0.785398 1.85121 0
0.981748 1.85121 0
0.981748 1.53741 0
1.1781 1.53741 0
0.981748 1.85121 0
1.1781 1.85121 0
1.1781 1.22362 0
1.37445 1.22362 0
1.1781 1.53741 0
1.37445 1.53741 0
1.37445 1.22362 0
1.5708 1.22362 0
1.37445 1.53741 0
1.5708 1.53741 0
1.1781 1.53741 0
1.37445 1.53741 0
1.1781 1.85121 0
1.37445 1.85121 0
1.37445 1.53741 0
1.5708 1.53741 0
1.37445 1.85121 0
1.5708 1.85121 0
0.785398 1.85121 0
0.981748 1.85121 0
0.785398 2.16495 0
0.981748 2.16495 0
0.981748 1.85121 0
1.1781 1.85121 0
0.981748 2.16495 0
1.1781 2.16495 0
0.785398 2.16495 0
0.981748 2.16495 0
0.785398 2.47865 0
0.981748 2.47865 0
0.981748 2.16495 0
1.1781 2.16495 0
0.981748 2.47865 0
1.1781 2.47865 0
1.1781 1.85121 0
1.37445 1.85121 0
1.1781 2.16495 0
1.37445 2.16495 0
1.37445 1.85121 0
1.5708 1.85121 0
1.37445 2.16495 0
1.5708 2.16495 0
1.1781 2.16495 0
1.37445 2.16495 0
1.1781 2.47865 0
1.37445 2.47865 0
1.37445 2.16495 0
1.5708 2.16495 0
1.37445 2.47865 0
1.5708 2.47865 0
1.5708 0 0
1.76715 0 0
1.5708 0.285742 0
1.76715 0.285742 0
1.76715 0 0
1.9635 0 0
1.76715 0.285742 0
1.9635 0.285742 0
1.5708 0.285742 0
1.76715 0.285742 0
1.5708 0.596646 0
1.76715 0.596646 0
1.76715 0.285742 0
1.9635 0.285742 0
1.76715 0.596646 0
1.9635 0.596646 0
1.9635 0 0
2.15984 0 0
1.9635 0.285742 0
2.15984 0.285742 0
2.15984 0 0
2.35619 0 0
2.15984 0.285742 0
2.35619 0.285742 0
1.9635 0.285742 0
2.15984 0.285742 0
1.9635 0.596646 0
2.15984 0.596646 0
2.15984 0.285742 0
2.35619 0.285742 0
2.15984 0.596646 0
2.35619 0.596646 0
1.5708 0.596646 0
1.76715 0.596646 0
1.5708 0.909693 0
1.76715 0.909693 0
1.76715 0.596646 0
1.9635 0.596646 0
1.76715 0.909693 0
1.9635 0.909693 0
1.5708 0.909693 0
1.76715 0.909693 0
1.5708 1.22362 0
1.76715 1.22362 0
1.76715 0.909693 0
1.9635 0.909693 0
1.76715 1.22362 0
1.9635 1.22362 0
1.9635 0.596646 0
2.15984 0.596646 0
1.9635 0.909693 0
2.15984 0.909693 0
2.15984 0.596646 0
2.35619 0.596646 0
2.15984 0.909693 0
2.35619 0.909693 0
1.9635 0.909693 0
2.15984 0.909693 0
1.9635 1.22362 0
2.15984 1.22362 0
2.15984 0.909693 0
2.35619 0.909693 0
2.15984 1.22362 0
2.35619 1.22362 0
2.35619 0 0
2.55254 0 0
2.35619 0.285742 0
2.55254 0.285742 0
2.55254 0 0
2.74889 0 0
2.55254 0.285742 0
2.74889 0.285742 0
2.35619 0.285742 0
2.55254 0.285742 0
2.35619 0.596646 0
2.55254 0.596646 0
2.55254 0.285742 0
2.74889 0.285742 0
2.55254 0.596646 0
2.74889 0.596646 0
2.74889 0 0
2.94524 0 0
2.74889 0.285742 0
2.94524 0.285742 0
2.94524 0 0
3.14159 0 0
2.94524 0.285742 0
3.14159 0.285742 0
2.74889 0.285742 0
2.94524 0.285742 0
2.74889 0.596646 0
2.94524 0.596646 0
2.94524 0.285742 0
3.14159 0.285742 0
2.94524 0.596646 0
3.14159 0.596646 0
2.35619 0.596646 0
2.55254 0.596646 0
2.35619 0.909693 0
2.55254 0.909693 0
2.55254 0.596646 0
2.74889 0.596646 0
2.55254 0.909693 0
2.74889 0.909693 0
2.35619 0.909693 0
2.55254 0.909693 0
2.35619 1.22362 0
2.55254 1.22362 0
2.55254 0.909693 0
2.74889 0.909693 0
2.55254 1.22362 0
2.74889 1.22362 0
2.74889 0.596646 0
2.94524 0.596646 0
2.74889 0.909693 0
2.94524 0.909693 0
2.94524 0.596646 0
3.14159 0.596646 0
2.94524 0.909693 0
3.14159 0.909693 0
2.74889 0.909693 0
2.94524 0.909693 0
2.74889 1.22362 0
2.94524 1.22362 0
2.94524 0.909693 0
3.14159 0.909693 0
2.94524 1.22362 0
3.14159 1.22362 0
1.5708 1.22362 0
1.76715 1.22362 0
1.5708 1.53741 0
1.76715 1.53741 0
1.76715 1.22362 0
1.9635 1.22362 0
1.76715 1.53741 0
1.9635 1.53741 0
1.5708 1.53741 0
1.76715 1.53741 0
1.5708 1.85121 0
1.76715 1.85121 0
1.76715 1.53741 0
1.9635 1.53741 0
1.76715 1.85121 0
1.9635 1.85121 0
1.9635 1.22362 0
2.15984 1.22362 0
1.9635 1.53741 0
2.15984 1.53741 0
2.15984 1.22362 0
2.35619 1.22362 0
2.15984 1.53741 0
2.35619 1.53741 0
1.9635 1.53741 0
2.15984 1.53741 0
1.9635 1.85121 0
2.15984 1.85121 0
2.15984 1.53741 0
2.35619 1.53741 0
2.15984 1.85121 0
2.35619 1.85121 0
1.5708 1.85121 0
1.76715 1.85121 0
1.5708 2.16495 0
1.76715 2.16495 0
1.76715 1.85121 0
1.9635 1.85121 0
1.76715 2.16495 0
1.9635 2.16495 0
1.5708 2.16495 0
1.76715 2.16495 0
1.5708 2.47865 0
1.76715 2.47865 0
1.76715 2.16495 0
1.9635 2.16495 0
1.76715 2.47865 0
1.9635 2.47865 0
1.9635 1.85121 0
2.15984 1.85121 0
1.9635 2.16495 0
2.15984 2.16495 0
2.15984 1.85121 0
2.35619 1.85121 0
2.15984 2.16495 0
2.35619 2.16495 0
1.9635 2.16495 0
2.15984 2.16495 0
1.9635 2.47865 0
2.15984 2.47865 0
2.15984 2.16495 0
2.35619 2.16495 0
2.15984 2.47865 0
2.35619 2.47865 0
2.35619 1.22362 0
2.55254 1.22362 0
2.35619 1.53741 0
2.55254 1.53741 0
2.55254 1.22362 0
2.74889 1.22362 0
2.55254 1.53741 0
2.74889 1.53741 0
2.35619 1.53741 0
2.55254 1.53741 0
2.35619 1.85121 0
2.55254 1.85121 0
2.55254 1.53741 0
2.74889 1.53741 0
2.55254 1.85121 0
2.74889 1.85121 0
2.74889 1.22362 0
2.94524 1.22362 0
2.74889 1.53741 0
2.94524 1.53741 0
2.94524 1.22362 0
3.14159 1.22362 0
2.94524 1.53741 0
3.14159 1.53741 0
2.74889 1.53741 0
2.94524 1.53741 0
2.74889 1.85121 0
2.94524 1.85121 0
2.94524 1.53741 0
3.14159 1.53741 0
2.94524 1.85121 0
3.14159 1.85121 0
2.35619 1.85121 0
2.55254 1.85121 0
2.35619 2.16495 0
2.55254 2.16495 0
2.55254 1.85121 0
2.74889 1.85121 0
2.55254 2.16495 0
2.74889 2.16495 0
2.35619 2.16495 0
2.55254 2.16495 0
2.35619 2.47865 0
2.55254 2.47865 0
2.55254 2.16495 0
2.74889 2.16495 0
2.55254 2.47865 0
2.74889 2.47865 0
2.74889 1.85121 0
2.94524 1.85121 0
2.74889 2.16495 0
2.94524 2.16495 0
2.94524 1.85121 0
3.14159 1.85121 0
2.94524 2.16495 0
3.14159 2.16495 0
2.74889 2.16495 0
2.94524 2.16495 0
2.74889 2.47865 0
2.94524 2.47865 0
2.94524 2.16495 0
3.14159 2.16495 0
2.94524 2.47865 0
3.14159 2.47865 0
0 2.47865 0
0.19635 2.47865 0
0 2.79231 0
0.19635 2.79231 0
0.19635 2.47865 0
0.392699 2.47865 0
0.19635 2.79231 0
0.392699 2.79231 0
0 2.79231 0
0.19635 2.79231 0
0 3.10593 0
0.19635 3.10593 0
0.19635 2.79231 0
0.392699 2.79231 0
0.19635 3.10593 0
0.392699 3.10593 0
0.392699 2.47865 0
0.589049 2.47865 0
0.392699 2.79231 0
0.589049 2.79231 0
0.589049 2.47865 0
0.785398 2.47865 0
0.589049 2.79231 0
0.785398 2.79231 0
0.392699 2.79231 0
0.589049 2.79231 0
0.392699 3.10593 0
0.589049 3.10593 0
0.589049 2.79231 0
0.785398 2.79231 0
0.589049 3.10593 0
0.785398 3.10593 0
0 3.10593 0
0.19635 3.10593 0
0 3.4195 0
0.19635 3.4195 0
0.19635 3.10593 0
0.392699 3.10593 0
0.19635 3.4195 0
[...]
POINT_DATA 20480
VECTORS uf double
0 1 0
-2.05298e-13 1 0
0 1.57783 0
2.83577e-13 1.57783 0
-2.05298e-13 1 0
-9.88642e-14 1 0
2.83577e-13 1.57783 0
2.00684e-13 1.57783 0
0 1.57783 0
1.79919e-13 1.57783 0
0 1.54855 0
-2.65679e-14 1.54855 0
1.79919e-13 1.57783 0
9.28173e-15 1.57783 0
-2.65679e-14 1.54855 0
1.35931e-13 1.54855 0
-9.88642e-14 1 0
2.06263e-13 1 0
2.00684e-13 1.57783 0
-4.27401e-13 1.57783 0
2.06263e-13 1 0
-1.70192e-13 1 0
-4.27401e-13 1.57783 0
2.8112e-13 1.57783 0
9.28173e-15 1.57783 0
-7.44828e-13 1.57783 0
1.35931e-13 1.54855 0
8.09106e-13 1.54855 0
-7.44828e-13 1.57783 0
2.27704e-14 1.57783 0
8.09106e-13 1.54855 0
1.63679e-13 1.54855 0
0 1.54855 0
6.08668e-14 1.54855 0
0 1.53599 0
1.07849e-13 1.53599 0
6.08668e-14 1.54855 0
3.54242e-13 1.54855 0
1.07849e-13 1.53599 0
-4.35722e-13 1.53599 0
0 1.53599 0
2.90774e-13 1.53599 0
0 1.50403 0
-1.95855e-13 1.50403 0
2.90774e-13 1.53599 0
-3.92193e-13 1.53599 0
-1.95855e-13 1.50403 0
3.33266e-13 1.50403 0
3.54242e-13 1.54855 0
7.17122e-13 1.54855 0
-4.35722e-13 1.53599 0
-3.91891e-13 1.53599 0
7.17122e-13 1.54855 0
1.55852e-13 1.54855 0
-3.91891e-13 1.53599 0
2.87569e-13 1.53599 0
-3.92193e-13 1.53599 0
2.05847e-13 1.53599 0
3.33266e-13 1.50403 0
-4.352e-13 1.50403 0
2.05847e-13 1.53599 0
2.68731e-13 1.53599 0
-4.352e-13 1.50403 0
2.02318e-13 1.50403 0
-1.70192e-13 1 0
-2.37584e-13 1 0
2.8112e-13 1.57783 0
4.49609e-13 1.57783 0
-2.37584e-13 1 0
1.12766e-13 1 0
4.49609e-13 1.57783 0
-1.41403e-13 1.57783 0
2.27704e-14 1.57783 0
5.30803e-13 1.57783 0
1.63679e-13 1.54855 0
-4.17408e-13 1.54855 0
5.30803e-13 1.57783 0
3.94399e-13 1.57783 0
-4.17408e-13 1.54855 0
-5.86761e-13 1.54855 0
1.12766e-13 1 0
7.09453e-13 1 0
-1.41403e-13 1.57783 0
-1.27194e-12 1.57783 0
7.09453e-13 1 0
4.7628e-13 1 0
-1.27194e-12 1.57783 0
-6.6676e-13 1.57783 0
3.94399e-13 1.57783 0
-8.38893e-13 1.57783 0
-5.86761e-13 1.54855 0
3.9553e-13 1.54855 0
-8.38893e-13 1.57783 0
-5.67695e-13 1.57783 0
3.9553e-13 1.54855 0
1.07024e-13 1.54855 0
1.55852e-13 1.54855 0
-2.90167e-13 1.54855 0
2.87569e-13 1.53599 0
1.25029e-13 1.53599 0
-2.90167e-13 1.54855 0
-5.87791e-13 1.54855 0
1.25029e-13 1.53599 0
2.75072e-13 1.53599 0
2.68731e-13 1.53599 0
-8.1155e-14 1.53599 0
2.02318e-13 1.50403 0
-1.02898e-13 1.50403 0
-8.1155e-14 1.53599 0
-2.10362e-13 1.53599 0
-1.02898e-13 1.50403 0
2.32842e-13 1.50403 0
-5.87791e-13 1.54855 0
-1.20208e-13 1.54855 0
2.75072e-13 1.53599 0
-1.07719e-13 1.53599 0
-1.20208e-13 1.54855 0
6.80323e-14 1.54855 0
-1.07719e-13 1.53599 0
-3.65193e-13 1.53599 0
-2.10362e-13 1.53599 0
-5.72751e-14 1.53599 0
2.32842e-13 1.50403 0
3.89716e-14 1.50403 0
-5.72751e-14 1.53599 0
1.01349e-13 1.53599 0
3.89716e-14 1.50403 0
-3.67354e-13 1.50403 0
0 1.50403 0
-3.43119e-13 1.50403 0
0 1.47931 0
3.94605e-13 1.47931 0
-3.43119e-13 1.50403 0
5.93855e-13 1.50403 0
3.94605e-13 1.47931 0
-7.07447e-13 1.47931 0
0 1.47931 0
6.30794e-13 1.47931 0
0 1.45413 0
-4.66842e-13 1.45413 0
6.30794e-13 1.47931 0
-8.21871e-13 1.47931 0
-4.66842e-13 1.45413 0
3.89633e-13 1.45413 0
5.93855e-13 1.50403 0
-3.58768e-13 1.50403 0
-7.07447e-13 1.47931 0
4.13466e-13 1.47931 0
-3.58768e-13 1.50403 0
1.33678e-13 1.50403 0
4.13466e-13 1.47931 0
1.85932e-13 1.47931 0
-8.21871e-13 1.47931 0
2.08606e-13 1.47931 0
3.89633e-13 1.45413 0
1.48431e-14 1.45413 0
2.08606e-13 1.47931 0
2.87532e-13 1.47931 0
1.48431e-14 1.45413 0
-8.41047e-14 1.45413 0
0 1.45413 0
-2.65258e-13 1.45413 0
0 1.43094 0
-1.14379e-13 1.43094 0
-2.65258e-13 1.45413 0
2.64431e-13 1.45413 0
-1.14379e-13 1.43094 0
-8.71224e-14 1.43094 0
0 1.43094 0
-3.89166e-13 1.43094 0
0 1.40891 0
2.6488e-13 1.40891 0
-3.89166e-13 1.43094 0
-1.7945e-13 1.43094 0
2.6488e-13 1.40891 0
1.0319e-13 1.40891 0
2.64431e-13 1.45413 0
2.26274e-13 1.45413 0
-8.71224e-14 1.43094 0
-1.79731e-13 1.43094 0
2.26274e-13 1.45413 0
6.61797e-14 1.45413 0
-1.79731e-13 1.43094 0
2.78271e-14 1.43094 0
-1.7945e-13 1.43094 0
9.76095e-14 1.43094 0
1.0319e-13 1.40891 0
-4.62419e-13 1.40891 0
9.76095e-14 1.43094 0
-1.66015e-14 1.43094 0
-4.62419e-13 1.40891 0
2.38408e-13 1.40891 0
1.33678e-13 1.50403 0
4.72965e-14 1.50403 0
1.85932e-13 1.47931 0
-1.88194e-13 1.47931 0
4.72965e-14 1.50403 0
1.03982e-13 1.50403 0
-1.88194e-13 1.47931 0
-1.38111e-13 1.47931 0
2.87532e-13 1.47931 0
-4.61964e-13 1.47931 0
-8.41047e-14 1.45413 0
4.08646e-13 1.45413 0
-4.61964e-13 1.47931 0
2.47341e-14 1.47931 0
4.08646e-13 1.45413 0
-1.91155e-13 1.45413 0
1.03982e-13 1.50403 0
-2.8847e-13 1.50403 0
-1.38111e-13 1.47931 0
2.13947e-13 1.47931 0
-2.8847e-13 1.50403 0
-5.39806e-13 1.50403 0
2.13947e-13 1.47931 0
3.4004e-13 1.47931 0
2.47341e-14 1.47931 0
1.08069e-13 1.47931 0
-1.91155e-13 1.45413 0
-1.73552e-13 1.45413 0
1.08069e-13 1.47931 0
2.41271e-13 1.47931 0
-1.73552e-13 1.45413 0
-3.34918e-13 1.45413 0
6.61797e-14 1.45413 0
2.96519e-13 1.45413 0
2.78271e-14 1.43094 0
-1.96519e-13 1.43094 0
2.96519e-13 1.45413 0
-1.92476e-13 1.45413 0
-1.96519e-13 1.43094 0
-8.64765e-14 1.43094 0
-1.66015e-14 1.43094 0
-1.92361e-13 1.43094 0
2.38408e-13 1.40891 0
3.73028e-13 1.40891 0
-1.92361e-13 1.43094 0
-1.30923e-13 1.43094 0
3.73028e-13 1.40891 0
-7.49854e-14 1.40891 0
-1.92476e-13 1.45413 0
-6.78237e-13 1.45413 0
-8.64765e-14 1.43094 0
7.36693e-13 1.43094 0
-6.78237e-13 1.45413 0
2.43043e-13 1.45413 0
7.36693e-13 1.43094 0
-1.66394e-13 1.43094 0
-1.30923e-13 1.43094 0
4.12554e-13 1.43094 0
-7.49854e-14 1.40891 0
-3.10961e-13 1.40891 0
4.12554e-13 1.43094 0
1.83152e-13 1.43094 0
-3.10961e-13 1.40891 0
-8.24957e-14 1.40891 0
4.7628e-13 1 0
-4.13377e-13 1 0
-6.6676e-13 1.57783 0
8.3712e-13 1.57783 0
-4.13377e-13 1 0
-2.88568e-13 1 0
8.3712e-13 1.57783 0
3.54738e-13 1.57783 0
-5.67695e-13 1.57783 0
7.40363e-13 1.57783 0
1.07024e-13 1.54855 0
-4.67272e-13 1.54855 0
7.40363e-13 1.57783 0
4.40439e-13 1.57783 0
-4.67272e-13 1.54855 0
-3.68406e-13 1.54855 0
-2.88568e-13 1 0
-1.6539e-13 1 0
3.54738e-13 1.57783 0
7.15445e-14 1.57783 0
-1.6539e-13 1 0
3.14513e-13 1 0
7.15445e-14 1.57783 0
5.83018e-14 1.57783 0
4.40439e-13 1.57783 0
-4.02627e-13 1.57783 0
-3.68406e-13 1.54855 0
4.68429e-13 1.54855 0
-4.02627e-13 1.57783 0
4.88477e-13 1.57783 0
4.68429e-13 1.54855 0
-4.00446e-13 1.54855 0
6.80323e-14 1.54855 0
-1.94159e-13 1.54855 0
-3.65193e-13 1.53599 0
2.09304e-13 1.53599 0
-1.94159e-13 1.54855 0
2.93882e-13 1.54855 0
2.09304e-13 1.53599 0
5.02228e-14 1.53599 0
1.01349e-13 1.53599 0
-2.22402e-13 1.53599 0
-3.67354e-13 1.50403 0
4.01571e-13 1.50403 0
-2.22402e-13 1.53599 0
-5.3383e-14 1.53599 0
4.01571e-13 1.50403 0
-3.46253e-13 1.50403 0
2.93882e-13 1.54855 0
1.07841e-13 1.54855 0
5.02228e-14 1.53599 0
-1.18801e-13 1.53599 0
1.07841e-13 1.54855 0
-5.4302e-13 1.54855 0
-1.18801e-13 1.53599 0
3.99e-13 1.53599 0
-5.3383e-14 1.53599 0
-3.34223e-13 1.53599 0
-3.46253e-13 1.50403 0
6.527e-13 1.50403 0
-3.34223e-13 1.53599 0
1.63174e-14 1.53599 0
6.527e-13 1.50403 0
2.31838e-13 1.50403 0
3.14513e-13 1 0
2.32707e-13 1 0
5.83018e-14 1.57783 0
-3.03288e-13 1.57783 0
2.32707e-13 1 0
-1.57343e-13 1 0
-3.03288e-13 1.57783 0
1.35453e-13 1.57783 0
4.88477e-13 1.57783 0
-2.78204e-13 1.57783 0
-4.00446e-13 1.54855 0
2.30691e-13 1.54855 0
-2.78204e-13 1.57783 0
-1.2516e-13 1.57783 0
2.30691e-13 1.54855 0
1.57039e-13 1.54855 0
-1.57343e-13 1 0
-2.01104e-13 1 0
1.35453e-13 1.57783 0
2.65271e-13 1.57783 0
-2.01104e-13 1 0
9.75882e-14 1 0
2.65271e-13 1.57783 0
-9.01193e-15 1.57783 0
-1.2516e-13 1.57783 0
2.97918e-13 1.57783 0
1.57039e-13 1.54855 0
-2.16995e-13 1.54855 0
2.97918e-13 1.57783 0
4.39323e-13 1.57783 0
-2.16995e-13 1.54855 0
-5.98818e-14 1.54855 0
-5.4302e-13 1.54855 0
-8.54048e-15 1.54855 0
3.99e-13 1.53599 0
5.41899e-14 1.53599 0
-8.54048e-15 1.54855 0
-2.05717e-13 1.54855 0
5.41899e-14 1.53599 0
2.04736e-13 1.53599 0
1.63174e-14 1.53599 0
7.67867e-13 1.53599 0
2.31838e-13 1.50403 0
-8.07925e-13 1.50403 0
7.67867e-13 1.53599 0
-6.32019e-14 1.53599 0
-8.07925e-13 1.50403 0
4.26497e-13 1.50403 0
-2.05717e-13 1.54855 0
-1.47917e-13 1.54855 0
2.04736e-13 1.53599 0
1.19935e-13 1.53599 0
-1.47917e-13 1.54855 0
1.81749e-13 1.54855 0
1.19935e-13 1.53599 0
-5.744e-14 1.53599 0
-6.32019e-14 1.53599 0
-1.62781e-13 1.53599 0
4.26497e-13 1.50403 0
-3.37456e-13 1.50403 0
-1.62781e-13 1.53599 0
3.67456e-13 1.53599 0
-3.37456e-13 1.50403 0
-1.78069e-14 1.50403 0
-5.39806e-13 1.50403 0
8.19715e-13 1.50403 0
3.4004e-13 1.47931 0
-6.9937e-13 1.47931 0
8.19715e-13 1.50403 0
-2.13792e-13 1.50403 0
-6.9937e-13 1.47931 0
2.52686e-13 1.47931 0
2.41271e-13 1.47931 0
-1.36721e-13 1.47931 0
-3.34918e-13 1.45413 0
3.59491e-13 1.45413 0
-1.36721e-13 1.47931 0
-2.40867e-13 1.47931 0
3.59491e-13 1.45413 0
2.51365e-13 1.45413 0
-2.13792e-13 1.50403 0
2.08902e-14 1.50403 0
2.52686e-13 1.47931 0
-3.87753e-13 1.47931 0
2.08902e-14 1.50403 0
5.33218e-14 1.50403 0
-3.87753e-13 1.47931 0
-1.62278e-14 1.47931 0
-2.40867e-13 1.47931 0
-7.44791e-14 1.47931 0
2.51365e-13 1.45413 0
-8.59134e-14 1.45413 0
-7.44791e-14 1.47931 0
-5.49567e-14 1.47931 0
-8.59134e-14 1.45413 0
-1.51216e-13 1.45413 0
2.43043e-13 1.45413 0
2.21155e-13 1.45413 0
-1.66394e-13 1.43094 0
-2.38702e-13 1.43094 0
2.21155e-13 1.45413 0
1.33452e-13 1.45413 0
-2.38702e-13 1.43094 0
4.26853e-14 1.43094 0
1.83152e-13 1.43094 0
-2.13783e-13 1.43094 0
-8.24957e-14 1.40891 0
1.14111e-13 1.40891 0
-2.13783e-13 1.43094 0
3.77308e-13 1.43094 0
1.14111e-13 1.40891 0
-1.73123e-13 1.40891 0
1.33452e-13 1.45413 0
-1.94878e-13 1.45413 0
4.26853e-14 1.43094 0
3.37516e-13 1.43094 0
-1.94878e-13 1.45413 0
1.95292e-13 1.45413 0
3.37516e-13 1.43094 0
-1.59623e-13 1.43094 0
3.77308e-13 1.43094 0
-9.08178e-15 1.43094 0
-1.73123e-13 1.40891 0
-6.20286e-14 1.40891 0
-9.08178e-15 1.43094 0
4.25251e-13 1.43094 0
-6.20286e-14 1.40891 0
-3.93598e-13 1.40891 0
5.33218e-14 1.50403 0
5.16631e-14 1.50403 0
-1.62278e-14 1.47931 0
3.71112e-13 1.47931 0
5.16631e-14 1.50403 0
-2.21742e-13 1.50403 0
3.71112e-13 1.47931 0
1.22461e-13 1.47931 0
-5.49567e-14 1.47931 0
5.27581e-14 1.47931 0
-1.51216e-13 1.45413 0
2.86922e-13 1.45413 0
5.27581e-14 1.47931 0
7.63647e-15 1.47931 0
2.86922e-13 1.45413 0
-1.26863e-13 1.45413 0
-2.21742e-13 1.50403 0
5.65424e-13 1.50403 0
1.22461e-13 1.47931 0
-5.84463e-13 1.47931 0
5.65424e-13 1.50403 0
-6.39372e-13 1.50403 0
-5.84463e-13 1.47931 0
6.4982e-13 1.47931 0
7.63647e-15 1.47931 0
-2.88896e-13 1.47931 0
-1.26863e-13 1.45413 0
4.63686e-13 1.45413 0
-2.88896e-13 1.47931 0
3.49009e-13 1.47931 0
4.63686e-13 1.45413 0
-2.62009e-13 1.45413 0
1.95292e-13 1.45413 0
-2.28713e-13 1.45413 0
-1.59623e-13 1.43094 0
3.63623e-13 1.43094 0
-2.28713e-13 1.45413 0
-1.56664e-13 1.45413 0
3.63623e-13 1.43094 0
1.69049e-15 1.43094 0
4.25251e-13 1.43094 0
-9.15405e-13 1.43094 0
-3.93598e-13 1.40891 0
8.65752e-13 1.40891 0
-9.15405e-13 1.43094 0
2.92461e-13 1.43094 0
8.65752e-13 1.40891 0
-4.66614e-14 1.40891 0
-1.56664e-13 1.45413 0
4.60439e-13 1.45413 0
1.69049e-15 1.43094 0
-4.62339e-13 1.43094 0
4.60439e-13 1.45413 0
-4.26162e-14 1.45413 0
-4.62339e-13 1.43094 0
1.7933e-13 1.43094 0
2.92461e-13 1.43094 0
1.0648e-13 1.43094 0
-4.66614e-14 1.40891 0
-2.01299e-13 1.40891 0
1.0648e-13 1.43094 0
1.31108e-13 1.43094 0
-2.01299e-13 1.40891 0
2.55302e-13 1.40891 0
0 1.40891 0
2.15661e-13 1.40891 0
0 1.38819 0
-1.03311e-13 1.38819 0
2.15661e-13 1.40891 0
1.81785e-13 1.40891 0
-1.03311e-13 1.38819 0
-1.47345e-13 1.38819 0
0 1.38819 0
1.59403e-13 1.38819 0
0 1.36863 0
-2.94951e-13 1.36863 0
1.59403e-13 1.38819 0
-1.22501e-13 1.38819 0
-2.94951e-13 1.36863 0
5.42729e-14 1.36863 0
1.81785e-13 1.40891 0
-7.03281e-13 1.40891 0
-1.47345e-13 1.38819 0
6.77351e-13 1.38819 0
-7.03281e-13 1.40891 0
2.82936e-13 1.40891 0
6.77351e-13 1.38819 0
-1.50683e-13 1.38819 0
-1.22501e-13 1.38819 0
4.63362e-13 1.38819 0
5.42729e-14 1.36863 0
-2.17497e-13 1.36863 0
4.63362e-13 1.38819 0
-6.39504e-14 1.38819 0
-2.17497e-13 1.36863 0
2.38853e-14 1.36863 0
0 1.36863 0
-4.09986e-13 1.36863 0
0 1.35019 0
4.58472e-14 1.35019 0
-4.09986e-13 1.36863 0
-1.65667e-13 1.36863 0
4.58472e-14 1.35019 0
1.57945e-13 1.35019 0
0 1.35019 0
2.30478e-13 1.35019 0
0 1.33279 0
-1.19371e-13 1.33279 0
2.30478e-13 1.35019 0
2.6229e-13 1.35019 0
-1.19371e-13 1.33279 0
-2.16328e-13 1.33279 0
-1.65667e-13 1.36863 0
-1.6429e-13 1.36863 0
1.57945e-13 1.35019 0
2.30588e-13 1.35019 0
-1.6429e-13 1.36863 0
1.23884e-14 1.36863 0
2.30588e-13 1.35019 0
1.66275e-14 1.35019 0
2.6229e-13 1.35019 0
1.13873e-13 1.35019 0
-2.16328e-13 1.33279 0
5.15365e-14 1.33279 0
1.13873e-13 1.35019 0
-9.97198e-14 1.35019 0
5.15365e-14 1.33279 0
1.34109e-13 1.33279 0
2.82936e-13 1.40891 0
5.58801e-13 1.40891 0
-1.50683e-13 1.38819 0
-4.9092e-13 1.38819 0
5.58801e-13 1.40891 0
-5.17671e-13 1.40891 0
-4.9092e-13 1.38819 0
6.21552e-13 1.38819 0
-6.39504e-14 1.38819 0
-5.53751e-13 1.38819 0
2.38853e-14 1.36863 0
4.03755e-13 1.36863 0
-5.53751e-13 1.38819 0
1.9194e-13 1.38819 0
4.03755e-13 1.36863 0
-1.79523e-14 1.36863 0
-5.17671e-13 1.40891 0
-3.54269e-13 1.40891 0
6.21552e-13 1.38819 0
2.56019e-13 1.38819 0
-3.54269e-13 1.40891 0
1.04343e-13 1.40891 0
2.56019e-13 1.38819 0
-2.22647e-13 1.38819 0
1.9194e-13 1.38819 0
3.50913e-13 1.38819 0
-1.79523e-14 1.36863 0
-2.629e-13 1.36863 0
3.50913e-13 1.38819 0
-1.10428e-13 1.38819 0
-2.629e-13 1.36863 0
-5.43027e-14 1.36863 0
1.23884e-14 1.36863 0
5.1343e-13 1.36863 0
1.66275e-14 1.35019 0
-5.1686e-13 1.35019 0
5.1343e-13 1.36863 0
5.89665e-14 1.36863 0
-5.1686e-13 1.35019 0
1.16852e-13 1.35019 0
-9.97198e-14 1.35019 0
-6.0352e-13 1.35019 0
1.34109e-13 1.33279 0
3.8112e-13 1.33279 0
-6.0352e-13 1.35019 0
2.7211e-13 1.35019 0
3.8112e-13 1.33279 0
-1.70766e-13 1.33279 0
5.89665e-14 1.36863 0
-1.11011e-13 1.36863 0
1.16852e-13 1.35019 0
2.74338e-13 1.35019 0
-1.11011e-13 1.36863 0
3.28175e-14 1.36863 0
2.74338e-13 1.35019 0
-3.97424e-13 1.35019 0
2.7211e-13 1.35019 0
6.09883e-13 1.35019 0
-1.70766e-13 1.33279 0
-6.74142e-13 1.33279 0
6.09883e-13 1.35019 0
-7.18937e-13 1.35019 0
-6.74142e-13 1.33279 0
8.53091e-13 1.33279 0
0 1.33279 0
-5.21543e-13 1.33279 0
0 1.31638 0
4.49346e-13 1.31638 0
-5.21543e-13 1.33279 0
-2.21227e-13 1.33279 0
4.49346e-13 1.31638 0
2.16235e-13 1.31638 0
0 1.31638 0
2.16695e-13 1.31638 0
0 1.3009 0
1.76762e-13 1.3009 0
2.16695e-13 1.31638 0
5.41152e-14 1.31638 0
1.76762e-13 1.3009 0
9.35751e-14 1.3009 0
-2.21227e-13 1.33279 0
4.36758e-13 1.33279 0
2.16235e-13 1.31638 0
-3.35364e-13 1.31638 0
4.36758e-13 1.33279 0
1.31394e-13 1.33279 0
-3.35364e-13 1.31638 0
2.46812e-14 1.31638 0
5.41152e-14 1.31638 0
-2.08381e-13 1.31638 0
9.35751e-14 1.3009 0
-2.3163e-13 1.3009 0
-2.08381e-13 1.31638 0
1.82138e-13 1.31638 0
-2.3163e-13 1.3009 0
-2.6663e-14 1.3009 0
0 1.3009 0
3.29632e-13 1.3009 0
0 1.28629 0
-6.70679e-14 1.28629 0
3.29632e-13 1.3009 0
4.7314e-13 1.3009 0
-6.70679e-14 1.28629 0
-5.55629e-13 1.28629 0
0 1.28629 0
-1.04566e-13 1.28629 0
0 1.27251 0
9.09529e-14 1.27251 0
-1.04566e-13 1.28629 0
-7.53917e-13 1.28629 0
9.09529e-14 1.27251 0
2.67435e-13 1.27251 0
4.7314e-13 1.3009 0
-5.68253e-13 1.3009 0
-5.55629e-13 1.28629 0
5.47119e-13 1.28629 0
-5.68253e-13 1.3009 0
-8.44371e-14 1.3009 0
5.47119e-13 1.28629 0
1.4366e-13 1.28629 0
-7.53917e-13 1.28629 0
6.05551e-13 1.28629 0
2.67435e-13 1.27251 0
-4.51748e-13 1.27251 0
6.05551e-13 1.28629 0
2.33222e-13 1.28629 0
-4.51748e-13 1.27251 0
-2.97631e-13 1.27251 0
1.31394e-13 1.33279 0
3.91786e-13 1.33279 0
2.46812e-14 1.31638 0
-4.80333e-13 1.31638 0
3.91786e-13 1.33279 0
-3.01674e-13 1.33279 0
-4.80333e-13 1.31638 0
3.14687e-13 1.31638 0
1.82138e-13 1.31638 0
-2.4252e-13 1.31638 0
-2.6663e-14 1.3009 0
3.2451e-15 1.3009 0
-2.4252e-13 1.31638 0
3.55122e-13 1.31638 0
3.2451e-15 1.3009 0
-1.47647e-13 1.3009 0
-3.01674e-13 1.33279 0
-4.72923e-13 1.33279 0
3.14687e-13 1.31638 0
3.1963e-13 1.31638 0
-4.72923e-13 1.33279 0
6.12169e-13 1.33279 0
3.1963e-13 1.31638 0
-3.38734e-13 1.31638 0
3.55122e-13 1.31638 0
-8.53461e-14 1.31638 0
-1.47647e-13 1.3009 0
2.38545e-13 1.3009 0
-8.53461e-14 1.31638 0
-4.09553e-13 1.31638 0
2.38545e-13 1.3009 0
2.9373e-13 1.3009 0
-8.44371e-14 1.3009 0
-6.3486e-14 1.3009 0
1.4366e-13 1.28629 0
-1.31377e-13 1.28629 0
-6.3486e-14 1.3009 0
-3.73435e-14 1.3009 0
-1.31377e-13 1.28629 0
7.67721e-14 1.28629 0
2.33222e-13 1.28629 0
-2.17483e-13 1.28629 0
-2.97631e-13 1.27251 0
4.79082e-14 1.27251 0
-2.17483e-13 1.28629 0
2.64154e-14 1.28629 0
4.79082e-14 1.27251 0
2.86705e-14 1.27251 0
-3.73435e-14 1.3009 0
2.24643e-13 1.3009 0
7.67721e-14 1.28629 0
-2.32691e-15 1.28629 0
2.24643e-13 1.3009 0
3.47701e-13 1.3009 0
-2.32691e-15 1.28629 0
-2.38783e-13 1.28629 0
2.64154e-14 1.28629 0
1.794e-13 1.28629 0
2.86705e-14 1.27251 0
-1.0715e-13 1.27251 0
1.794e-13 1.28629 0
-1.40606e-13 1.28629 0
-1.0715e-13 1.27251 0
7.33272e-14 1.27251 0
1.04343e-13 1.40891 0
4.54248e-14 1.40891 0
-2.22647e-13 1.38819 0
-1.99319e-14 1.38819 0
4.54248e-14 1.40891 0
1.58568e-13 1.40891 0
-1.99319e-14 1.38819 0
-1.7238e-13 1.38819 0
-1.10428e-13 1.38819 0
1.85022e-13 1.38819 0
-5.43027e-14 1.36863 0
1.07073e-13 1.36863 0
1.85022e-13 1.38819 0
-4.46583e-13 1.38819 0
1.07073e-13 1.36863 0
2.63166e-13 1.36863 0
1.58568e-13 1.40891 0
-1.47163e-13 1.40891 0
-1.7238e-13 1.38819 0
1.37804e-13 1.38819 0
-1.47163e-13 1.40891 0
-6.51491e-13 1.40891 0
1.37804e-13 1.38819 0
5.42363e-13 1.38819 0
-4.46583e-13 1.38819 0
1.62836e-13 1.38819 0
2.63166e-13 1.36863 0
-9.72995e-14 1.36863 0
1.62836e-13 1.38819 0
5.40326e-13 1.38819 0
-9.72995e-14 1.36863 0
-5.13784e-13 1.36863 0
3.28175e-14 1.36863 0
-9.33866e-15 1.36863 0
-3.97424e-13 1.35019 0
-9.79309e-15 1.35019 0
-9.33866e-15 1.36863 0
-1.57183e-13 1.36863 0
-9.79309e-15 1.35019 0
7.66421e-14 1.35019 0
-7.18937e-13 1.35019 0
-2.71287e-13 1.35019 0
8.53091e-13 1.33279 0
3.17102e-13 1.33279 0
-2.71287e-13 1.35019 0
4.02485e-13 1.35019 0
3.17102e-13 1.33279 0
-3.49448e-13 1.33279 0
-1.57183e-13 1.36863 0
2.01491e-13 1.36863 0
7.66421e-14 1.35019 0
1.39117e-14 1.35019 0
2.01491e-13 1.36863 0
-6.50607e-14 1.36863 0
1.39117e-14 1.35019 0
5.45666e-14 1.35019 0
4.02485e-13 1.35019 0
-2.5042e-13 1.35019 0
-3.49448e-13 1.33279 0
4.83568e-13 1.33279 0
-2.5042e-13 1.35019 0
7.13859e-14 1.35019 0
4.83568e-13 1.33279 0
-4.97425e-13 1.33279 0
-6.51491e-13 1.40891 0
9.96952e-13 1.40891 0
5.42363e-13 1.38819 0
-7.54539e-13 1.38819 0
9.96952e-13 1.40891 0
-2.81539e-13 1.40891 0
-7.54539e-13 1.38819 0
3.1678e-13 1.38819 0
5.40326e-13 1.38819 0
2.27601e-13 1.38819 0
-5.13784e-13 1.36863 0
-6.47355e-14 1.36863 0
2.27601e-13 1.38819 0
-2.68629e-13 1.38819 0
-6.47355e-14 1.36863 0
1.58382e-13 1.36863 0
-2.81539e-13 1.40891 0
-2.23222e-13 1.40891 0
3.1678e-13 1.38819 0
4.25888e-14 1.38819 0
-2.23222e-13 1.40891 0
8.77448e-13 1.40891 0
4.25888e-14 1.38819 0
-5.65958e-13 1.38819 0
-2.68629e-13 1.38819 0
-2.34154e-13 1.38819 0
1.58382e-13 1.36863 0
-2.00576e-14 1.36863 0
-2.34154e-13 1.38819 0
-3.75045e-13 1.38819 0
-2.00576e-14 1.36863 0
5.38264e-13 1.36863 0
-6.50607e-14 1.36863 0
-3.4661e-13 1.36863 0
5.45666e-14 1.35019 0
6.34927e-13 1.35019 0
-3.4661e-13 1.36863 0
4.4436e-13 1.36863 0
6.34927e-13 1.35019 0
-5.84555e-13 1.35019 0
7.13859e-14 1.35019 0
5.15323e-14 1.35019 0
-4.97425e-13 1.33279 0
-5.88459e-14 1.33279 0
5.15323e-14 1.35019 0
-7.73709e-14 1.35019 0
-5.88459e-14 1.33279 0
5.19294e-13 1.33279 0
4.4436e-13 1.36863 0
1.818e-13 1.36863 0
-5.84555e-13 1.35019 0
7.50867e-14 1.35019 0
1.818e-13 1.36863 0
1.54371e-13 1.36863 0
7.50867e-14 1.35019 0
1.19954e-14 1.35019 0
-7.73709e-14 1.35019 0
6.3924e-14 1.35019 0
5.19294e-13 1.33279 0
-5.91774e-13 1.33279 0
6.3924e-14 1.35019 0
2.33273e-13 1.35019 0
-5.91774e-13 1.33279 0
4.92326e-14 1.33279 0
6.12169e-13 1.33279 0
-2.32756e-14 1.33279 0
-3.38734e-13 1.31638 0
-8.40001e-15 1.31638 0
-2.32756e-14 1.33279 0
-1.68902e-13 1.33279 0
-8.40001e-15 1.31638 0
-1.6611e-14 1.31638 0
-4.09553e-13 1.31638 0
2.66338e-14 1.31638 0
2.9373e-13 1.3009 0
-1.75142e-13 1.3009 0
2.66338e-14 1.31638 0
3.09904e-13 1.31638 0
-1.75142e-13 1.3009 0
-1.85448e-13 1.3009 0
-1.68902e-13 1.33279 0
5.49141e-13 1.33279 0
-1.6611e-14 1.31638 0
-4.96602e-13 1.31638 0
5.49141e-13 1.33279 0
-6.38114e-13 1.33279 0