# vtk DataFile Version 3.0
#This file was generated by the deal.II library on 2018/10/15 at 5:38:38
ASCII
DATASET UNSTRUCTURED_GRID

POINTS 20480 double
0 0 0
0.19635 0 0
0 0.308329 0
0.19635 0.308329 0
0.19635 0 0
0.392699 0 0
0.19635 0.308329 0
0.392699 0.308329 0
0 0.308329 0
0.19635 0.308329 0
0 0.620647 0
0.19635 0.620647 0
0.19635 0.308329 0
0.392699 0.308329 0
0.19635 0.620647 0
0.392699 0.620647 0
0.392699 0 0
0.589049 0 0
0.392699 0.308329 0
0.589049 0.308329 0
0.589049 0 0
0.785398 0 0
0.589049 0.308329 0
0.785398 0.308329 0
0.392699 0.308329 0
0.589049 0.308329 0
0.392699 0.620647 0
0.589049 0.620647 0
0.589049 0.308329 0
0.785398 0.308329 0
0.589049 0.620647 0
0.785398 0.620647 0
0 0.620647 0
0.19635 0.620647 0
0 0.933282 0
0.19635 0.933282 0
0.19635 0.620647 0
0.392699 0.620647 0
0.19635 0.933282 0
0.392699 0.933282 0
0 0.933282 0
0.19635 0.933282 0
0 1.24597 0
0.19635 1.24597 0
0.19635 0.933282 0
0.392699 0.933282 0
0.19635 1.24597 0
0.392699 1.24597 0
0.392699 0.620647 0
0.589049 0.620647 0
0.392699 0.933282 0
0.589049 0.933282 0
0.589049 0.620647 0
0.785398 0.620647 0
0.589049 0.933282 0
0.785398 0.933282 0
0.392699 0.933282 0
0.589049 0.933282 0
0.392699 1.24597 0
0.589049 1.24597 0
0.589049 0.933282 0
0.785398 0.933282 0
0.589049 1.24597 0
0.785398 1.24597 0
0.785398 0 0
0.981748 0 0
0.785398 0.308329 0
0.981748 0.308329 0
0.981748 0 0
1.1781 0 0
0.981748 0.308329 0
1.1781 0.308329 0
0.785398 0.308329 0
0.981748 0.308329 0
0.785398 0.620647 0
0.981748 0.620647 0
0.981748 0.308329 0
1.1781 0.308329 0
0.981748 0.620647 0
1.1781 0.620647 0
1.1781 0 0
1.37445 0 0
1.1781 0.308329 0
1.37445 0.308329 0
1.37445 0 0
1.5708 0 0
1.37445 0.308329 0
1.5708 0.308329 0
1.1781 0.308329 0
1.37445 0.308329 0
1.1781 0.620647 0
1.37445 0.620647 0
1.37445 0.308329 0
1.5708 0.308329 0
1.37445 0.620647 0
1.5708 0.620647 0
0.785398 0.620647 0
0.981748 0.620647 0
0.785398 0.933282 0
0.981748 0.933282 0
0.981748 0.620647 0
1.1781 0.620647 0
0.981748 0.933282 0
1.1781 0.933282 0
0.785398 0.933282 0
0.981748 0.933282 0
0.785398 1.24597 0
0.981748 1.24597 0
0.981748 0.933282 0
1.1781 0.933282 0
0.981748 1.24597 0
1.1781 1.24597 0
1.1781 0.620647 0
1.37445 0.620647 0
1.1781 0.933282 0
1.37445 0.933282 0
1.37445 0.620647 0
1.5708 0.620647 0
1.37445 0.933282 0
1.5708 0.933282 0
1.1781 0.933282 0
1.37445 0.933282 0
1.1781 1.24597 0
1.37445 1.24597 0
1.37445 0.933282 0
1.5708 0.933282 0
1.37445 1.24597 0
1.5708 1.24597 0
0 1.24597 0
0.19635 1.24597 0
0 1.55866 0
0.19635 1.55866 0
0.19635 1.24597 0
0.392699 1.24597 0
0.19635 1.55866 0
0.392699 1.55866 0
0 1.55866 0
0.19635 1.55866 0
0 1.87134 0
0.19635 1.87134 0
0.19635 1.55866 0
0.392699 1.55866 0
0.19635 1.87134 0
0.392699 1.87134 0
0.392699 1.24597 0
0.589049 1.24597 0
0.392699 1.55866 0
0.589049 1.55866 0
0.589049 1.24597 0
0.785398 1.24597 0
0.589049 1.55866 0
0.785398 1.55866 0
0.392699 1.55866 0
0.589049 1.55866 0
0.392699 1.87134 0
0.589049 1.87134 0
0.589049 1.55866 0
0.785398 1.55866 0
0.589049 1.87134 0
0.785398 1.87134 0
0 1.87134 0
0.19635 1.87134 0
0 2.18401 0
0.19635 2.18401 0
0.19635 1.87134 0
0.392699 1.87134 0
0.19635 2.18401 0
0.392699 2.18401 0
0 2.18401 0
0.19635 2.18401 0
0 2.49668 0
0.19635 2.49668 0
0.19635 2.18401 0
0.392699 2.18401 0
0.19635 2.49668 0
0.392699 2.49668 0
0.392699 1.87134 0
0.589049 1.87134 0
0.392699 2.18401 0
0.589049 2.18401 0
0.589049 1.87134 0
0.785398 1.87134 0
0.589049 2.18401 0
0.785398 2.18401 0
0.392699 2.18401 0
0.589049 2.18401 0
0.392699 2.49668 0
0.589049 2.49668 0
0.589049 2.18401 0
0.785398 2.18401 0
0.589049 2.49668 0
0.785398 2.49668 0
0.785398 1.24597 0
0.981748 1.24597 0
0.785398 1.55866 0
0.981748 1.55866 0
0.981748 1.24597 0
1.1781 1.24597 0
0.981748 1.55866 0
1.1781 1.55866 0
0.785398 1.55866 0
0.981748 1.55866 0
0.785398 1.87134 0
0.981748 1.87134 0
0.981748 1.55866 0
1.1781 1.55866 0
0.981748 1.87134 0
1.1781 1.87134 0
1.1781 1.24597 0
1.37445 1.24597 0
1.1781 1.55866 0
1.37445 1.55866 0
1.37445 1.24597 0
1.5708 1.24597 0
1.37445 1.55866 0
1.5708 1.55866 0
1.1781 1.55866 0
1.37445 1.55866 0
1.1781 1.87134 0
1.37445 1.87134 0
1.37445 1.55866 0
1.5708 1.55866 0
1.37445 1.87134 0
1.5708 1.87134 0
0.785398 1.87134 0
0.981748 1.87134 0
0.785398 2.18401 0
0.981748 2.18401 0
0.981748 1.87134 0
1.1781 1.87134 0
0.981748 2.18401 0
1.1781 2.18401 0
0.785398 2.18401 0
0.981748 2.18401 0
0.785398 2.49668 0
0.981748 2.49668 0
0.981748 2.18401 0
1.1781 2.18401 0
0.981748 2.49668 0
1.1781 2.49668 0
1.1781 1.87134 0
1.37445 1.87134 0
1.1781 2.18401 0
1.37445 2.18401 0
1.37445 1.87134 0
1.5708 1.87134 0
1.37445 2.18401 0
1.5708 2.18401 0
1.1781 2.18401 0
1.37445 2.18401 0
1.1781 2.49668 0
1.37445 2.49668 0
1.37445 2.18401 0
1.5708 2.18401 0
1.37445 2.49668 0
1.5708 2.49668 0
1.5708 0 0
1.76715 0 0
1.5708 0.308329 0
1.76715 0.308329 0
1.76715 0 0
1.9635 0 0
1.76715 0.308329 0
1.9635 0.308329 0
1.5708 0.308329 0
1.76715 0.308329 0
1.5708 0.620647 0
1.76715 0.620647 0
1.76715 0.308329 0
1.9635 0.308329 0
1.76715 0.620647 0
1.9635 0.620647 0
1.9635 0 0
2.15984 0 0
1.9635 0.308329 0
2.15984 0.308329 0
2.15984 0 0
2.35619 0 0
2.15984 0.308329 0
2.35619 0.308329 0
1.9635 0.308329 0
2.15984 0.308329 0
1.9635 0.620647 0
2.15984 0.620647 0
2.15984 0.308329 0
2.35619 0.308329 0
2.15984 0.620647 0
2.35619 0.620647 0
1.5708 0.620647 0
1.76715 0.620647 0
1.5708 0.933282 0
1.76715 0.933282 0
1.76715 0.620647 0
1.9635 0.620647 0
1.76715 0.933282 0
1.9635 0.933282 0
1.5708 0.933282 0
1.76715 0.933282 0
1.5708 1.24597 0
1.76715 1.24597 0
1.76715 0.933282 0
1.9635 0.933282 0
1.76715 1.24597 0
1.9635 1.24597 0
1.9635 0.620647 0
2.15984 0.620647 0
1.9635 0.933282 0
2.15984 0.933282 0
2.15984 0.620647 0
2.35619 0.620647 0
2.15984 0.933282 0
2.35619 0.933282 0
1.9635 0.933282 0
2.15984 0.933282 0
1.9635 1.24597 0
2.15984 1.24597 0
2.15984 0.933282 0
2.35619 0.933282 0
2.15984 1.24597 0
2.35619 1.24597 0
2.35619 0 0
2.55254 0 0
2.35619 0.308329 0
2.55254 0.308329 0
2.55254 0 0
2.74889 0 0
2.55254 0.308329 0
2.74889 0.308329 0
2.35619 0.308329 0
2.55254 0.308329 0
2.35619 0.620647 0
2.55254 0.620647 0
2.55254 0.308329 0
2.74889 0.308329 0
2.55254 0.620647 0
2.74889 0.620647 0
2.74889 0 0
2.94524 0 0
2.74889 0.308329 0
2.94524 0.308329 0
2.94524 0 0
3.14159 0 0
2.94524 0.308329 0
3.14159 0.308329 0
2.74889 0.308329 0
2.94524 0.308329 0
2.74889 0.620647 0
2.94524 0.620647 0
2.94524 0.308329 0
3.14159 0.308329 0
2.94524 0.620647 0
3.14159 0.620647 0
2.35619 0.620647 0
2.55254 0.620647 0
2.35619 0.933282 0
2.55254 0.933282 0
2.55254 0.620647 0
2.74889 0.620647 0
2.55254 0.933282 0
2.74889 0.933282 0
2.35619 0.933282 0
2.55254 0.933282 0
2.35619 1.24597 0
2.55254 1.24597 0
2.55254 0.933282 0
2.74889 0.933282 0
2.55254 1.24597 0
2.74889 1.24597 0
2.74889 0.620647 0
2.94524 0.620647 0
2.74889 0.933282 0
2.94524 0.933282 0
2.94524 0.620647 0
3.14159 0.620647 0
2.94524 0.933282 0
3.14159 0.933282 0
2.74889 0.933282 0
2.94524 0.933282 0
2.74889 1.24597 0
2.94524 1.24597 0
2.94524 0.933282 0
3.14159 0.933282 0
2.94524 1.24597 0
3.14159 1.24597 0
1.5708 1.24597 0
1.76715 1.24597 0
1.5708 1.55866 0
1.76715 1.55866 0
1.76715 1.24597 0
1.9635 1.24597 0
1.76715 1.55866 0
1.9635 1.55866 0
1.5708 1.55866 0
1.76715 1.55866 0
1.5708 1.87134 0
1.76715 1.87134 0
1.76715 1.55866 0
1.9635 1.55866 0
1.76715 1.87134 0
1.9635 1.87134 0
1.9635 1.24597 0
2.15984 1.24597 0
1.9635 1.55866 0
2.15984 1.55866 0
2.15984 1.24597 0
2.35619 1.24597 0
2.15984 1.55866 0
2.35619 1.55866 0
1.9635 1.55866 0
2.15984 1.55866 0
1.9635 1.87134 0
2.15984 1.87134 0
2.15984 1.55866 0
2.35619 1.55866 0
2.15984 1.87134 0
2.35619 1.87134 0
1.5708 1.87134 0
1.76715 1.87134 0
1.5708 2.18401 0
1.76715 2.18401 0
1.76715 1.87134 0
1.9635 1.87134 0
1.76715 2.18401 0
1.9635 2.18401 0
1.5708 2.18401 0
1.76715 2.18401 0
1.5708 2.49668 0
1.76715 2.49668 0
1.76715 2.18401 0
1.9635 2.18401 0
1.76715 2.49668 0
1.9635 2.49668 0
1.9635 1.87134 0
2.15984 1.87134 0
1.9635 2.18401 0
2.15984 2.18401 0
2.15984 1.87134 0
2.35619 1.87134 0
2.15984 2.18401 0
2.35619 2.18401 0
1.9635 2.18401 0
2.15984 2.18401 0
1.9635 2.49668 0
2.15984 2.49668 0
2.15984 2.18401 0
2.35619 2.18401 0
2.15984 2.49668 0
2.35619 2.49668 0
2.35619 1.24597 0
2.55254 1.24597 0
2.35619 1.55866 0
2.55254 1.55866 0
2.55254 1.24597 0
2.74889 1.24597 0
2.55254 1.55866 0
2.74889 1.55866 0
2.35619 1.55866 0
2.55254 1.55866 0
2.35619 1.87134 0
2.55254 1.87134 0
2.55254 1.55866 0
2.74889 1.55866 0
2.55254 1.87134 0
2.74889 1.87134 0
2.74889 1.24597 0
2.94524 1.24597 0
2.74889 1.55866 0
2.94524 1.55866 0
2.94524 1.24597 0
3.14159 1.24597 0
2.94524 1.55866 0
3.14159 1.55866 0
2.74889 1.55866 0
2.94524 1.55866 0
2.74889 1.87134 0
2.94524 1.87134 0
2.94524 1.55866 0
3.14159 1.55866 0
2.94524 1.87134 0
3.14159 1.87134 0
2.35619 1.87134 0
2.55254 1.87134 0
2.35619 2.18401 0
2.55254 2.18401 0
2.55254 1.87134 0
2.74889 1.87134 0
2.55254 2.18401 0
2.74889 2.18401 0
2.35619 2.18401 0
2.55254 2.18401 0
2.35619 2.49668 0
2.55254 2.49668 0
2.55254 2.18401 0
2.74889 2.18401 0
2.55254 2.49668 0
2.74889 2.49668 0
2.74889 1.87134 0
2.94524 1.87134 0
2.74889 2.18401 0
2.94524 2.18401 0
2.94524 1.87134 0
3.14159 1.87134 0
2.94524 2.18401 0
3.14159 2.18401 0
2.74889 2.18401 0
2.94524 2.18401 0
2.74889 2.49668 0
2.94524 2.49668 0
2.94524 2.18401 0
3.14159 2.18401 0
2.94524 2.49668 0
3.14159 2.49668 0
0 2.49668 0
0.19635 2.49668 0
0 2.80935 0
0.19635 2.80935 0
0.19635 2.49668 0
0.392699 2.49668 0
0.19635 2.80935 0
0.392699 2.80935 0
0 2.80935 0
0.19635 2.80935 0
0 3.12201 0
0.19635 3.12201 0
0.19635 2.80935 0
0.392699 2.80935 0
0.19635 3.12201 0
0.392699 3.12201 0
0.392699 2.49668 0
0.589049 2.49668 0
0.392699 2.80935 0
0.589049 2.80935 0
0.589049 2.49668 0
0.785398 2.49668 0
0.589049 2.80935 0
0.785398 2.80935 0
0.392699 2.80935 0
0.589049 2.80935 0
0.392699 3.12201 0
0.589049 3.12201 0
0.589049 2.80935 0
0.785398 2.80935 0
0.589049 3.12201 0
0.785398 3.12201 0
0 3.12201 0
0.19635 3.12201 0
0 3.43467 0
0.19635 3.43467 0
0.19635 3.12201 0
0.392699 3.12201 0
0.19635 3.43467 0
[...]
POINT_DATA 20480
VECTORS uf double
0 1 0
-1.73303e-13 1 0
0 1.39498 0
2.97167e-13 1.39498 0
-1.73303e-13 1 0
-4.2102e-14 1 0
2.97167e-13 1.39498 0
-3.56813e-14 1.39498 0
0 1.39498 0
2.7799e-13 1.39498 0
0 1.36811 0
-1.76285e-13 1.36811 0
2.7799e-13 1.39498 0
-3.28352e-13 1.39498 0
-1.76285e-13 1.36811 0
4.32306e-13 1.36811 0
-4.2102e-14 1 0
-9.30142e-15 1 0
-3.56813e-14 1.39498 0
-3.26105e-16 1.39498 0
-9.30142e-15 1 0
-6.33855e-14 1 0
-3.26105e-16 1.39498 0
5.77836e-14 1.39498 0
-3.28352e-13 1.39498 0
-2.31039e-13 1.39498 0
4.32306e-13 1.36811 0
2.68702e-13 1.36811 0
-2.31039e-13 1.39498 0
5.35661e-13 1.39498 0
2.68702e-13 1.36811 0
2.56135e-14 1.36811 0
0 1.36811 0
-1.38451e-13 1.36811 0
0 1.35411 0
8.12007e-15 1.35411 0
-1.38451e-13 1.36811 0
4.20025e-13 1.36811 0
8.12007e-15 1.35411 0
-2.97739e-13 1.35411 0
0 1.35411 0
-4.46608e-14 1.35411 0
0 1.33693 0
-2.79276e-14 1.33693 0
-4.46608e-14 1.35411 0
-1.86229e-13 1.35411 0
-2.79276e-14 1.33693 0
2.66164e-13 1.33693 0
4.20025e-13 1.36811 0
2.68626e-13 1.36811 0
-2.97739e-13 1.35411 0
-2.07227e-13 1.35411 0
2.68626e-13 1.36811 0
7.96813e-14 1.36811 0
-2.07227e-13 1.35411 0
2.19416e-13 1.35411 0
-1.86229e-13 1.35411 0
1.60408e-13 1.35411 0
2.66164e-13 1.33693 0
-2.89413e-13 1.33693 0
1.60408e-13 1.35411 0
3.50598e-13 1.35411 0
-2.89413e-13 1.33693 0
-9.82236e-14 1.33693 0
-6.33855e-14 1 0
-3.21224e-13 1 0
5.77836e-14 1.39498 0
5.72522e-13 1.39498 0
-3.21224e-13 1 0
5.44637e-15 1 0
5.72522e-13 1.39498 0
-4.0269e-14 1.39498 0
5.35661e-13 1.39498 0
2.01962e-14 1.39498 0
2.56135e-14 1.36811 0
-1.79597e-13 1.36811 0
2.01962e-14 1.39498 0
6.53072e-13 1.39498 0
-1.79597e-13 1.36811 0
-4.78546e-13 1.36811 0
5.44637e-15 1 0
7.58803e-13 1 0
-4.0269e-14 1.39498 0
-1.15179e-12 1.39498 0
7.58803e-13 1 0
4.26805e-13 1 0
-1.15179e-12 1.39498 0
-8.46169e-13 1.39498 0
6.53072e-13 1.39498 0
-1.50422e-12 1.39498 0
-4.78546e-13 1.36811 0
3.57146e-13 1.36811 0
-1.50422e-12 1.39498 0
-3.60004e-13 1.39498 0
3.57146e-13 1.36811 0
2.10761e-13 1.36811 0
7.96813e-14 1.36811 0
-2.54555e-13 1.36811 0
2.19416e-13 1.35411 0
4.50005e-14 1.35411 0
-2.54555e-13 1.36811 0
-5.48984e-13 1.36811 0
4.50005e-14 1.35411 0
8.50268e-14 1.35411 0
3.50598e-13 1.35411 0
-1.18221e-13 1.35411 0
-9.82236e-14 1.33693 0
2.57366e-16 1.33693 0
-1.18221e-13 1.35411 0
-2.80393e-13 1.35411 0
2.57366e-16 1.33693 0
1.57065e-13 1.33693 0
-5.48984e-13 1.36811 0
-7.14298e-14 1.36811 0
8.50268e-14 1.35411 0
2.38506e-14 1.35411 0
-7.14298e-14 1.36811 0
-1.23444e-13 1.36811 0
2.38506e-14 1.35411 0
-2.91475e-13 1.35411 0
-2.80393e-13 1.35411 0
-1.30791e-13 1.35411 0
1.57065e-13 1.33693 0
4.81059e-14 1.33693 0
-1.30791e-13 1.35411 0
5.52295e-14 1.35411 0
4.81059e-14 1.33693 0
-2.6173e-13 1.33693 0
0 1.33693 0
-1.70293e-14 1.33693 0
0 1.32141 0
4.89108e-14 1.32141 0
-1.70293e-14 1.33693 0
4.31623e-13 1.33693 0
4.89108e-14 1.32141 0
-3.37229e-13 1.32141 0
0 1.32141 0
9.21892e-14 1.32141 0
0 1.30629 0
-7.21322e-14 1.30629 0
9.21892e-14 1.32141 0
-1.84023e-13 1.32141 0
-7.21322e-14 1.30629 0
-5.31283e-14 1.30629 0
4.31623e-13 1.33693 0
-2.65693e-13 1.33693 0
-3.37229e-13 1.32141 0
1.47016e-13 1.32141 0
-2.65693e-13 1.33693 0
-1.42427e-13 1.33693 0
1.47016e-13 1.32141 0
2.41674e-13 1.32141 0
-1.84023e-13 1.32141 0
4.7021e-14 1.32141 0
-5.31283e-14 1.30629 0
-1.48413e-13 1.30629 0
4.7021e-14 1.32141 0
1.23729e-13 1.32141 0
-1.48413e-13 1.30629 0
1.28612e-13 1.30629 0
0 1.30629 0
-6.52128e-14 1.30629 0
0 1.2919 0
-1.90479e-13 1.2919 0
-6.52128e-14 1.30629 0
-2.26656e-13 1.30629 0
-1.90479e-13 1.2919 0
2.11219e-13 1.2919 0
0 1.2919 0
-2.7633e-13 1.2919 0
0 1.27811 0
2.6235e-13 1.27811 0
-2.7633e-13 1.2919 0
2.48465e-13 1.2919 0
2.6235e-13 1.27811 0
-1.17044e-13 1.27811 0
-2.26656e-13 1.30629 0
-6.57192e-14 1.30629 0
2.11219e-13 1.2919 0
6.41681e-14 1.2919 0
-6.57192e-14 1.30629 0
2.79188e-13 1.30629 0
6.41681e-14 1.2919 0
-2.54419e-13 1.2919 0
2.48465e-13 1.2919 0
6.22151e-14 1.2919 0
-1.17044e-13 1.27811 0
-1.80393e-13 1.27811 0
6.22151e-14 1.2919 0
-2.77766e-13 1.2919 0
-1.80393e-13 1.27811 0
3.0602e-13 1.27811 0
-1.42427e-13 1.33693 0
2.71455e-14 1.33693 0
2.41674e-13 1.32141 0
-1.54694e-13 1.32141 0
2.71455e-14 1.33693 0
5.52503e-14 1.33693 0
-1.54694e-13 1.32141 0
-1.3952e-13 1.32141 0
1.23729e-13 1.32141 0
-2.7394e-13 1.32141 0
1.28612e-13 1.30629 0
9.3622e-14 1.30629 0
-2.7394e-13 1.32141 0
1.733e-14 1.32141 0
9.3622e-14 1.30629 0
-8.44035e-14 1.30629 0
5.52503e-14 1.33693 0
-2.24623e-13 1.33693 0
-1.3952e-13 1.32141 0
4.27994e-14 1.32141 0
-2.24623e-13 1.33693 0
-3.07315e-13 1.33693 0
4.27994e-14 1.32141 0
6.0727e-14 1.32141 0
1.733e-14 1.32141 0
-3.17975e-14 1.32141 0
-8.44035e-14 1.30629 0
1.29517e-13 1.30629 0
-3.17975e-14 1.32141 0
5.81934e-14 1.32141 0
1.29517e-13 1.30629 0
-3.41506e-13 1.30629 0
2.79188e-13 1.30629 0
1.44969e-13 1.30629 0
-2.54419e-13 1.2919 0
-1.69575e-13 1.2919 0
1.44969e-13 1.30629 0
-2.11454e-13 1.30629 0
-1.69575e-13 1.2919 0
1.2158e-14 1.2919 0
-2.77766e-13 1.2919 0
-1.76479e-13 1.2919 0
3.0602e-13 1.27811 0
9.41632e-14 1.27811 0
-1.76479e-13 1.2919 0
2.45099e-14 1.2919 0
9.41632e-14 1.27811 0
-3.22421e-13 1.27811 0
-2.11454e-13 1.30629 0
-3.74316e-13 1.30629 0
1.2158e-14 1.2919 0
3.32376e-13 1.2919 0
-3.74316e-13 1.30629 0
1.89764e-14 1.30629 0
3.32376e-13 1.2919 0
-3.29626e-14 1.2919 0
2.45099e-14 1.2919 0
-3.59816e-14 1.2919 0
-3.22421e-13 1.27811 0
-1.41892e-13 1.27811 0
-3.59816e-14 1.2919 0
2.1755e-13 1.2919 0
-1.41892e-13 1.27811 0
-6.47954e-14 1.27811 0
4.26805e-13 1 0
-3.61722e-13 1 0
-8.46169e-13 1.39498 0
4.98569e-13 1.39498 0
-3.61722e-13 1 0
-3.60947e-13 1 0
4.98569e-13 1.39498 0
1.91996e-13 1.39498 0
-3.60004e-13 1.39498 0
6.51032e-13 1.39498 0
2.10761e-13 1.36811 0
-5.384e-13 1.36811 0
6.51032e-13 1.39498 0
3.84977e-13 1.39498 0
-5.384e-13 1.36811 0
-2.35863e-13 1.36811 0
-3.60947e-13 1 0
-3.80839e-13 1 0
1.91996e-13 1.39498 0
3.05363e-13 1.39498 0
-3.80839e-13 1 0
3.22272e-13 1 0
3.05363e-13 1.39498 0
-1.92586e-13 1.39498 0
3.84977e-13 1.39498 0
-3.1684e-13 1.39498 0
-2.35863e-13 1.36811 0
1.10179e-13 1.36811 0
-3.1684e-13 1.39498 0
1.17633e-13 1.39498 0
1.10179e-13 1.36811 0
-1.82832e-13 1.36811 0
-1.23444e-13 1.36811 0
-1.00034e-13 1.36811 0
-2.91475e-13 1.35411 0
7.58607e-14 1.35411 0
-1.00034e-13 1.36811 0
-2.79676e-13 1.36811 0
7.58607e-14 1.35411 0
1.29822e-13 1.35411 0
5.52295e-14 1.35411 0
-5.66157e-14 1.35411 0
-2.6173e-13 1.33693 0
3.34821e-14 1.33693 0
-5.66157e-14 1.35411 0
1.36759e-13 1.35411 0
3.34821e-14 1.33693 0
-3.86978e-13 1.33693 0
-2.79676e-13 1.36811 0
3.5066e-13 1.36811 0
1.29822e-13 1.35411 0
-2.15239e-13 1.35411 0
3.5066e-13 1.36811 0
-3.10631e-13 1.36811 0
-2.15239e-13 1.35411 0
5.63965e-14 1.35411 0
1.36759e-13 1.35411 0
-5.19347e-13 1.35411 0
-3.86978e-13 1.33693 0
5.16445e-13 1.33693 0
-5.19347e-13 1.35411 0
-3.99781e-13 1.35411 0
5.16445e-13 1.33693 0
3.24736e-13 1.33693 0
3.22272e-13 1 0
3.33553e-14 1 0
-1.92586e-13 1.39498 0
-1.18093e-13 1.39498 0
3.33553e-14 1 0
-1.45642e-13 1 0
-1.18093e-13 1.39498 0
-6.76792e-14 1.39498 0
1.17633e-13 1.39498 0
-1.54015e-13 1.39498 0
-1.82832e-13 1.36811 0
1.08996e-13 1.36811 0
-1.54015e-13 1.39498 0
-3.49673e-13 1.39498 0
1.08996e-13 1.36811 0
1.21773e-13 1.36811 0
-1.45642e-13 1 0
-2.50339e-13 1 0
-6.76792e-14 1.39498 0
1.85237e-13 1.39498 0
-2.50339e-13 1 0
1.50755e-13 1 0
1.85237e-13 1.39498 0
-2.87544e-13 1.39498 0
-3.49673e-13 1.39498 0
1.22702e-13 1.39498 0
1.21773e-13 1.36811 0
-8.71021e-14 1.36811 0
1.22702e-13 1.39498 0
1.71832e-13 1.39498 0
-8.71021e-14 1.36811 0
-1.17696e-13 1.36811 0
-3.10631e-13 1.36811 0
-9.59605e-14 1.36811 0
5.63965e-14 1.35411 0
-5.49158e-15 1.35411 0
-9.59605e-14 1.36811 0
-3.20936e-13 1.36811 0
-5.49158e-15 1.35411 0
3.02115e-13 1.35411 0
-3.99781e-13 1.35411 0
6.43911e-13 1.35411 0
3.24736e-13 1.33693 0
-7.08709e-13 1.33693 0
6.43911e-13 1.35411 0
5.20882e-14 1.35411 0
-7.08709e-13 1.33693 0
3.14774e-14 1.33693 0
-3.20936e-13 1.36811 0
5.00577e-14 1.36811 0
3.02115e-13 1.35411 0
-1.8371e-13 1.35411 0
5.00577e-14 1.36811 0
1.2594e-13 1.36811 0
-1.8371e-13 1.35411 0
-2.54688e-13 1.35411 0
5.20882e-14 1.35411 0
-4.26657e-13 1.35411 0
3.14774e-14 1.33693 0
-1.85104e-13 1.33693 0
-4.26657e-13 1.35411 0
-7.21961e-15 1.35411 0
-1.85104e-13 1.33693 0
1.55965e-13 1.33693 0
-3.07315e-13 1.33693 0
2.83858e-13 1.33693 0
6.0727e-14 1.32141 0
-5.01964e-13 1.32141 0
2.83858e-13 1.33693 0
-2.64382e-13 1.33693 0
-5.01964e-13 1.32141 0
3.49039e-13 1.32141 0
5.81934e-14 1.32141 0
-1.37293e-13 1.32141 0
-3.41506e-13 1.30629 0
3.05503e-13 1.30629 0
-1.37293e-13 1.32141 0
3.99286e-14 1.32141 0
3.05503e-13 1.30629 0
-2.01183e-13 1.30629 0
-2.64382e-13 1.33693 0
-8.41315e-14 1.33693 0
3.49039e-13 1.32141 0
-2.4673e-13 1.32141 0
-8.41315e-14 1.33693 0
7.45556e-15 1.33693 0
-2.4673e-13 1.32141 0
-1.96134e-13 1.32141 0
3.99286e-14 1.32141 0
-1.39099e-14 1.32141 0
-2.01183e-13 1.30629 0
-1.50139e-13 1.30629 0
-1.39099e-14 1.32141 0
-3.28472e-13 1.32141 0
-1.50139e-13 1.30629 0
1.01414e-13 1.30629 0
1.89764e-14 1.30629 0
1.24524e-13 1.30629 0
-3.29626e-14 1.2919 0
-7.39833e-14 1.2919 0
1.24524e-13 1.30629 0
-6.68586e-14 1.30629 0
-7.39833e-14 1.2919 0
-1.31685e-13 1.2919 0
2.1755e-13 1.2919 0
-1.74e-14 1.2919 0
-6.47954e-14 1.27811 0
4.17926e-14 1.27811 0
-1.74e-14 1.2919 0
3.8194e-14 1.2919 0
4.17926e-14 1.27811 0
-4.46353e-14 1.27811 0
-6.68586e-14 1.30629 0
-1.2099e-13 1.30629 0
-1.31685e-13 1.2919 0
1.44822e-13 1.2919 0
-1.2099e-13 1.30629 0
3.13136e-13 1.30629 0
1.44822e-13 1.2919 0
-2.97591e-13 1.2919 0
3.8194e-14 1.2919 0
-8.41835e-14 1.2919 0
-4.46353e-14 1.27811 0
-1.19432e-13 1.27811 0
-8.41835e-14 1.2919 0
1.40266e-13 1.2919 0
-1.19432e-13 1.27811 0
-1.35341e-13 1.27811 0
7.45556e-15 1.33693 0
1.7687e-13 1.33693 0
-1.96134e-13 1.32141 0
1.10023e-13 1.32141 0
1.7687e-13 1.33693 0
-4.93676e-13 1.33693 0
1.10023e-13 1.32141 0
4.33965e-14 1.32141 0
-3.28472e-13 1.32141 0
-1.04541e-13 1.32141 0
1.01414e-13 1.30629 0
4.77721e-14 1.30629 0
-1.04541e-13 1.32141 0
-1.82784e-13 1.32141 0
4.77721e-14 1.30629 0
3.96245e-14 1.30629 0
-4.93676e-13 1.33693 0
3.49305e-13 1.33693 0
4.33965e-14 1.32141 0
-4.19341e-13 1.32141 0
3.49305e-13 1.33693 0
-5.48047e-13 1.33693 0
-4.19341e-13 1.32141 0
3.52353e-13 1.32141 0
-1.82784e-13 1.32141 0
-5.34231e-14 1.32141 0
3.96245e-14 1.30629 0
1.35279e-13 1.30629 0
-5.34231e-14 1.32141 0
8.98362e-15 1.32141 0
1.35279e-13 1.30629 0
-1.61414e-13 1.30629 0
3.13136e-13 1.30629 0
-6.36534e-13 1.30629 0
-2.97591e-13 1.2919 0
7.72864e-13 1.2919 0
-6.36534e-13 1.30629 0
7.95218e-14 1.30629 0
7.72864e-13 1.2919 0
-2.42849e-13 1.2919 0
1.40266e-13 1.2919 0
-4.16928e-13 1.2919 0
-1.35341e-13 1.27811 0
-1.76209e-14 1.27811 0
-4.16928e-13 1.2919 0
-5.46561e-14 1.2919 0
-1.76209e-14 1.27811 0
5.16763e-14 1.27811 0
7.95218e-14 1.30629 0
2.6008e-13 1.30629 0
-2.42849e-13 1.2919 0
-4.82947e-13 1.2919 0
2.6008e-13 1.30629 0
-1.14378e-13 1.30629 0
-4.82947e-13 1.2919 0
1.03349e-13 1.2919 0
-5.46561e-14 1.2919 0
-5.83014e-14 1.2919 0
5.16763e-14 1.27811 0
9.09763e-14 1.27811 0
-5.83014e-14 1.2919 0
3.44562e-13 1.2919 0
9.09763e-14 1.27811 0
-2.70798e-13 1.27811 0
0 1.27811 0
2.77808e-14 1.27811 0
0 1.26492 0
8.67656e-14 1.26492 0
2.77808e-14 1.27811 0
9.08223e-14 1.27811 0
8.67656e-14 1.26492 0
-3.13826e-13 1.26492 0
0 1.26492 0
1.95735e-13 1.26492 0
0 1.25229 0
-2.2186e-13 1.25229 0
1.95735e-13 1.26492 0
-4.27207e-13 1.26492 0
-2.2186e-13 1.25229 0
2.663e-13 1.25229 0
9.08223e-14 1.27811 0
-4.07606e-13 1.27811 0
-3.13826e-13 1.26492 0
4.18557e-13 1.26492 0
-4.07606e-13 1.27811 0
2.92066e-13 1.27811 0
4.18557e-13 1.26492 0
-1.45804e-13 1.26492 0
-4.27207e-13 1.26492 0
4.24355e-13 1.26492 0
2.663e-13 1.25229 0
-3.11589e-13 1.25229 0
4.24355e-13 1.26492 0
-6.2439e-14 1.26492 0
-3.11589e-13 1.25229 0
3.57924e-14 1.25229 0
0 1.25229 0
-1.70542e-14 1.25229 0
0 1.24021 0
2.90157e-14 1.24021 0
-1.70542e-14 1.25229 0
2.20676e-13 1.25229 0
2.90157e-14 1.24021 0
-6.65773e-14 1.24021 0
0 1.24021 0
-1.3838e-14 1.24021 0
0 1.22865 0
-6.978e-14 1.22865 0
-1.3838e-14 1.24021 0
2.94907e-14 1.24021 0
-6.978e-14 1.22865 0
-1.06654e-13 1.22865 0
2.20676e-13 1.25229 0
-2.48611e-13 1.25229 0
-6.65773e-14 1.24021 0
1.26576e-13 1.24021 0
-2.48611e-13 1.25229 0
-1.01929e-13 1.25229 0
1.26576e-13 1.24021 0
-6.97636e-15 1.24021 0
2.94907e-14 1.24021 0
-9.19896e-14 1.24021 0
-1.06654e-13 1.22865 0
1.44604e-13 1.22865 0
-9.19896e-14 1.24021 0
1.55572e-14 1.24021 0
1.44604e-13 1.22865 0
2.3422e-16 1.22865 0
2.92066e-13 1.27811 0
4.96906e-14 1.27811 0
-1.45804e-13 1.26492 0
-1.79576e-13 1.26492 0
4.96906e-14 1.27811 0
-3.94901e-13 1.27811 0
-1.79576e-13 1.26492 0
3.80515e-13 1.26492 0
-6.2439e-14 1.26492 0
-2.54169e-13 1.26492 0
3.57924e-14 1.25229 0
2.69095e-13 1.25229 0
-2.54169e-13 1.26492 0
9.8984e-14 1.26492 0
2.69095e-13 1.25229 0
-8.9093e-14 1.25229 0
-3.94901e-13 1.27811 0
-5.23857e-14 1.27811 0
3.80515e-13 1.26492 0
-1.5982e-13 1.26492 0
-5.23857e-14 1.27811 0
6.8442e-14 1.27811 0
-1.5982e-13 1.26492 0
1.50357e-14 1.26492 0
9.8984e-14 1.26492 0
-6.18707e-14 1.26492 0
-8.9093e-14 1.25229 0
6.76736e-14 1.25229 0
-6.18707e-14 1.26492 0
4.48785e-14 1.26492 0
6.76736e-14 1.25229 0
-2.19034e-13 1.25229 0
-1.01929e-13 1.25229 0
2.07676e-13 1.25229 0
-6.97636e-15 1.24021 0
-2.1013e-13 1.24021 0
2.07676e-13 1.25229 0
-1.61444e-14 1.25229 0
-2.1013e-13 1.24021 0
-8.09205e-15 1.24021 0
1.55572e-14 1.24021 0
-1.95744e-13 1.24021 0
2.3422e-16 1.22865 0
3.86033e-14 1.22865 0
-1.95744e-13 1.24021 0
1.35353e-13 1.24021 0
3.86033e-14 1.22865 0
-1.99344e-13 1.22865 0
-1.61444e-14 1.25229 0
1.28171e-13 1.25229 0
-8.09205e-15 1.24021 0
-1.06688e-13 1.24021 0
1.28171e-13 1.25229 0
-6.02425e-14 1.25229 0
-1.06688e-13 1.24021 0
-1.93163e-13 1.24021 0
1.35353e-13 1.24021 0
-2.89894e-14 1.24021 0
-1.99344e-13 1.22865 0
1.29803e-14 1.22865 0
-2.89894e-14 1.24021 0
-2.89879e-13 1.24021 0
1.29803e-14 1.22865 0
2.37262e-13 1.22865 0
0 1.22865 0
-1.46671e-13 1.22865 0
0 1.21759 0
1.40984e-14 1.21759 0
-1.46671e-13 1.22865 0
-2.95425e-13 1.22865 0
1.40984e-14 1.21759 0
1.76239e-13 1.21759 0
0 1.21759 0
-1.20788e-13 1.21759 0
0 1.207 0
2.19893e-13 1.207 0
-1.20788e-13 1.21759 0
2.82193e-13 1.21759 0
2.19893e-13 1.207 0
-4.00112e-14 1.207 0
-2.95425e-13 1.22865 0
2.01019e-13 1.22865 0
1.76239e-13 1.21759 0
-3.75083e-13 1.21759 0
2.01019e-13 1.22865 0
-5.74408e-14 1.22865 0
-3.75083e-13 1.21759 0
4.40898e-14 1.21759 0
2.82193e-13 1.21759 0
-2.64638e-13 1.21759 0
-4.00112e-14 1.207 0
7.12983e-14 1.207 0
-2.64638e-13 1.21759 0
1.55634e-13 1.21759 0
7.12983e-14 1.207 0
-7.69112e-14 1.207 0
0 1.207 0
2.42666e-13 1.207 0
0 1.19687 0
-8.69829e-14 1.19687 0
2.42666e-13 1.207 0
8.39566e-14 1.207 0
-8.69829e-14 1.19687 0
-1.92545e-13 1.19687 0
0 1.19687 0
-8.43363e-14 1.19687 0
0 1.18719 0
2.52955e-15 1.18719 0
-8.43363e-14 1.19687 0
-1.85698e-13 1.19687 0
2.52955e-15 1.18719 0
1.77841e-13 1.18719 0
8.39566e-14 1.207 0
-1.46426e-13 1.207 0
-1.92545e-13 1.19687 0
2.32919e-13 1.19687 0
-1.46426e-13 1.207 0
-3.13368e-14 1.207 0
2.32919e-13 1.19687 0
5.58804e-14 1.19687 0
-1.85698e-13 1.19687 0
2.30978e-13 1.19687 0
1.77841e-13 1.18719 0
-2.0416e-13 1.18719 0
2.30978e-13 1.19687 0
-7.27228e-14 1.19687 0
-2.0416e-13 1.18719 0
-1.37573e-13 1.18719 0
-5.74408e-14 1.22865 0
4.67306e-14 1.22865 0
4.40898e-14 1.21759 0
9.91727e-15 1.21759 0
4.67306e-14 1.22865 0
-1.42849e-13 1.22865 0
9.91727e-15 1.21759 0
3.05689e-13 1.21759 0
1.55634e-13 1.21759 0
-2.37604e-14 1.21759 0
-7.69112e-14 1.207 0
4.1067e-14 1.207 0
-2.37604e-14 1.21759 0
1.69702e-13 1.21759 0
4.1067e-14 1.207 0
-1.85392e-13 1.207 0
-1.42849e-13 1.22865 0
9.78438e-14 1.22865 0
3.05689e-13 1.21759 0
-3.51302e-13 1.21759 0
9.78438e-14 1.22865 0
-5.31489e-14 1.22865 0
-3.51302e-13 1.21759 0
-1.91513e-13 1.21759 0
1.69702e-13 1.21759 0
-1.37122e-13 1.21759 0
-1.85392e-13 1.207 0
1.10783e-13 1.207 0
-1.37122e-13 1.21759 0
-8.77641e-14 1.21759 0
1.10783e-13 1.207 0
2.1289e-13 1.207 0
-3.13368e-14 1.207 0
7.70701e-14 1.207 0
5.58804e-14 1.19687 0
-1.15997e-13 1.19687 0
7.70701e-14 1.207 0
-1.97028e-13 1.207 0
-1.15997e-13 1.19687 0
7.97428e-14 1.19687 0
-7.27228e-14 1.19687 0
-4.66611e-14 1.19687 0
-1.37573e-13 1.18719 0
-1.91791e-13 1.18719 0
-4.66611e-14 1.19687 0
6.46545e-14 1.19687 0
-1.91791e-13 1.18719 0
-2.05955e-13 1.18719 0
-1.97028e-13 1.207 0
2.61327e-14 1.207 0
7.97428e-14 1.19687 0
-2.3127e-13 1.19687 0
2.61327e-14 1.207 0
3.73835e-13 1.207 0
-2.3127e-13 1.19687 0
-2.68335e-13 1.19687 0
6.46545e-14 1.19687 0
-1.39245e-13 1.19687 0
-2.05955e-13 1.18719 0
1.0723e-13 1.18719 0
-1.39245e-13 1.19687 0
-1.37747e-13 1.19687 0
1.0723e-13 1.18719 0
6.66391e-14 1.18719 0
6.8442e-14 1.27811 0
-5.45546e-14 1.27811 0
1.50357e-14 1.26492 0
-1.53608e-13 1.26492 0
-5.45546e-14 1.27811 0
9.26832e-14 1.27811 0
-1.53608e-13 1.26492 0
-2.918e-13 1.26492 0
4.48785e-14 1.26492 0
-5.71992e-14 1.26492 0
-2.19034e-13 1.25229 0
1.39878e-13 1.25229 0
-5.71992e-14 1.26492 0
-4.15386e-13 1.26492 0
1.39878e-13 1.25229 0
1.90694e-13 1.25229 0
9.26832e-14 1.27811 0
-2.72274e-13 1.27811 0
-2.918e-13 1.26492 0
1.87593e-14 1.26492 0
-2.72274e-13 1.27811 0
-2.6183e-13 1.27811 0
1.87593e-14 1.26492 0
2.13577e-13 1.26492 0
-4.15386e-13 1.26492 0
1.87745e-13 1.26492 0
1.90694e-13 1.25229 0
-2.91901e-13 1.25229 0
1.87745e-13 1.26492 0
7.94668e-14 1.26492 0
-2.91901e-13 1.25229 0
-2.34102e-13 1.25229 0
-6.02425e-14 1.25229 0
-9.18778e-14 1.25229 0
-1.93163e-13 1.24021 0
-8.73156e-14 1.24021 0
-9.18778e-14 1.25229 0
-2.18875e-13 1.25229 0
-8.73156e-14 1.24021 0
7.85346e-15 1.24021 0
-2.89879e-13 1.24021 0
-2.09218e-13 1.24021 0
2.37262e-13 1.22865 0
3.00404e-13 1.22865 0
-2.09218e-13 1.24021 0
2.38534e-13 1.24021 0
3.00404e-13 1.22865 0
-2.33848e-13 1.22865 0
-2.18875e-13 1.25229 0
-1.00849e-13 1.25229 0
7.85346e-15 1.24021 0
1.76654e-13 1.24021 0
-1.00849e-13 1.25229 0
6.55257e-14 1.25229 0
1.76654e-13 1.24021 0
-5.853e-16 1.24021 0
2.38534e-13 1.24021 0
8.07286e-14 1.24021 0
-2.33848e-13 1.22865 0
-2.01984e-13 1.22865 0
8.07286e-14 1.24021 0
-1.24608e-13 1.24021 0
-2.01984e-13 1.22865 0
-5.29502e-14 1.22865 0
-2.6183e-13 1.27811 0
2.01113e-13 1.27811 0
2.13577e-13 1.26492 0
-3.63268e-13 1.26492 0
2.01113e-13 1.27811 0
-1.56404e-13 1.27811 0
-3.63268e-13 1.26492 0
6.41466e-14 1.26492 0
7.94668e-14 1.26492 0
1.36621e-13 1.26492 0
-2.34102e-13 1.25229 0
-9.12406e-14 1.25229 0
1.36621e-13 1.26492 0
-5.06421e-13 1.26492 0
-9.12406e-14 1.25229 0
2.49746e-13 1.25229 0
-1.56404e-13 1.27811 0
-2.03607e-13 1.27811 0
6.41466e-14 1.26492 0
-3.45612e-14 1.26492 0
-2.03607e-13 1.27811 0
7.64095e-14 1.27811 0
-3.45612e-14 1.26492 0
-2.57948e-13 1.26492 0
-5.06421e-13 1.26492 0
-4.95837e-14 1.26492 0
2.49746e-13 1.25229 0
-7.87952e-14 1.25229 0
-4.95837e-14 1.26492 0
-2.41867e-15 1.26492 0
-7.87952e-14 1.25229 0
-1.54833e-13 1.25229 0
6.55257e-14 1.25229 0
-1.96623e-13 1.25229 0
-5.853e-16 1.24021 0
2.28442e-13 1.24021 0
-1.96623e-13 1.25229 0
3.68707e-13 1.25229 0
2.28442e-13 1.24021 0
-5.95302e-13 1.24021 0
-1.24608e-13 1.24021 0
-3.31324e-13 1.24021 0
-5.29502e-14 1.22865 0
2.05859e-13 1.22865 0
-3.31324e-13 1.24021 0
9.12592e-14 1.24021 0
2.05859e-13 1.22865 0
-3.00171e-14 1.22865 0
3.68707e-13 1.25229 0
-1.00292e-14 1.25229 0
-5.95302e-13 1.24021 0
9.97851e-14 1.24021 0
-1.00292e-14 1.25229 0
-4.1928e-13 1.25229 0
9.97851e-14 1.24021 0
1.20417e-13 1.24021 0
9.12592e-14 1.24021 0
9.72441e-14 1.24021 0
-3.00171e-14 1.22865 0
-4.96261e-13 1.22865 0
9.72441e-14 1.24021 0
-4.88172e-14 1.24021 0
-4.96261e-13 1.22865 0
1.27858e-13 1.22865 0
-5.31489e-14 1.22865 0
6.16563e-14 1.22865 0
-1.91513e-13 1.21759 0
1.04758e-13 1.21759 0
6.16563e-14 1.22865 0
-2.2854e-13 1.22865 0
1.04758e-13 1.21759 0
-6.20061e-14 1.21759 0
-8.77641e-14 1.21759 0
5.53344e-14 1.21759 0
2.1289e-13 1.207 0
-2.68617e-13 1.207 0
5.53344e-14 1.21759 0
-2.23405e-13 1.21759 0
-2.68617e-13 1.207 0
-6.82055e-14 1.207 0
-2.2854e-13 1.22865 0
-1.48269e-13 1.22865 0
-6.20061e-14 1.21759 0
5.89789e-14 1.21759 0
-1.48269e-13 1.22865 0
9.57221e-14 1.22865 0
5.89789e-14 1.21759 0