# vtk DataFile Version 3.0
#This file was generated by the deal.II library on 2018/10/16 at 0:58:54
ASCII
DATASET UNSTRUCTURED_GRID

POINTS 20480 double
0 0 0
0.19635 0 0
0 0.292151 0
0.19635 0.292151 0
0.19635 0 0
0.392699 0 0
0.19635 0.292151 0
0.392699 0.292151 0
0 0.292151 0
0.19635 0.292151 0
0 0.603548 0
0.19635 0.603548 0
0.19635 0.292151 0
0.392699 0.292151 0
0.19635 0.603548 0
0.392699 0.603548 0
0.392699 0 0
0.589049 0 0
0.392699 0.292151 0
0.589049 0.292151 0
0.589049 0 0
0.785398 0 0
0.589049 0.292151 0
0.785398 0.292151 0
0.392699 0.292151 0
0.589049 0.292151 0
0.392699 0.603548 0
0.589049 0.603548 0
0.589049 0.292151 0
0.785398 0.292151 0
0.589049 0.603548 0
0.785398 0.603548 0
0 0.603548 0
0.19635 0.603548 0
0 0.916538 0
0.19635 0.916538 0
0.19635 0.603548 0
0.392699 0.603548 0
0.19635 0.916538 0
0.392699 0.916538 0
0 0.916538 0
0.19635 0.916538 0
0 1.23009 0
0.19635 1.23009 0
0.19635 0.916538 0
0.392699 0.916538 0
0.19635 1.23009 0
0.392699 1.23009 0
0.392699 0.603548 0
0.589049 0.603548 0
0.392699 0.916538 0
0.589049 0.916538 0
0.589049 0.603548 0
0.785398 0.603548 0
0.589049 0.916538 0
0.785398 0.916538 0
0.392699 0.916538 0
0.589049 0.916538 0
0.392699 1.23009 0
0.589049 1.23009 0
0.589049 0.916538 0
0.785398 0.916538 0
0.589049 1.23009 0
0.785398 1.23009 0
0.785398 0 0
0.981748 0 0
0.785398 0.292151 0
0.981748 0.292151 0
0.981748 0 0
1.1781 0 0
0.981748 0.292151 0
1.1781 0.292151 0
0.785398 0.292151 0
0.981748 0.292151 0
0.785398 0.603548 0
0.981748 0.603548 0
0.981748 0.292151 0
1.1781 0.292151 0
0.981748 0.603548 0
1.1781 0.603548 0
1.1781 0 0
1.37445 0 0
1.1781 0.292151 0
1.37445 0.292151 0
1.37445 0 0
1.5708 0 0
1.37445 0.292151 0
1.5708 0.292151 0
1.1781 0.292151 0
1.37445 0.292151 0
1.1781 0.603548 0
1.37445 0.603548 0
1.37445 0.292151 0
1.5708 0.292151 0
1.37445 0.603548 0
1.5708 0.603548 0
0.785398 0.603548 0
0.981748 0.603548 0
0.785398 0.916538 0
0.981748 0.916538 0
0.981748 0.603548 0
1.1781 0.603548 0
0.981748 0.916538 0
1.1781 0.916538 0
0.785398 0.916538 0
0.981748 0.916538 0
0.785398 1.23009 0
0.981748 1.23009 0
0.981748 0.916538 0
1.1781 0.916538 0
0.981748 1.23009 0
1.1781 1.23009 0
1.1781 0.603548 0
1.37445 0.603548 0
1.1781 0.916538 0
1.37445 0.916538 0
1.37445 0.603548 0
1.5708 0.603548 0
1.37445 0.916538 0
1.5708 0.916538 0
1.1781 0.916538 0
1.37445 0.916538 0
1.1781 1.23009 0
1.37445 1.23009 0
1.37445 0.916538 0
1.5708 0.916538 0
1.37445 1.23009 0
1.5708 1.23009 0
0 1.23009 0
0.19635 1.23009 0
0 1.54356 0
0.19635 1.54356 0
0.19635 1.23009 0
0.392699 1.23009 0
0.19635 1.54356 0
0.392699 1.54356 0
0 1.54356 0
0.19635 1.54356 0
0 1.85702 0
0.19635 1.85702 0
0.19635 1.54356 0
0.392699 1.54356 0
0.19635 1.85702 0
0.392699 1.85702 0
0.392699 1.23009 0
0.589049 1.23009 0
0.392699 1.54356 0
0.589049 1.54356 0
0.589049 1.23009 0
0.785398 1.23009 0
0.589049 1.54356 0
0.785398 1.54356 0
0.392699 1.54356 0
0.589049 1.54356 0
0.392699 1.85702 0
0.589049 1.85702 0
0.589049 1.54356 0
0.785398 1.54356 0
0.589049 1.85702 0
0.785398 1.85702 0
0 1.85702 0
0.19635 1.85702 0
0 2.17045 0
0.19635 2.17045 0
0.19635 1.85702 0
0.392699 1.85702 0
0.19635 2.17045 0
0.392699 2.17045 0
0 2.17045 0
0.19635 2.17045 0
0 2.48384 0
0.19635 2.48384 0
0.19635 2.17045 0
0.392699 2.17045 0
0.19635 2.48384 0
0.392699 2.48384 0
0.392699 1.85702 0
0.589049 1.85702 0
0.392699 2.17045 0
0.589049 2.17045 0
0.589049 1.85702 0
0.785398 1.85702 0
0.589049 2.17045 0
0.785398 2.17045 0
0.392699 2.17045 0
0.589049 2.17045 0
0.392699 2.48384 0
0.589049 2.48384 0
0.589049 2.17045 0
0.785398 2.17045 0
0.589049 2.48384 0
0.785398 2.48384 0
0.785398 1.23009 0
0.981748 1.23009 0
0.785398 1.54356 0
0.981748 1.54356 0
0.981748 1.23009 0
1.1781 1.23009 0
0.981748 1.54356 0
1.1781 1.54356 0
0.785398 1.54356 0
0.981748 1.54356 0
0.785398 1.85702 0
0.981748 1.85702 0
0.981748 1.54356 0
1.1781 1.54356 0
0.981748 1.85702 0
1.1781 1.85702 0
1.1781 1.23009 0
1.37445 1.23009 0
1.1781 1.54356 0
1.37445 1.54356 0
1.37445 1.23009 0
1.5708 1.23009 0
1.37445 1.54356 0
1.5708 1.54356 0
1.1781 1.54356 0
1.37445 1.54356 0
1.1781 1.85702 0
1.37445 1.85702 0
1.37445 1.54356 0
1.5708 1.54356 0
1.37445 1.85702 0
1.5708 1.85702 0
0.785398 1.85702 0
0.981748 1.85702 0
0.785398 2.17045 0
0.981748 2.17045 0
0.981748 1.85702 0
1.1781 1.85702 0
0.981748 2.17045 0
1.1781 2.17045 0
0.785398 2.17045 0
0.981748 2.17045 0
0.785398 2.48384 0
0.981748 2.48384 0
0.981748 2.17045 0
1.1781 2.17045 0
0.981748 2.48384 0
1.1781 2.48384 0
1.1781 1.85702 0
1.37445 1.85702 0
1.1781 2.17045 0
1.37445 2.17045 0
1.37445 1.85702 0
1.5708 1.85702 0
1.37445 2.17045 0
1.5708 2.17045 0
1.1781 2.17045 0
1.37445 2.17045 0
1.1781 2.48384 0
1.37445 2.48384 0
1.37445 2.17045 0
1.5708 2.17045 0
1.37445 2.48384 0
1.5708 2.48384 0
1.5708 0 0
1.76715 0 0
1.5708 0.292151 0
1.76715 0.292151 0
1.76715 0 0
1.9635 0 0
1.76715 0.292151 0
1.9635 0.292151 0
1.5708 0.292151 0
1.76715 0.292151 0
1.5708 0.603548 0
1.76715 0.603548 0
1.76715 0.292151 0
1.9635 0.292151 0
1.76715 0.603548 0
1.9635 0.603548 0
1.9635 0 0
2.15984 0 0
1.9635 0.292151 0
2.15984 0.292151 0
2.15984 0 0
2.35619 0 0
2.15984 0.292151 0
2.35619 0.292151 0
1.9635 0.292151 0
2.15984 0.292151 0
1.9635 0.603548 0
2.15984 0.603548 0
2.15984 0.292151 0
2.35619 0.292151 0
2.15984 0.603548 0
2.35619 0.603548 0
1.5708 0.603548 0
1.76715 0.603548 0
1.5708 0.916538 0
1.76715 0.916538 0
1.76715 0.603548 0
1.9635 0.603548 0
1.76715 0.916538 0
1.9635 0.916538 0
1.5708 0.916538 0
1.76715 0.916538 0
1.5708 1.23009 0
1.76715 1.23009 0
1.76715 0.916538 0
1.9635 0.916538 0
1.76715 1.23009 0
1.9635 1.23009 0
1.9635 0.603548 0
2.15984 0.603548 0
1.9635 0.916538 0
2.15984 0.916538 0
2.15984 0.603548 0
2.35619 0.603548 0
2.15984 0.916538 0
2.35619 0.916538 0
1.9635 0.916538 0
2.15984 0.916538 0
1.9635 1.23009 0
2.15984 1.23009 0
2.15984 0.916538 0
2.35619 0.916538 0
2.15984 1.23009 0
2.35619 1.23009 0
2.35619 0 0
2.55254 0 0
2.35619 0.292151 0
2.55254 0.292151 0
2.55254 0 0
2.74889 0 0
2.55254 0.292151 0
2.74889 0.292151 0
2.35619 0.292151 0
2.55254 0.292151 0
2.35619 0.603548 0
2.55254 0.603548 0
2.55254 0.292151 0
2.74889 0.292151 0
2.55254 0.603548 0
2.74889 0.603548 0
2.74889 0 0
2.94524 0 0
2.74889 0.292151 0
2.94524 0.292151 0
2.94524 0 0
3.14159 0 0
2.94524 0.292151 0
3.14159 0.292151 0
2.74889 0.292151 0
2.94524 0.292151 0
2.74889 0.603548 0
2.94524 0.603548 0
2.94524 0.292151 0
3.14159 0.292151 0
2.94524 0.603548 0
3.14159 0.603548 0
2.35619 0.603548 0
2.55254 0.603548 0
2.35619 0.916538 0
2.55254 0.916538 0
2.55254 0.603548 0
2.74889 0.603548 0
2.55254 0.916538 0
2.74889 0.916538 0
2.35619 0.916538 0
2.55254 0.916538 0
2.35619 1.23009 0
2.55254 1.23009 0
2.55254 0.916538 0
2.74889 0.916538 0
2.55254 1.23009 0
2.74889 1.23009 0
2.74889 0.603548 0
2.94524 0.603548 0
2.74889 0.916538 0
2.94524 0.916538 0
2.94524 0.603548 0
3.14159 0.603548 0
2.94524 0.916538 0
3.14159 0.916538 0
2.74889 0.916538 0
2.94524 0.916538 0
2.74889 1.23009 0
2.94524 1.23009 0
2.94524 0.916538 0
3.14159 0.916538 0
2.94524 1.23009 0
3.14159 1.23009 0
1.5708 1.23009 0
1.76715 1.23009 0
1.5708 1.54356 0
1.76715 1.54356 0
1.76715 1.23009 0
1.9635 1.23009 0
1.76715 1.54356 0
1.9635 1.54356 0
1.5708 1.54356 0
1.76715 1.54356 0
1.5708 1.85702 0
1.76715 1.85702 0
1.76715 1.54356 0
1.9635 1.54356 0
1.76715 1.85702 0
1.9635 1.85702 0
1.9635 1.23009 0
2.15984 1.23009 0
1.9635 1.54356 0
2.15984 1.54356 0
2.15984 1.23009 0
2.35619 1.23009 0
2.15984 1.54356 0
2.35619 1.54356 0
1.9635 1.54356 0
2.15984 1.54356 0
1.9635 1.85702 0
2.15984 1.85702 0
2.15984 1.54356 0
2.35619 1.54356 0
2.15984 1.85702 0
2.35619 1.85702 0
1.5708 1.85702 0
1.76715 1.85702 0
1.5708 2.17045 0
1.76715 2.17045 0
1.76715 1.85702 0
1.9635 1.85702 0
1.76715 2.17045 0
1.9635 2.17045 0
1.5708 2.17045 0
1.76715 2.17045 0
1.5708 2.48384 0
1.76715 2.48384 0
1.76715 2.17045 0
1.9635 2.17045 0
1.76715 2.48384 0
1.9635 2.48384 0
1.9635 1.85702 0
2.15984 1.85702 0
1.9635 2.17045 0
2.15984 2.17045 0
2.15984 1.85702 0
2.35619 1.85702 0
2.15984 2.17045 0
2.35619 2.17045 0
1.9635 2.17045 0
2.15984 2.17045 0
1.9635 2.48384 0
2.15984 2.48384 0
2.15984 2.17045 0
2.35619 2.17045 0
2.15984 2.48384 0
2.35619 2.48384 0
2.35619 1.23009 0
2.55254 1.23009 0
2.35619 1.54356 0
2.55254 1.54356 0
2.55254 1.23009 0
2.74889 1.23009 0
2.55254 1.54356 0
2.74889 1.54356 0
2.35619 1.54356 0
2.55254 1.54356 0
2.35619 1.85702 0
2.55254 1.85702 0
2.55254 1.54356 0
2.74889 1.54356 0
2.55254 1.85702 0
2.74889 1.85702 0
2.74889 1.23009 0
2.94524 1.23009 0
2.74889 1.54356 0
2.94524 1.54356 0
2.94524 1.23009 0
3.14159 1.23009 0
2.94524 1.54356 0
3.14159 1.54356 0
2.74889 1.54356 0
2.94524 1.54356 0
2.74889 1.85702 0
2.94524 1.85702 0
2.94524 1.54356 0
3.14159 1.54356 0
2.94524 1.85702 0
3.14159 1.85702 0
2.35619 1.85702 0
2.55254 1.85702 0
2.35619 2.17045 0
2.55254 2.17045 0
2.55254 1.85702 0
2.74889 1.85702 0
2.55254 2.17045 0
2.74889 2.17045 0
2.35619 2.17045 0
2.55254 2.17045 0
2.35619 2.48384 0
2.55254 2.48384 0
2.55254 2.17045 0
2.74889 2.17045 0
2.55254 2.48384 0
2.74889 2.48384 0
2.74889 1.85702 0
2.94524 1.85702 0
2.74889 2.17045 0
2.94524 2.17045 0
2.94524 1.85702 0
3.14159 1.85702 0
2.94524 2.17045 0
3.14159 2.17045 0
2.74889 2.17045 0
2.94524 2.17045 0
2.74889 2.48384 0
2.94524 2.48384 0
2.94524 2.17045 0
3.14159 2.17045 0
2.94524 2.48384 0
3.14159 2.48384 0
0 2.48384 0
0.19635 2.48384 0
0 2.79721 0
0.19635 2.79721 0
0.19635 2.48384 0
0.392699 2.48384 0
0.19635 2.79721 0
0.392699 2.79721 0
0 2.79721 0
0.19635 2.79721 0
0 3.11054 0
0.19635 3.11054 0
0.19635 2.79721 0
0.392699 2.79721 0
0.19635 3.11054 0
0.392699 3.11054 0
0.392699 2.48384 0
0.589049 2.48384 0
0.392699 2.79721 0
0.589049 2.79721 0
0.589049 2.48384 0
0.785398 2.48384 0
0.589049 2.79721 0
0.785398 2.79721 0
0.392699 2.79721 0
0.589049 2.79721 0
0.392699 3.11054 0
0.589049 3.11054 0
0.589049 2.79721 0
0.785398 2.79721 0
0.589049 3.11054 0
0.785398 3.11054 0
0 3.11054 0
0.19635 3.11054 0
0 3.42385 0
0.19635 3.42385 0
0.19635 3.11054 0
0.392699 3.11054 0
0.19635 3.42385 0
[...]
POINT_DATA 20480
VECTORS uf double
0 1 0
-2.12406e-13 1 0
0 1.55145 0
3.16477e-13 1.55145 0
-2.12406e-13 1 0
-7.18341e-14 1 0
3.16477e-13 1.55145 0
1.42334e-13 1.55145 0
0 1.55145 0
1.67826e-13 1.55145 0
0 1.5187 0
-1.05706e-14 1.5187 0
1.67826e-13 1.55145 0
-9.35024e-14 1.55145 0
-1.05706e-14 1.5187 0
2.28513e-13 1.5187 0
-7.18341e-14 1 0
1.83834e-13 1 0
1.42334e-13 1.55145 0
-3.70276e-13 1.55145 0
1.83834e-13 1 0
-1.90948e-13 1 0
-3.70276e-13 1.55145 0
3.40817e-13 1.55145 0
-9.35024e-14 1.55145 0
-6.53832e-13 1.55145 0
2.28513e-13 1.5187 0
7.02467e-13 1.5187 0
-6.53832e-13 1.55145 0
8.01934e-14 1.55145 0
7.02467e-13 1.5187 0
1.25512e-13 1.5187 0
0 1.5187 0
1.91779e-13 1.5187 0
0 1.50463 0
-6.48192e-14 1.50463 0
1.91779e-13 1.5187 0
2.99793e-13 1.5187 0
-6.48192e-14 1.50463 0
-3.52353e-13 1.50463 0
0 1.50463 0
9.6206e-14 1.50463 0
0 1.47568 0
-1.16465e-13 1.47568 0
9.6206e-14 1.50463 0
-2.92163e-13 1.50463 0
-1.16465e-13 1.47568 0
3.08628e-13 1.47568 0
2.99793e-13 1.5187 0
5.89812e-13 1.5187 0
-3.52353e-13 1.50463 0
-3.02829e-13 1.50463 0
5.89812e-13 1.5187 0
1.16552e-13 1.5187 0
-3.02829e-13 1.50463 0
2.62674e-13 1.50463 0
-2.92163e-13 1.50463 0
2.59092e-13 1.50463 0
3.08628e-13 1.47568 0
-4.79526e-13 1.47568 0
2.59092e-13 1.50463 0
2.31269e-13 1.50463 0
-4.79526e-13 1.47568 0
2.42363e-13 1.47568 0
-1.90948e-13 1 0
-2.4048e-13 1 0
3.40817e-13 1.55145 0
4.20276e-13 1.55145 0
-2.4048e-13 1 0
1.04882e-13 1 0
4.20276e-13 1.55145 0
-1.56619e-13 1.55145 0
8.01934e-14 1.55145 0
5.36597e-13 1.55145 0
1.25512e-13 1.5187 0
-4.07267e-13 1.5187 0
5.36597e-13 1.55145 0
3.81137e-13 1.55145 0
-4.07267e-13 1.5187 0
-5.95472e-13 1.5187 0
1.04882e-13 1 0
7.10562e-13 1 0
-1.56619e-13 1.55145 0
-1.25674e-12 1.55145 0
7.10562e-13 1 0
4.3157e-13 1 0
-1.25674e-12 1.55145 0
-6.163e-13 1.55145 0
3.81137e-13 1.55145 0
-9.04464e-13 1.55145 0
-5.95472e-13 1.5187 0
3.96394e-13 1.5187 0
-9.04464e-13 1.55145 0
-5.06964e-13 1.55145 0
3.96394e-13 1.5187 0
1.12705e-13 1.5187 0
1.16552e-13 1.5187 0
-3.28984e-13 1.5187 0
2.62674e-13 1.50463 0
1.62596e-13 1.50463 0
-3.28984e-13 1.5187 0
-5.10639e-13 1.5187 0
1.62596e-13 1.50463 0
2.20492e-13 1.50463 0
2.31269e-13 1.50463 0
-4.37452e-14 1.50463 0
2.42363e-13 1.47568 0
-1.66677e-13 1.47568 0
-4.37452e-14 1.50463 0
-1.7637e-13 1.50463 0
-1.66677e-13 1.47568 0
1.86753e-13 1.47568 0
-5.10639e-13 1.5187 0
-1.48111e-13 1.5187 0
2.20492e-13 1.50463 0
-1.23612e-13 1.50463 0
-1.48111e-13 1.5187 0
5.96335e-14 1.5187 0
-1.23612e-13 1.50463 0
-3.46898e-13 1.50463 0
-1.7637e-13 1.50463 0
-7.55106e-14 1.50463 0
1.86753e-13 1.47568 0
2.74346e-14 1.47568 0
-7.55106e-14 1.50463 0
7.17389e-14 1.50463 0
2.74346e-14 1.47568 0
-3.12192e-13 1.47568 0
0 1.47568 0
-2.27464e-13 1.47568 0
0 1.45248 0
3.06757e-13 1.45248 0
-2.27464e-13 1.47568 0
4.95162e-13 1.47568 0
3.06757e-13 1.45248 0
-6.30265e-13 1.45248 0
0 1.45248 0
4.7637e-13 1.45248 0
0 1.42918 0
-3.78964e-13 1.42918 0
4.7637e-13 1.45248 0
-6.27522e-13 1.45248 0
-3.78964e-13 1.42918 0
2.97774e-13 1.42918 0
4.95162e-13 1.47568 0
-3.89926e-13 1.47568 0
-6.30265e-13 1.45248 0
3.93203e-13 1.45248 0
-3.89926e-13 1.47568 0
2.28301e-13 1.47568 0
3.93203e-13 1.45248 0
5.9926e-14 1.45248 0
-6.27522e-13 1.45248 0
1.93528e-13 1.45248 0
2.97774e-13 1.42918 0
1.66461e-14 1.42918 0
1.93528e-13 1.45248 0
1.12796e-13 1.45248 0
1.66461e-14 1.42918 0
6.74534e-14 1.42918 0
0 1.42918 0
-2.09479e-13 1.42918 0
0 1.40755 0
-1.102e-13 1.40755 0
-2.09479e-13 1.42918 0
1.42548e-13 1.42918 0
-1.102e-13 1.40755 0
-1.79374e-14 1.40755 0
0 1.40755 0
-3.28381e-13 1.40755 0
0 1.387 0
2.21735e-13 1.387 0
-3.28381e-13 1.40755 0
-1.11878e-13 1.40755 0
2.21735e-13 1.387 0
1.02577e-13 1.387 0
1.42548e-13 1.42918 0
1.76621e-13 1.42918 0
-1.79374e-14 1.40755 0
-9.51316e-14 1.40755 0
1.76621e-13 1.42918 0
2.00536e-13 1.42918 0
-9.51316e-14 1.40755 0
-8.5303e-14 1.40755 0
-1.11878e-13 1.40755 0
1.33067e-13 1.40755 0
1.02577e-13 1.387 0
-4.48505e-13 1.387 0
1.33067e-13 1.40755 0
-1.26468e-13 1.40755 0
-4.48505e-13 1.387 0
2.70648e-13 1.387 0
2.28301e-13 1.47568 0
-1.69547e-14 1.47568 0
5.9926e-14 1.45248 0
-6.41277e-14 1.45248 0
-1.69547e-14 1.47568 0
4.81261e-14 1.47568 0
-6.41277e-14 1.45248 0
-1.0562e-13 1.45248 0
1.12796e-13 1.45248 0
-3.18754e-13 1.45248 0
6.74534e-14 1.42918 0
2.64926e-13 1.42918 0
-3.18754e-13 1.45248 0
7.13096e-14 1.45248 0
2.64926e-13 1.42918 0
-1.81896e-13 1.42918 0
4.81261e-14 1.47568 0
-3.2521e-13 1.47568 0
-1.0562e-13 1.45248 0
1.61493e-13 1.45248 0
-3.2521e-13 1.47568 0
-5.19887e-13 1.47568 0
1.61493e-13 1.45248 0
3.87176e-13 1.45248 0
7.13096e-14 1.45248 0
3.42108e-14 1.45248 0
-1.81896e-13 1.42918 0
-7.89053e-14 1.42918 0
3.42108e-14 1.45248 0
2.94555e-13 1.45248 0
-7.89053e-14 1.42918 0
-3.63768e-13 1.42918 0
2.00536e-13 1.42918 0
2.35119e-13 1.42918 0
-8.5303e-14 1.40755 0
-1.81182e-13 1.40755 0
2.35119e-13 1.42918 0
-2.96296e-13 1.42918 0
-1.81182e-13 1.40755 0
-1.42262e-14 1.40755 0
-1.26468e-13 1.40755 0
-1.82272e-13 1.40755 0
2.70648e-13 1.387 0
3.6222e-13 1.387 0
-1.82272e-13 1.40755 0
-7.1347e-14 1.40755 0
3.6222e-13 1.387 0
-9.27034e-14 1.387 0
-2.96296e-13 1.42918 0
-6.11531e-13 1.42918 0
-1.42262e-14 1.40755 0
6.48618e-13 1.40755 0
-6.11531e-13 1.42918 0
2.02538e-13 1.42918 0
6.48618e-13 1.40755 0
-1.07543e-13 1.40755 0
-7.1347e-14 1.40755 0
3.63735e-13 1.40755 0
-9.27034e-14 1.387 0
-2.51204e-13 1.387 0
3.63735e-13 1.40755 0
2.15109e-13 1.40755 0
-2.51204e-13 1.387 0
-1.14815e-13 1.387 0
4.3157e-13 1 0
-4.0394e-13 1 0
-6.163e-13 1.55145 0
8.17752e-13 1.55145 0
-4.0394e-13 1 0
-2.30255e-13 1 0
8.17752e-13 1.55145 0
2.5394e-13 1.55145 0
-5.06964e-13 1.55145 0
7.59733e-13 1.55145 0
1.12705e-13 1.5187 0
-4.8858e-13 1.5187 0
7.59733e-13 1.55145 0
3.08862e-13 1.55145 0
-4.8858e-13 1.5187 0
-2.69374e-13 1.5187 0
-2.30255e-13 1 0
-1.8552e-13 1 0
2.5394e-13 1.55145 0
1.12415e-13 1.55145 0
-1.8552e-13 1 0
2.52712e-13 1 0
1.12415e-13 1.55145 0
1.51992e-13 1.55145 0
3.08862e-13 1.55145 0
-3.79152e-13 1.55145 0
-2.69374e-13 1.5187 0
4.54633e-13 1.5187 0
-3.79152e-13 1.55145 0
5.98188e-13 1.55145 0
4.54633e-13 1.5187 0
-4.79172e-13 1.5187 0
5.96335e-14 1.5187 0
-2.11812e-13 1.5187 0
-3.46898e-13 1.50463 0
1.90173e-13 1.50463 0
-2.11812e-13 1.5187 0
2.94428e-13 1.5187 0
1.90173e-13 1.50463 0
2.67122e-14 1.50463 0
7.17389e-14 1.50463 0
-1.77747e-13 1.50463 0
-3.12192e-13 1.47568 0
3.83448e-13 1.47568 0
-1.77747e-13 1.50463 0
-5.46817e-14 1.50463 0
3.83448e-13 1.47568 0
-3.48144e-13 1.47568 0
2.94428e-13 1.5187 0
1.89779e-13 1.5187 0
2.67122e-14 1.50463 0
-1.59579e-13 1.50463 0
1.89779e-13 1.5187 0
-5.96175e-13 1.5187 0
-1.59579e-13 1.50463 0
4.09881e-13 1.50463 0
-5.46817e-14 1.50463 0
-3.64041e-13 1.50463 0
-3.48144e-13 1.47568 0
6.1569e-13 1.47568 0
-3.64041e-13 1.50463 0
4.00908e-14 1.50463 0
6.1569e-13 1.47568 0
2.00503e-13 1.47568 0
2.52712e-13 1 0
2.44103e-13 1 0
1.51992e-13 1.55145 0
-3.47453e-13 1.55145 0
2.44103e-13 1 0
-1.28389e-13 1 0
-3.47453e-13 1.55145 0
7.74503e-14 1.55145 0
5.98188e-13 1.55145 0
-3.1767e-13 1.55145 0
-4.79172e-13 1.5187 0
2.62309e-13 1.5187 0
-3.1767e-13 1.55145 0
-2.40419e-13 1.55145 0
2.62309e-13 1.5187 0
2.38574e-13 1.5187 0
-1.28389e-13 1 0
-1.72916e-13 1 0
7.74503e-14 1.55145 0
2.31066e-13 1.55145 0
-1.72916e-13 1 0
1.11355e-13 1 0
2.31066e-13 1.55145 0
-4.89829e-14 1.55145 0
-2.40419e-13 1.55145 0
2.65241e-13 1.55145 0
2.38574e-13 1.5187 0
-1.83908e-13 1.5187 0
2.65241e-13 1.55145 0
4.09651e-13 1.55145 0
-1.83908e-13 1.5187 0
-5.38846e-14 1.5187 0
-5.96175e-13 1.5187 0
1.94484e-14 1.5187 0
4.09881e-13 1.50463 0
-1.15074e-15 1.50463 0
1.94484e-14 1.5187 0
-2.16695e-13 1.5187 0
-1.15074e-15 1.50463 0
2.58591e-13 1.50463 0
4.00908e-14 1.50463 0
6.99067e-13 1.50463 0
2.00503e-13 1.47568 0
-7.05309e-13 1.47568 0
6.99067e-13 1.50463 0
-4.18947e-14 1.50463 0
-7.05309e-13 1.47568 0
4.06577e-13 1.47568 0
-2.16695e-13 1.5187 0
-7.60066e-14 1.5187 0
2.58591e-13 1.50463 0
4.28764e-14 1.50463 0
-7.60066e-14 1.5187 0
2.08702e-13 1.5187 0
4.28764e-14 1.50463 0
-8.29123e-14 1.50463 0
-4.18947e-14 1.50463 0
-2.00615e-13 1.50463 0
4.06577e-13 1.47568 0
-3.11697e-13 1.47568 0
-2.00615e-13 1.50463 0
3.34869e-13 1.50463 0
-3.11697e-13 1.47568 0
-2.93923e-14 1.47568 0
-5.19887e-13 1.47568 0
8.01058e-13 1.47568 0
3.87176e-13 1.45248 0
-7.22881e-13 1.45248 0
8.01058e-13 1.47568 0
-2.22991e-13 1.47568 0
-7.22881e-13 1.45248 0
2.40134e-13 1.45248 0
2.94555e-13 1.45248 0
-1.44856e-13 1.45248 0
-3.63768e-13 1.42918 0
3.67923e-13 1.42918 0
-1.44856e-13 1.45248 0
-2.50489e-13 1.45248 0
3.67923e-13 1.42918 0
2.11709e-13 1.42918 0
-2.22991e-13 1.47568 0
-2.92488e-14 1.47568 0
2.40134e-13 1.45248 0
-2.73122e-13 1.45248 0
-2.92488e-14 1.47568 0
4.22741e-15 1.47568 0
-2.73122e-13 1.45248 0
-3.61803e-14 1.45248 0
-2.50489e-13 1.45248 0
-3.6259e-15 1.45248 0
2.11709e-13 1.42918 0
-1.11145e-13 1.42918 0
-3.6259e-15 1.45248 0
-1.53114e-13 1.45248 0
-1.11145e-13 1.42918 0
-5.55414e-14 1.42918 0
2.02538e-13 1.42918 0
2.11027e-13 1.42918 0
-1.07543e-13 1.40755 0
-1.95785e-13 1.40755 0
2.11027e-13 1.42918 0
7.91663e-14 1.42918 0
-1.95785e-13 1.40755 0
3.26923e-15 1.40755 0
2.15109e-13 1.40755 0
-1.82902e-13 1.40755 0
-1.14815e-13 1.387 0
1.10671e-13 1.387 0
-1.82902e-13 1.40755 0
2.62388e-13 1.40755 0
1.10671e-13 1.387 0
-9.80735e-14 1.387 0
7.91663e-14 1.42918 0
-1.52238e-13 1.42918 0
3.26923e-15 1.40755 0
2.96222e-13 1.40755 0
-1.52238e-13 1.42918 0
2.54462e-13 1.42918 0
2.96222e-13 1.40755 0
-2.18279e-13 1.40755 0
2.62388e-13 1.40755 0
-2.44611e-14 1.40755 0
-9.80735e-14 1.387 0
-6.18521e-14 1.387 0
-2.44611e-14 1.40755 0
4.29193e-13 1.40755 0
-6.18521e-14 1.387 0
-4.39217e-13 1.387 0
4.22741e-15 1.47568 0
1.69262e-13 1.47568 0
-3.61803e-14 1.45248 0
2.79932e-13 1.45248 0
1.69262e-13 1.47568 0
-2.63088e-13 1.47568 0
2.79932e-13 1.45248 0
1.78934e-13 1.45248 0
-1.53114e-13 1.45248 0
4.50024e-14 1.45248 0
-5.55414e-14 1.42918 0
2.71798e-13 1.42918 0
4.50024e-14 1.45248 0
9.98532e-14 1.45248 0
2.71798e-13 1.42918 0
-2.109e-13 1.42918 0
-2.63088e-13 1.47568 0
5.48276e-13 1.47568 0
1.78934e-13 1.45248 0
-5.70665e-13 1.45248 0
5.48276e-13 1.47568 0
-6.85865e-13 1.47568 0
-5.70665e-13 1.45248 0
6.3722e-13 1.45248 0
9.98532e-14 1.45248 0
-2.86239e-13 1.45248 0
-2.109e-13 1.42918 0
4.66425e-13 1.42918 0
-2.86239e-13 1.45248 0
2.73007e-13 1.45248 0
4.66425e-13 1.42918 0
-1.55872e-13 1.42918 0
2.54462e-13 1.42918 0
-3.16325e-13 1.42918 0
-2.18279e-13 1.40755 0
4.25126e-13 1.40755 0
-3.16325e-13 1.42918 0
-1.81836e-13 1.42918 0
4.25126e-13 1.40755 0
-2.36584e-14 1.40755 0
4.29193e-13 1.40755 0
-8.39541e-13 1.40755 0
-4.39217e-13 1.387 0
7.58907e-13 1.387 0
-8.39541e-13 1.40755 0
1.95777e-13 1.40755 0
7.58907e-13 1.387 0
2.51895e-14 1.387 0
-1.81836e-13 1.42918 0
4.90672e-13 1.42918 0
-2.36584e-14 1.40755 0
-4.95707e-13 1.40755 0
4.90672e-13 1.42918 0
7.05977e-15 1.42918 0
-4.95707e-13 1.40755 0
1.03079e-13 1.40755 0
1.95777e-13 1.40755 0
2.64362e-14 1.40755 0
2.51895e-14 1.387 0
-1.24584e-13 1.387 0
2.64362e-14 1.40755 0
1.01243e-13 1.40755 0
-1.24584e-13 1.387 0
2.74254e-13 1.387 0
0 1.387 0
1.51919e-13 1.387 0
0 1.3676 0
-5.10021e-14 1.3676 0
1.51919e-13 1.387 0
2.24536e-13 1.387 0
-5.10021e-14 1.3676 0
-2.47966e-13 1.3676 0
0 1.3676 0
1.63536e-13 1.3676 0
0 1.34926 0
-2.66235e-13 1.34926 0
1.63536e-13 1.3676 0
-2.34885e-13 1.3676 0
-2.66235e-13 1.34926 0
1.55718e-13 1.34926 0
2.24536e-13 1.387 0
-6.64311e-13 1.387 0
-2.47966e-13 1.3676 0
6.50301e-13 1.3676 0
-6.64311e-13 1.387 0
2.32542e-13 1.387 0
6.50301e-13 1.3676 0
-5.12861e-14 1.3676 0
-2.34885e-13 1.3676 0
5.28898e-13 1.3676 0
1.55718e-13 1.34926 0
-2.93809e-13 1.34926 0
5.28898e-13 1.3676 0
8.1103e-14 1.3676 0
-2.93809e-13 1.34926 0
-2.51601e-14 1.34926 0
0 1.34926 0
-2.92117e-13 1.34926 0
0 1.33192 0
-4.26207e-14 1.33192 0
-2.92117e-13 1.34926 0
-1.32989e-13 1.34926 0
-4.26207e-14 1.33192 0
1.81793e-13 1.33192 0
0 1.33192 0
1.16858e-13 1.33192 0
0 1.31553 0
-5.07318e-14 1.31553 0
1.16858e-13 1.33192 0
3.02324e-13 1.33192 0
-5.07318e-14 1.31553 0
-2.98403e-13 1.31553 0
-1.32989e-13 1.34926 0
-2.3493e-13 1.34926 0
1.81793e-13 1.33192 0
2.35759e-13 1.33192 0
-2.3493e-13 1.34926 0
-2.88101e-14 1.34926 0
2.35759e-13 1.33192 0
-4.67803e-14 1.33192 0
3.02324e-13 1.33192 0
8.47663e-14 1.33192 0
-2.98403e-13 1.31553 0
8.28398e-14 1.31553 0
8.47663e-14 1.33192 0
-1.04861e-13 1.33192 0
8.28398e-14 1.31553 0
1.47863e-13 1.31553 0
2.32542e-13 1.387 0
5.22805e-13 1.387 0
-5.12861e-14 1.3676 0
-4.30385e-13 1.3676 0
5.22805e-13 1.387 0
-4.7223e-13 1.387 0
-4.30385e-13 1.3676 0
5.66113e-13 1.3676 0
8.1103e-14 1.3676 0
-4.48277e-13 1.3676 0
-2.51601e-14 1.34926 0
3.20263e-13 1.34926 0
-4.48277e-13 1.3676 0
5.44934e-14 1.3676 0
3.20263e-13 1.34926 0
4.98651e-14 1.34926 0
-4.7223e-13 1.387 0
-2.83568e-13 1.387 0
5.66113e-13 1.3676 0
1.32542e-13 1.3676 0
-2.83568e-13 1.387 0
3.5985e-14 1.387 0
1.32542e-13 1.3676 0
-1.12142e-13 1.3676 0
5.44934e-14 1.3676 0
2.77728e-13 1.3676 0
4.98651e-14 1.34926 0
-1.81353e-13 1.34926 0
2.77728e-13 1.3676 0
6.57123e-15 1.3676 0
-1.81353e-13 1.34926 0
-1.57697e-13 1.34926 0
-2.88101e-14 1.34926 0
4.36177e-13 1.34926 0
-4.67803e-14 1.33192 0
-4.47152e-13 1.33192 0
4.36177e-13 1.34926 0
9.80357e-14 1.34926 0
-4.47152e-13 1.33192 0
5.31986e-14 1.33192 0
-1.04861e-13 1.33192 0
-4.83836e-13 1.33192 0
1.47863e-13 1.31553 0
3.70049e-13 1.31553 0
-4.83836e-13 1.33192 0
2.14924e-13 1.33192 0
3.70049e-13 1.31553 0
-1.93697e-13 1.31553 0
9.80357e-14 1.34926 0
-5.33857e-14 1.34926 0
5.31986e-14 1.33192 0
1.70197e-13 1.33192 0
-5.33857e-14 1.34926 0
-3.49972e-14 1.34926 0
1.70197e-13 1.33192 0
-3.15314e-13 1.33192 0
2.14924e-13 1.33192 0
4.90862e-13 1.33192 0
-1.93697e-13 1.31553 0
-5.31754e-13 1.31553 0
4.90862e-13 1.33192 0
-5.92207e-13 1.33192 0
-5.31754e-13 1.31553 0
7.507e-13 1.31553 0
0 1.31553 0
-4.11695e-13 1.31553 0
0 1.30003 0
3.99889e-13 1.30003 0
-4.11695e-13 1.31553 0
-2.20604e-13 1.31553 0
3.99889e-13 1.30003 0
2.52056e-13 1.30003 0
0 1.30003 0
1.12997e-13 1.30003 0
0 1.28537 0
1.52857e-13 1.28537 0
1.12997e-13 1.30003 0
5.38036e-14 1.30003 0
1.52857e-13 1.28537 0
3.84513e-14 1.28537 0
-2.20604e-13 1.31553 0
4.44526e-13 1.31553 0
2.52056e-13 1.30003 0
-2.98893e-13 1.30003 0
4.44526e-13 1.31553 0
1.65042e-13 1.31553 0
-2.98893e-13 1.30003 0
5.05731e-15 1.30003 0
5.38036e-14 1.30003 0
-2.1293e-13 1.30003 0
3.84513e-14 1.28537 0
-1.98342e-13 1.28537 0
-2.1293e-13 1.30003 0
1.17522e-13 1.30003 0
-1.98342e-13 1.28537 0
-3.66652e-14 1.28537 0
0 1.28537 0
3.67953e-13 1.28537 0
0 1.27151 0
-9.47637e-14 1.27151 0
3.67953e-13 1.28537 0
3.17026e-13 1.28537 0
-9.47637e-14 1.27151 0
-4.63416e-13 1.27151 0
0 1.27151 0
-1.35666e-13 1.27151 0
0 1.2584 0
1.12379e-13 1.2584 0
-1.35666e-13 1.27151 0
-4.92747e-13 1.27151 0
1.12379e-13 1.2584 0
2.20846e-13 1.2584 0
3.17026e-13 1.28537 0
-4.7377e-13 1.28537 0
-4.63416e-13 1.27151 0
4.21265e-13 1.27151 0
-4.7377e-13 1.28537 0
-4.33936e-14 1.28537 0
4.21265e-13 1.27151 0
1.20617e-13 1.27151 0
-4.92747e-13 1.27151 0
4.99808e-13 1.27151 0
2.20846e-13 1.2584 0
-3.17976e-13 1.2584 0
4.99808e-13 1.27151 0
1.84985e-13 1.27151 0
-3.17976e-13 1.2584 0
-2.39074e-13 1.2584 0
1.65042e-13 1.31553 0
4.05219e-13 1.31553 0
5.05731e-15 1.30003 0
-4.81993e-13 1.30003 0
4.05219e-13 1.31553 0
-3.45963e-13 1.31553 0
-4.81993e-13 1.30003 0
4.30487e-13 1.30003 0
1.17522e-13 1.30003 0
-2.45496e-13 1.30003 0
-3.66652e-14 1.28537 0
6.75259e-15 1.28537 0
-2.45496e-13 1.30003 0
4.87368e-13 1.30003 0
6.75259e-15 1.28537 0
-2.16922e-13 1.28537 0
-3.45963e-13 1.31553 0
-3.04745e-13 1.31553 0
4.30487e-13 1.30003 0
1.81165e-13 1.30003 0
-3.04745e-13 1.31553 0
5.58842e-13 1.31553 0
1.81165e-13 1.30003 0
-2.99361e-13 1.30003 0
4.87368e-13 1.30003 0
-9.68234e-14 1.30003 0
-2.16922e-13 1.28537 0
1.55723e-13 1.28537 0
-9.68234e-14 1.30003 0
-4.855e-13 1.30003 0
1.55723e-13 1.28537 0
3.0378e-13 1.28537 0
-4.33936e-14 1.28537 0
-1.03203e-13 1.28537 0
1.20617e-13 1.27151 0
-6.54257e-14 1.27151 0
-1.03203e-13 1.28537 0
-7.31197e-14 1.28537 0
-6.54257e-14 1.27151 0
6.72111e-14 1.27151 0
1.84985e-13 1.27151 0
-9.42816e-14 1.27151 0
-2.39074e-13 1.2584 0
-4.34866e-14 1.2584 0
-9.42816e-14 1.27151 0
7.28759e-16 1.27151 0
-4.34866e-14 1.2584 0
5.02857e-14 1.2584 0
-7.31197e-14 1.28537 0
1.28909e-13 1.28537 0
6.72111e-14 1.27151 0
2.54067e-14 1.27151 0
1.28909e-13 1.28537 0
3.92956e-13 1.28537 0
2.54067e-14 1.27151 0
-2.47522e-13 1.27151 0
7.28759e-16 1.27151 0
2.09041e-13 1.27151 0
5.02857e-14 1.2584 0
-1.55534e-13 1.2584 0
2.09041e-13 1.27151 0
-5.0091e-14 1.27151 0
-1.55534e-13 1.2584 0
1.40595e-13 1.2584 0
3.5985e-14 1.387 0
7.88462e-14 1.387 0
-1.12142e-13 1.3676 0
-8.4473e-14 1.3676 0
7.88462e-14 1.387 0
2.72593e-13 1.387 0
-8.4473e-14 1.3676 0
-2.46442e-13 1.3676 0
6.57123e-15 1.3676 0
5.35643e-14 1.3676 0
-1.57697e-13 1.34926 0
1.71092e-13 1.34926 0
5.35643e-14 1.3676 0
-5.45404e-13 1.3676 0
1.71092e-13 1.34926 0
2.96629e-13 1.34926 0
2.72593e-13 1.387 0
-1.63591e-13 1.387 0
-2.46442e-13 1.3676 0
1.48942e-13 1.3676 0
-1.63591e-13 1.387 0
-6.76331e-13 1.387 0
1.48942e-13 1.3676 0
5.88804e-13 1.3676 0
-5.45404e-13 1.3676 0
1.84888e-13 1.3676 0
2.96629e-13 1.34926 0
-1.67084e-13 1.34926 0
1.84888e-13 1.3676 0
5.42464e-13 1.3676 0
-1.67084e-13 1.34926 0
-4.56101e-13 1.34926 0
-3.49972e-14 1.34926 0
9.66502e-14 1.34926 0
-3.15314e-13 1.33192 0
-2.16885e-14 1.33192 0
9.66502e-14 1.34926 0
-1.69243e-13 1.34926 0
-2.16885e-14 1.33192 0
4.7075e-14 1.33192 0
-5.92207e-13 1.33192 0
-2.63131e-13 1.33192 0
7.507e-13 1.31553 0
3.15451e-13 1.31553 0
-2.63131e-13 1.33192 0
3.81683e-13 1.33192 0
3.15451e-13 1.31553 0
-2.96028e-13 1.31553 0
-1.69243e-13 1.34926 0
8.34511e-14 1.34926 0
4.7075e-14 1.33192 0
3.95577e-14 1.33192 0
8.34511e-14 1.34926 0
-4.50889e-14 1.34926 0
3.95577e-14 1.33192 0
6.44174e-14 1.33192 0
3.81683e-13 1.33192 0
-2.33375e-13 1.33192 0
-2.96028e-13 1.31553 0
4.38572e-13 1.31553 0
-2.33375e-13 1.33192 0
9.48363e-14 1.33192 0
4.38572e-13 1.31553 0
-4.48866e-13 1.31553 0
-6.76331e-13 1.387 0
8.67149e-13 1.387 0
5.88804e-13 1.3676 0
-7.4068e-13 1.3676 0
8.67149e-13 1.387 0
-2.3786e-13 1.387 0
-7.4068e-13 1.3676 0
3.244e-13 1.3676 0
5.42464e-13 1.3676 0
1.61496e-13 1.3676 0
-4.56101e-13 1.34926 0
5.35159e-14 1.34926 0
1.61496e-13 1.3676 0
-1.75409e-13 1.3676 0
5.35159e-14 1.34926 0
5.17596e-14 1.34926 0
-2.3786e-13 1.387 0
-2.11353e-13 1.387 0
3.244e-13 1.3676 0
6.796e-14 1.3676 0
-2.11353e-13 1.387 0
8.11976e-13 1.387 0
6.796e-14 1.3676 0
-5.26849e-13 1.3676 0
-1.75409e-13 1.3676 0
-1.89031e-13 1.3676 0
5.17596e-14 1.34926 0
-1.0466e-14 1.34926 0
-1.89031e-13 1.3676 0
-3.87322e-13 1.3676 0
-1.0466e-14 1.34926 0
5.12489e-13 1.34926 0
-4.50889e-14 1.34926 0
-2.34507e-13 1.34926 0
6.44174e-14 1.33192 0
5.22183e-13 1.33192 0
-2.34507e-13 1.34926 0
3.03092e-13 1.34926 0
5.22183e-13 1.33192 0
-5.30266e-13 1.33192 0
9.48363e-14 1.33192 0
4.41893e-14 1.33192 0
-4.48866e-13 1.31553 0
-1.30761e-13 1.31553 0
4.41893e-14 1.33192 0
-6.79731e-14 1.33192 0
-1.30761e-13 1.31553 0
4.99183e-13 1.31553 0
3.03092e-13 1.34926 0
2.07201e-13 1.34926 0
-5.30266e-13 1.33192 0
3.63193e-14 1.33192 0
2.07201e-13 1.34926 0
1.07123e-13 1.34926 0
3.63193e-14 1.33192 0
-2.53618e-14 1.33192 0
-6.79731e-14 1.33192 0
-3.18132e-15 1.33192 0
4.99183e-13 1.31553 0
-4.68967e-13 1.31553 0
-3.18132e-15 1.33192 0
2.47589e-13 1.33192 0
-4.68967e-13 1.31553 0
1.2722e-14 1.31553 0
5.58842e-13 1.31553 0
-3.30538e-14 1.31553 0
-2.99361e-13 1.30003 0
-1.56975e-14 1.30003 0
-3.30538e-14 1.31553 0
-1.91788e-13 1.31553 0
-1.56975e-14 1.30003 0
1.84284e-14 1.30003 0
-4.855e-13 1.30003 0
1.075e-13 1.30003 0
3.0378e-13 1.28537 0
-1.67286e-13 1.28537 0
1.075e-13 1.30003 0
3.1955e-13 1.30003 0
-1.67286e-13 1.28537 0
-2.2129e-13 1.28537 0
-1.91788e-13 1.31553 0
4.79641e-13 1.31553 0
1.84284e-14 1.30003 0
-4.09909e-13 1.30003 0
4.79641e-13 1.31553 0
-4.37613e-13 1.31553 0
-4.09909e-13 1.30003 0
5.76912e-13 1.30003 0
3.1955e-13 1.30003 0
-5.00381e-14 1.30003 0
-2.2129e-13 1.28537 0
3.11587e-13 1.28537 0
-5.00381e-14 1.30003 0
2.87422e-13 1.30003 0
3.11587e-13 1.28537 0