# vtk DataFile Version 3.0
#This file was generated by the deal.II library on 2018/10/15 at 9:09:34
ASCII
DATASET UNSTRUCTURED_GRID

POINTS 20480 double
0 0 0
0.19635 0 0
0 0.305661 0
0.19635 0.305661 0
0.19635 0 0
0.392699 0 0
0.19635 0.305661 0
0.392699 0.305661 0
0 0.305661 0
0.19635 0.305661 0
0 0.617855 0
0.19635 0.617855 0
0.19635 0.305661 0
0.392699 0.305661 0
0.19635 0.617855 0
0.392699 0.617855 0
0.392699 0 0
0.589049 0 0
0.392699 0.305661 0
0.589049 0.305661 0
0.589049 0 0
0.785398 0 0
0.589049 0.305661 0
0.785398 0.305661 0
0.392699 0.305661 0
0.589049 0.305661 0
0.392699 0.617855 0
0.589049 0.617855 0
0.589049 0.305661 0
0.785398 0.305661 0
0.589049 0.617855 0
0.785398 0.617855 0
0 0.617855 0
0.19635 0.617855 0
0 0.930569 0
0.19635 0.930569 0
0.19635 0.617855 0
0.392699 0.617855 0
0.19635 0.930569 0
0.392699 0.930569 0
0 0.930569 0
0.19635 0.930569 0
0 1.24339 0
0.19635 1.24339 0
0.19635 0.930569 0
0.392699 0.930569 0
0.19635 1.24339 0
0.392699 1.24339 0
0.392699 0.617855 0
0.589049 0.617855 0
0.392699 0.930569 0
0.589049 0.930569 0
0.589049 0.617855 0
0.785398 0.617855 0
0.589049 0.930569 0
0.785398 0.930569 0
0.392699 0.930569 0
0.589049 0.930569 0
0.392699 1.24339 0
0.589049 1.24339 0
0.589049 0.930569 0
0.785398 0.930569 0
0.589049 1.24339 0
0.785398 1.24339 0
0.785398 0 0
0.981748 0 0
0.785398 0.305661 0
0.981748 0.305661 0
0.981748 0 0
1.1781 0 0
0.981748 0.305661 0
1.1781 0.305661 0
0.785398 0.305661 0
0.981748 0.305661 0
0.785398 0.617855 0
0.981748 0.617855 0
0.981748 0.305661 0
1.1781 0.305661 0
0.981748 0.617855 0
1.1781 0.617855 0
1.1781 0 0
1.37445 0 0
1.1781 0.305661 0
1.37445 0.305661 0
1.37445 0 0
1.5708 0 0
1.37445 0.305661 0
1.5708 0.305661 0
1.1781 0.305661 0
1.37445 0.305661 0
1.1781 0.617855 0
1.37445 0.617855 0
1.37445 0.305661 0
1.5708 0.305661 0
1.37445 0.617855 0
1.5708 0.617855 0
0.785398 0.617855 0
0.981748 0.617855 0
0.785398 0.930569 0
0.981748 0.930569 0
0.981748 0.617855 0
1.1781 0.617855 0
0.981748 0.930569 0
1.1781 0.930569 0
0.785398 0.930569 0
0.981748 0.930569 0
0.785398 1.24339 0
0.981748 1.24339 0
0.981748 0.930569 0
1.1781 0.930569 0
0.981748 1.24339 0
1.1781 1.24339 0
1.1781 0.617855 0
1.37445 0.617855 0
1.1781 0.930569 0
1.37445 0.930569 0
1.37445 0.617855 0
1.5708 0.617855 0
1.37445 0.930569 0
1.5708 0.930569 0
1.1781 0.930569 0
1.37445 0.930569 0
1.1781 1.24339 0
1.37445 1.24339 0
1.37445 0.930569 0
1.5708 0.930569 0
1.37445 1.24339 0
1.5708 1.24339 0
0 1.24339 0
0.19635 1.24339 0
0 1.5562 0
0.19635 1.5562 0
0.19635 1.24339 0
0.392699 1.24339 0
0.19635 1.5562 0
0.392699 1.5562 0
0 1.5562 0
0.19635 1.5562 0
0 1.869 0
0.19635 1.869 0
0.19635 1.5562 0
0.392699 1.5562 0
0.19635 1.869 0
0.392699 1.869 0
0.392699 1.24339 0
0.589049 1.24339 0
0.392699 1.5562 0
0.589049 1.5562 0
0.589049 1.24339 0
0.785398 1.24339 0
0.589049 1.5562 0
0.785398 1.5562 0
0.392699 1.5562 0
0.589049 1.5562 0
0.392699 1.869 0
0.589049 1.869 0
0.589049 1.5562 0
0.785398 1.5562 0
0.589049 1.869 0
0.785398 1.869 0
0 1.869 0
0.19635 1.869 0
0 2.18179 0
0.19635 2.18179 0
0.19635 1.869 0
0.392699 1.869 0
0.19635 2.18179 0
0.392699 2.18179 0
0 2.18179 0
0.19635 2.18179 0
0 2.49458 0
0.19635 2.49458 0
0.19635 2.18179 0
0.392699 2.18179 0
0.19635 2.49458 0
0.392699 2.49458 0
0.392699 1.869 0
0.589049 1.869 0
0.392699 2.18179 0
0.589049 2.18179 0
0.589049 1.869 0
0.785398 1.869 0
0.589049 2.18179 0
0.785398 2.18179 0
0.392699 2.18179 0
0.589049 2.18179 0
0.392699 2.49458 0
0.589049 2.49458 0
0.589049 2.18179 0
0.785398 2.18179 0
0.589049 2.49458 0
0.785398 2.49458 0
0.785398 1.24339 0
0.981748 1.24339 0
0.785398 1.5562 0
0.981748 1.5562 0
0.981748 1.24339 0
1.1781 1.24339 0
0.981748 1.5562 0
1.1781 1.5562 0
0.785398 1.5562 0
0.981748 1.5562 0
0.785398 1.869 0
0.981748 1.869 0
0.981748 1.5562 0
1.1781 1.5562 0
0.981748 1.869 0
1.1781 1.869 0
1.1781 1.24339 0
1.37445 1.24339 0
1.1781 1.5562 0
1.37445 1.5562 0
1.37445 1.24339 0
1.5708 1.24339 0
1.37445 1.5562 0
1.5708 1.5562 0
1.1781 1.5562 0
1.37445 1.5562 0
1.1781 1.869 0
1.37445 1.869 0
1.37445 1.5562 0
1.5708 1.5562 0
1.37445 1.869 0
1.5708 1.869 0
0.785398 1.869 0
0.981748 1.869 0
0.785398 2.18179 0
0.981748 2.18179 0
0.981748 1.869 0
1.1781 1.869 0
0.981748 2.18179 0
1.1781 2.18179 0
0.785398 2.18179 0
0.981748 2.18179 0
0.785398 2.49458 0
0.981748 2.49458 0
0.981748 2.18179 0
1.1781 2.18179 0
0.981748 2.49458 0
1.1781 2.49458 0
1.1781 1.869 0
1.37445 1.869 0
1.1781 2.18179 0
1.37445 2.18179 0
1.37445 1.869 0
1.5708 1.869 0
1.37445 2.18179 0
1.5708 2.18179 0
1.1781 2.18179 0
1.37445 2.18179 0
1.1781 2.49458 0
1.37445 2.49458 0
1.37445 2.18179 0
1.5708 2.18179 0
1.37445 2.49458 0
1.5708 2.49458 0
1.5708 0 0
1.76715 0 0
1.5708 0.305661 0
1.76715 0.305661 0
1.76715 0 0
1.9635 0 0
1.76715 0.305661 0
1.9635 0.305661 0
1.5708 0.305661 0
1.76715 0.305661 0
1.5708 0.617855 0
1.76715 0.617855 0
1.76715 0.305661 0
1.9635 0.305661 0
1.76715 0.617855 0
1.9635 0.617855 0
1.9635 0 0
2.15984 0 0
1.9635 0.305661 0
2.15984 0.305661 0
2.15984 0 0
2.35619 0 0
2.15984 0.305661 0
2.35619 0.305661 0
1.9635 0.305661 0
2.15984 0.305661 0
1.9635 0.617855 0
2.15984 0.617855 0
2.15984 0.305661 0
2.35619 0.305661 0
2.15984 0.617855 0
2.35619 0.617855 0
1.5708 0.617855 0
1.76715 0.617855 0
1.5708 0.930569 0
1.76715 0.930569 0
1.76715 0.617855 0
1.9635 0.617855 0
1.76715 0.930569 0
1.9635 0.930569 0
1.5708 0.930569 0
1.76715 0.930569 0
1.5708 1.24339 0
1.76715 1.24339 0
1.76715 0.930569 0
1.9635 0.930569 0
1.76715 1.24339 0
1.9635 1.24339 0
1.9635 0.617855 0
2.15984 0.617855 0
1.9635 0.930569 0
2.15984 0.930569 0
2.15984 0.617855 0
2.35619 0.617855 0
2.15984 0.930569 0
2.35619 0.930569 0
1.9635 0.930569 0
2.15984 0.930569 0
1.9635 1.24339 0
2.15984 1.24339 0
2.15984 0.930569 0
2.35619 0.930569 0
2.15984 1.24339 0
2.35619 1.24339 0
2.35619 0 0
2.55254 0 0
2.35619 0.305661 0
2.55254 0.305661 0
2.55254 0 0
2.74889 0 0
2.55254 0.305661 0
2.74889 0.305661 0
2.35619 0.305661 0
2.55254 0.305661 0
2.35619 0.617855 0
2.55254 0.617855 0
2.55254 0.305661 0
2.74889 0.305661 0
2.55254 0.617855 0
2.74889 0.617855 0
2.74889 0 0
2.94524 0 0
2.74889 0.305661 0
2.94524 0.305661 0
2.94524 0 0
3.14159 0 0
2.94524 0.305661 0
3.14159 0.305661 0
2.74889 0.305661 0
2.94524 0.305661 0
2.74889 0.617855 0
2.94524 0.617855 0
2.94524 0.305661 0
3.14159 0.305661 0
2.94524 0.617855 0
3.14159 0.617855 0
2.35619 0.617855 0
2.55254 0.617855 0
2.35619 0.930569 0
2.55254 0.930569 0
2.55254 0.617855 0
2.74889 0.617855 0
2.55254 0.930569 0
2.74889 0.930569 0
2.35619 0.930569 0
2.55254 0.930569 0
2.35619 1.24339 0
2.55254 1.24339 0
2.55254 0.930569 0
2.74889 0.930569 0
2.55254 1.24339 0
2.74889 1.24339 0
2.74889 0.617855 0
2.94524 0.617855 0
2.74889 0.930569 0
2.94524 0.930569 0
2.94524 0.617855 0
3.14159 0.617855 0
2.94524 0.930569 0
3.14159 0.930569 0
2.74889 0.930569 0
2.94524 0.930569 0
2.74889 1.24339 0
2.94524 1.24339 0
2.94524 0.930569 0
3.14159 0.930569 0
2.94524 1.24339 0
3.14159 1.24339 0
1.5708 1.24339 0
1.76715 1.24339 0
1.5708 1.5562 0
1.76715 1.5562 0
1.76715 1.24339 0
1.9635 1.24339 0
1.76715 1.5562 0
1.9635 1.5562 0
1.5708 1.5562 0
1.76715 1.5562 0
1.5708 1.869 0
1.76715 1.869 0
1.76715 1.5562 0
1.9635 1.5562 0
1.76715 1.869 0
1.9635 1.869 0
1.9635 1.24339 0
2.15984 1.24339 0
1.9635 1.5562 0
2.15984 1.5562 0
2.15984 1.24339 0
2.35619 1.24339 0
2.15984 1.5562 0
2.35619 1.5562 0
1.9635 1.5562 0
2.15984 1.5562 0
1.9635 1.869 0
2.15984 1.869 0
2.15984 1.5562 0
2.35619 1.5562 0
2.15984 1.869 0
2.35619 1.869 0
1.5708 1.869 0
1.76715 1.869 0
1.5708 2.18179 0
1.76715 2.18179 0
1.76715 1.869 0
1.9635 1.869 0
1.76715 2.18179 0
1.9635 2.18179 0
1.5708 2.18179 0
1.76715 2.18179 0
1.5708 2.49458 0
1.76715 2.49458 0
1.76715 2.18179 0
1.9635 2.18179 0
1.76715 2.49458 0
1.9635 2.49458 0
1.9635 1.869 0
2.15984 1.869 0
1.9635 2.18179 0
2.15984 2.18179 0
2.15984 1.869 0
2.35619 1.869 0
2.15984 2.18179 0
2.35619 2.18179 0
1.9635 2.18179 0
2.15984 2.18179 0
1.9635 2.49458 0
2.15984 2.49458 0
2.15984 2.18179 0
2.35619 2.18179 0
2.15984 2.49458 0
2.35619 2.49458 0
2.35619 1.24339 0
2.55254 1.24339 0
2.35619 1.5562 0
2.55254 1.5562 0
2.55254 1.24339 0
2.74889 1.24339 0
2.55254 1.5562 0
2.74889 1.5562 0
2.35619 1.5562 0
2.55254 1.5562 0
2.35619 1.869 0
2.55254 1.869 0
2.55254 1.5562 0
2.74889 1.5562 0
2.55254 1.869 0
2.74889 1.869 0
2.74889 1.24339 0
2.94524 1.24339 0
2.74889 1.5562 0
2.94524 1.5562 0
2.94524 1.24339 0
3.14159 1.24339 0
2.94524 1.5562 0
3.14159 1.5562 0
2.74889 1.5562 0
2.94524 1.5562 0
2.74889 1.869 0
2.94524 1.869 0
2.94524 1.5562 0
3.14159 1.5562 0
2.94524 1.869 0
3.14159 1.869 0
2.35619 1.869 0
2.55254 1.869 0
2.35619 2.18179 0
2.55254 2.18179 0
2.55254 1.869 0
2.74889 1.869 0
2.55254 2.18179 0
2.74889 2.18179 0
2.35619 2.18179 0
2.55254 2.18179 0
2.35619 2.49458 0
2.55254 2.49458 0
2.55254 2.18179 0
2.74889 2.18179 0
2.55254 2.49458 0
2.74889 2.49458 0
2.74889 1.869 0
2.94524 1.869 0
2.74889 2.18179 0
2.94524 2.18179 0
2.94524 1.869 0
3.14159 1.869 0
2.94524 2.18179 0
3.14159 2.18179 0
2.74889 2.18179 0
2.94524 2.18179 0
2.74889 2.49458 0
2.94524 2.49458 0
2.94524 2.18179 0
3.14159 2.18179 0
2.94524 2.49458 0
3.14159 2.49458 0
0 2.49458 0
0.19635 2.49458 0
0 2.80736 0
0.19635 2.80736 0
0.19635 2.49458 0
0.392699 2.49458 0
0.19635 2.80736 0
0.392699 2.80736 0
0 2.80736 0
0.19635 2.80736 0
0 3.12012 0
0.19635 3.12012 0
0.19635 2.80736 0
0.392699 2.80736 0
0.19635 3.12012 0
0.392699 3.12012 0
0.392699 2.49458 0
0.589049 2.49458 0
0.392699 2.80736 0
0.589049 2.80736 0
0.589049 2.49458 0
0.785398 2.49458 0
0.589049 2.80736 0
0.785398 2.80736 0
0.392699 2.80736 0
0.589049 2.80736 0
0.392699 3.12012 0
0.589049 3.12012 0
0.589049 2.80736 0
0.785398 2.80736 0
0.589049 3.12012 0
0.785398 3.12012 0
0 3.12012 0
0.19635 3.12012 0
0 3.43288 0
0.19635 3.43288 0
0.19635 3.12012 0
0.392699 3.12012 0
0.19635 3.43288 0
0.392699 3.43288 0
0 3.43288 0
0.19635 3.43288 0
0 3.74564 0
0.19635 3.74564 0
0.19635 3.43288 0
0.392699 3.43288 0
0.19635 3.74564 0
0.392699 3.74564 0
0.392699 3.12012 0
0.589049 3.12012 0
[...]
POINT_DATA 20480
VECTORS uf double
0 1 0
-1.89732e-13 1 0
0 1.44183 0
3.14362e-13 1.44183 0
-1.89732e-13 1 0
-2.94533e-14 1 0
3.14362e-13 1.44183 0
-9.02754e-15 1.44183 0
0 1.44183 0
3.13171e-13 1.44183 0
0 1.41111 0
-1.62752e-13 1.41111 0
3.13171e-13 1.44183 0
-2.47151e-13 1.44183 0
-1.62752e-13 1.41111 0
3.62551e-13 1.41111 0
-2.94533e-14 1 0
4.93721e-14 1 0
-9.02754e-15 1.44183 0
-1.03484e-13 1.44183 0
4.93721e-14 1 0
-1.14889e-13 1 0
-1.03484e-13 1.44183 0
2.52542e-13 1.44183 0
-2.47151e-13 1.44183 0
-4.16368e-13 1.44183 0
3.62551e-13 1.41111 0
4.78215e-13 1.41111 0
-4.16368e-13 1.44183 0
4.06297e-13 1.44183 0
4.78215e-13 1.41111 0
-4.66768e-16 1.41111 0
0 1.41111 0
1.96569e-15 1.41111 0
0 1.39618 0
-1.00082e-13 1.39618 0
1.96569e-15 1.41111 0
3.55435e-13 1.41111 0
-1.00082e-13 1.39618 0
-2.67449e-13 1.39618 0
0 1.39618 0
-1.10279e-13 1.39618 0
0 1.37611 0
-2.83217e-14 1.37611 0
-1.10279e-13 1.39618 0
-1.48784e-13 1.39618 0
-2.83217e-14 1.37611 0
3.36743e-13 1.37611 0
3.55435e-13 1.41111 0
4.55077e-13 1.41111 0
-2.67449e-13 1.39618 0
-2.72818e-13 1.39618 0
4.55077e-13 1.41111 0
-2.40648e-14 1.41111 0
-2.72818e-13 1.39618 0
2.91085e-13 1.39618 0
-1.48784e-13 1.39618 0
1.89826e-13 1.39618 0
3.36743e-13 1.37611 0
-4.16505e-13 1.37611 0
1.89826e-13 1.39618 0
3.49916e-13 1.39618 0
-4.16505e-13 1.37611 0
-5.9952e-14 1.37611 0
-1.14889e-13 1 0
-2.84083e-13 1 0
2.52542e-13 1.44183 0
3.86885e-13 1.44183 0
-2.84083e-13 1 0
4.51284e-14 1 0
3.86885e-13 1.44183 0
-8.67661e-14 1.44183 0
4.06297e-13 1.44183 0
1.95346e-13 1.44183 0
-4.66768e-16 1.41111 0
-3.33721e-13 1.41111 0
1.95346e-13 1.44183 0
4.8689e-13 1.44183 0
-3.33721e-13 1.41111 0
-5.28623e-13 1.41111 0
4.51284e-14 1 0
7.22963e-13 1 0
-8.67661e-14 1.44183 0
-1.24833e-12 1.44183 0
7.22963e-13 1 0
3.36265e-13 1 0
-1.24833e-12 1.44183 0
-7.173e-13 1.44183 0
4.8689e-13 1.44183 0
-1.3572e-12 1.44183 0
-5.28623e-13 1.41111 0
3.93508e-13 1.41111 0
-1.3572e-12 1.44183 0
-3.7333e-13 1.44183 0
3.93508e-13 1.41111 0
2.13022e-13 1.41111 0
-2.40648e-14 1.41111 0
-2.56362e-13 1.41111 0
2.91085e-13 1.39618 0
1.19058e-13 1.39618 0
-2.56362e-13 1.41111 0
-3.82307e-13 1.41111 0
1.19058e-13 1.39618 0
4.9906e-14 1.39618 0
3.49916e-13 1.39618 0
-6.62655e-14 1.39618 0
-5.9952e-14 1.37611 0
9.05274e-16 1.37611 0
-6.62655e-14 1.39618 0
-3.17266e-13 1.39618 0
9.05274e-16 1.37611 0
1.01422e-13 1.37611 0
-3.82307e-13 1.41111 0
-2.51118e-13 1.41111 0
4.9906e-14 1.39618 0
3.49922e-15 1.39618 0
-2.51118e-13 1.41111 0
-4.25619e-14 1.41111 0
3.49922e-15 1.39618 0
-3.03572e-13 1.39618 0
-3.17266e-13 1.39618 0
-1.57165e-13 1.39618 0
1.01422e-13 1.37611 0
8.76396e-14 1.37611 0
-1.57165e-13 1.39618 0
9.35073e-14 1.39618 0
8.76396e-14 1.37611 0
-2.98694e-13 1.37611 0
0 1.37611 0
-4.51634e-14 1.37611 0
0 1.35842 0
9.47057e-14 1.35842 0
-4.51634e-14 1.37611 0
4.9416e-13 1.37611 0
9.47057e-14 1.35842 0
-4.36653e-13 1.35842 0
0 1.35842 0
1.66837e-13 1.35842 0
0 1.34114 0
-1.59569e-13 1.34114 0
1.66837e-13 1.35842 0
-2.81666e-13 1.35842 0
-1.59569e-13 1.34114 0
2.73473e-14 1.34114 0
4.9416e-13 1.37611 0
-3.52414e-13 1.37611 0
-4.36653e-13 1.35842 0
2.30186e-13 1.35842 0
-3.52414e-13 1.37611 0
-8.44176e-14 1.37611 0
2.30186e-13 1.35842 0
2.55843e-13 1.35842 0
-2.81666e-13 1.35842 0
1.1469e-13 1.35842 0
2.73473e-14 1.34114 0
-1.53511e-13 1.34114 0
1.1469e-13 1.35842 0
1.22084e-13 1.35842 0
-1.53511e-13 1.34114 0
1.37592e-13 1.34114 0
0 1.34114 0
-1.17735e-13 1.34114 0
0 1.32477 0
-8.87118e-14 1.32477 0
-1.17735e-13 1.34114 0
-1.60196e-13 1.34114 0
-8.87118e-14 1.32477 0
1.02416e-13 1.32477 0
0 1.32477 0
-1.56325e-13 1.32477 0
0 1.30914 0
1.67384e-13 1.30914 0
-1.56325e-13 1.32477 0
1.13682e-13 1.32477 0
1.67384e-13 1.30914 0
1.20271e-14 1.30914 0
-1.60196e-13 1.34114 0
-2.89102e-14 1.34114 0
1.02416e-13 1.32477 0
7.30018e-14 1.32477 0
-2.89102e-14 1.34114 0
2.6938e-13 1.34114 0
7.30018e-14 1.32477 0
-2.74372e-13 1.32477 0
1.13682e-13 1.32477 0
1.24199e-13 1.32477 0
1.20271e-14 1.30914 0
-2.47603e-13 1.30914 0
1.24199e-13 1.32477 0
-2.33821e-13 1.32477 0
-2.47603e-13 1.30914 0
2.99919e-13 1.30914 0
-8.44176e-14 1.37611 0
6.05408e-14 1.37611 0
2.55843e-13 1.35842 0
-1.62732e-13 1.35842 0
6.05408e-14 1.37611 0
2.72803e-14 1.37611 0
-1.62732e-13 1.35842 0
-1.05821e-13 1.35842 0
1.22084e-13 1.35842 0
-2.84805e-13 1.35842 0
1.37592e-13 1.34114 0
1.50305e-13 1.34114 0
-2.84805e-13 1.35842 0
2.76657e-14 1.35842 0
1.50305e-13 1.34114 0
-1.52979e-13 1.34114 0
2.72803e-14 1.37611 0
-2.15967e-13 1.37611 0
-1.05821e-13 1.35842 0
1.06995e-13 1.35842 0
-2.15967e-13 1.37611 0
-3.88976e-13 1.37611 0
1.06995e-13 1.35842 0
2.19753e-13 1.35842 0
2.76657e-14 1.35842 0
-4.25127e-14 1.35842 0
-1.52979e-13 1.34114 0
8.51742e-14 1.34114 0
-4.25127e-14 1.35842 0
1.75816e-13 1.35842 0
8.51742e-14 1.34114 0
-3.97109e-13 1.34114 0
2.6938e-13 1.34114 0
9.06294e-14 1.34114 0
-2.74372e-13 1.32477 0
-2.2958e-13 1.32477 0
9.06294e-14 1.34114 0
-1.93528e-13 1.34114 0
-2.2958e-13 1.32477 0
1.31879e-14 1.32477 0
-2.33821e-13 1.32477 0
-1.88767e-13 1.32477 0
2.99919e-13 1.30914 0
2.66267e-13 1.30914 0
-1.88767e-13 1.32477 0
-2.65122e-14 1.32477 0
2.66267e-13 1.30914 0
-2.55321e-13 1.30914 0
-1.93528e-13 1.34114 0
-3.61994e-13 1.34114 0
1.31879e-14 1.32477 0
4.41377e-13 1.32477 0
-3.61994e-13 1.34114 0
1.62837e-14 1.34114 0
4.41377e-13 1.32477 0
9.79451e-14 1.32477 0
-2.65122e-14 1.32477 0
8.12873e-14 1.32477 0
-2.55321e-13 1.30914 0
-2.41506e-13 1.30914 0
8.12873e-14 1.32477 0
2.79996e-13 1.32477 0
-2.41506e-13 1.30914 0
-7.79812e-14 1.30914 0
3.36265e-13 1 0
-3.24355e-13 1 0
-7.173e-13 1.44183 0
5.61233e-13 1.44183 0
-3.24355e-13 1 0
-2.51694e-13 1 0
5.61233e-13 1.44183 0
1.93711e-13 1.44183 0
-3.7333e-13 1.44183 0
6.75302e-13 1.44183 0
2.13022e-13 1.41111 0
-4.75697e-13 1.41111 0
6.75302e-13 1.44183 0
3.97413e-13 1.44183 0
-4.75697e-13 1.41111 0
-2.31672e-13 1.41111 0
-2.51694e-13 1 0
-3.33599e-13 1 0
1.93711e-13 1.44183 0
3.05634e-13 1.44183 0
-3.33599e-13 1 0
3.03217e-13 1 0
3.05634e-13 1.44183 0
-6.42368e-14 1.44183 0
3.97413e-13 1.44183 0
-2.66592e-13 1.44183 0
-2.31672e-13 1.41111 0
1.69107e-13 1.41111 0
-2.66592e-13 1.44183 0
2.5376e-13 1.44183 0
1.69107e-13 1.41111 0
-2.81705e-13 1.41111 0
-4.25619e-14 1.41111 0
-1.63466e-13 1.41111 0
-3.03572e-13 1.39618 0
1.13503e-13 1.39618 0
-1.63466e-13 1.41111 0
-1.62202e-13 1.41111 0
1.13503e-13 1.39618 0
4.22761e-14 1.39618 0
9.35073e-14 1.39618 0
-6.55191e-14 1.39618 0
-2.98694e-13 1.37611 0
6.84508e-14 1.37611 0
-6.55191e-14 1.39618 0
5.05991e-14 1.39618 0
6.84508e-14 1.37611 0
-2.56938e-13 1.37611 0
-1.62202e-13 1.41111 0
4.41579e-13 1.41111 0
4.22761e-14 1.39618 0
-2.3834e-13 1.39618 0
4.41579e-13 1.41111 0
-4.30054e-13 1.41111 0
-2.3834e-13 1.39618 0
2.19384e-13 1.39618 0
5.05991e-14 1.39618 0
-5.22095e-13 1.39618 0
-2.56938e-13 1.37611 0
5.60035e-13 1.37611 0
-5.22095e-13 1.39618 0
-1.86083e-13 1.39618 0
5.60035e-13 1.37611 0
2.12888e-13 1.37611 0
3.03217e-13 1 0
1.07768e-13 1 0
-6.42368e-14 1.44183 0
-1.81705e-13 1.44183 0
1.07768e-13 1 0
-1.13818e-13 1 0
-1.81705e-13 1.44183 0
-5.51176e-14 1.44183 0
2.5376e-13 1.44183 0
-1.88975e-13 1.44183 0
-2.81705e-13 1.41111 0
1.42979e-13 1.41111 0
-1.88975e-13 1.44183 0
-3.50457e-13 1.44183 0
1.42979e-13 1.41111 0
2.04258e-13 1.41111 0
-1.13818e-13 1 0
-2.21422e-13 1 0
-5.51176e-14 1.44183 0
2.11385e-13 1.44183 0
-2.21422e-13 1 0
1.45001e-13 1 0
2.11385e-13 1.44183 0
-1.91121e-13 1.44183 0
-3.50457e-13 1.44183 0
1.69673e-13 1.44183 0
2.04258e-13 1.41111 0
-7.80977e-14 1.41111 0
1.69673e-13 1.44183 0
3.05586e-13 1.44183 0
-7.80977e-14 1.41111 0
-1.20878e-13 1.41111 0
-4.30054e-13 1.41111 0
-3.6843e-14 1.41111 0
2.19384e-13 1.39618 0
4.38004e-14 1.39618 0
-3.6843e-14 1.41111 0
-2.60655e-13 1.41111 0
4.38004e-14 1.39618 0
2.54634e-13 1.39618 0
-1.86083e-13 1.39618 0
6.75221e-13 1.39618 0
2.12888e-13 1.37611 0
-6.63418e-13 1.37611 0
6.75221e-13 1.39618 0
-3.27209e-14 1.39618 0
-6.63418e-13 1.37611 0
2.00615e-13 1.37611 0
-2.60655e-13 1.41111 0
3.79538e-14 1.41111 0
2.54634e-13 1.39618 0
-1.01979e-13 1.39618 0
3.79538e-14 1.41111 0
1.37051e-13 1.41111 0
-1.01979e-13 1.39618 0
-1.97711e-13 1.39618 0
-3.27209e-14 1.39618 0
-3.21418e-13 1.39618 0
2.00615e-13 1.37611 0
-2.53407e-13 1.37611 0
-3.21418e-13 1.39618 0
1.01217e-13 1.39618 0
-2.53407e-13 1.37611 0
1.20977e-13 1.37611 0
-3.88976e-13 1.37611 0
3.97384e-13 1.37611 0
2.19753e-13 1.35842 0
-5.26299e-13 1.35842 0
3.97384e-13 1.37611 0
-1.28548e-13 1.37611 0
-5.26299e-13 1.35842 0
2.16844e-13 1.35842 0
1.75816e-13 1.35842 0
-1.22428e-13 1.35842 0
-3.97109e-13 1.34114 0
3.4652e-13 1.34114 0
-1.22428e-13 1.35842 0
-8.88883e-14 1.35842 0
3.4652e-13 1.34114 0
-6.61796e-14 1.34114 0
-1.28548e-13 1.37611 0
-7.66015e-14 1.37611 0
2.16844e-13 1.35842 0
-2.24352e-13 1.35842 0
-7.66015e-14 1.37611 0
-5.91218e-14 1.37611 0
-2.24352e-13 1.35842 0
-1.42478e-13 1.35842 0
-8.88883e-14 1.35842 0
-4.5054e-17 1.35842 0
-6.61796e-14 1.34114 0
-1.36904e-13 1.34114 0
-4.5054e-17 1.35842 0
-3.25213e-13 1.35842 0
-1.36904e-13 1.34114 0
8.07681e-14 1.34114 0
1.62837e-14 1.34114 0
2.15908e-13 1.34114 0
9.79451e-14 1.32477 0
-1.73291e-13 1.32477 0
2.15908e-13 1.34114 0
-8.555e-15 1.34114 0
-1.73291e-13 1.32477 0
-1.48907e-13 1.32477 0
2.79996e-13 1.32477 0
-4.90834e-14 1.32477 0
-7.79812e-14 1.30914 0
2.68561e-14 1.30914 0
-4.90834e-14 1.32477 0
9.66104e-14 1.32477 0
2.68561e-14 1.30914 0
1.76614e-14 1.30914 0
-8.555e-15 1.34114 0
-1.17383e-13 1.34114 0
-1.48907e-13 1.32477 0
2.15938e-13 1.32477 0
-1.17383e-13 1.34114 0
3.26901e-13 1.34114 0
2.15938e-13 1.32477 0
-2.74594e-13 1.32477 0
9.66104e-14 1.32477 0
-8.6668e-14 1.32477 0
1.76614e-14 1.30914 0
-1.45155e-13 1.30914 0
-8.6668e-14 1.32477 0
2.81901e-13 1.32477 0
-1.45155e-13 1.30914 0
-2.22495e-13 1.30914 0
-5.91218e-14 1.37611 0
2.41684e-13 1.37611 0
-1.42478e-13 1.35842 0
1.55904e-13 1.35842 0
2.41684e-13 1.37611 0
-3.76533e-13 1.37611 0
1.55904e-13 1.35842 0
9.87912e-14 1.35842 0
-3.25213e-13 1.35842 0
-4.01508e-14 1.35842 0
8.07681e-14 1.34114 0
9.30166e-14 1.34114 0
-4.01508e-14 1.35842 0
-9.65473e-14 1.35842 0
9.30166e-14 1.34114 0
-3.87733e-14 1.34114 0
-3.76533e-13 1.37611 0
4.05878e-13 1.37611 0
9.87912e-14 1.35842 0
-4.5276e-13 1.35842 0
4.05878e-13 1.37611 0
-5.6612e-13 1.37611 0
-4.5276e-13 1.35842 0
4.52995e-13 1.35842 0
-9.65473e-14 1.35842 0
-1.2196e-13 1.35842 0
-3.87733e-14 1.34114 0
3.29505e-13 1.34114 0
-1.2196e-13 1.35842 0
1.72798e-13 1.35842 0
3.29505e-13 1.34114 0
-2.37485e-13 1.34114 0
3.26901e-13 1.34114 0
-5.63774e-13 1.34114 0
-2.74594e-13 1.32477 0
6.89908e-13 1.32477 0
-5.63774e-13 1.34114 0
3.58616e-15 1.34114 0
6.89908e-13 1.32477 0
-2.10606e-13 1.32477 0
2.81901e-13 1.32477 0
-5.66815e-13 1.32477 0
-2.22495e-13 1.30914 0
2.14666e-13 1.30914 0
-5.66815e-13 1.32477 0
-2.49352e-15 1.32477 0
2.14666e-13 1.30914 0
1.13534e-13 1.30914 0
3.58616e-15 1.34114 0
4.45048e-13 1.34114 0
-2.10606e-13 1.32477 0
-5.28641e-13 1.32477 0
4.45048e-13 1.34114 0
-1.5751e-13 1.34114 0
-5.28641e-13 1.32477 0
1.51745e-13 1.32477 0
-2.49352e-15 1.32477 0
-3.63866e-14 1.32477 0
1.13534e-13 1.30914 0
4.81671e-14 1.30914 0
-3.63866e-14 1.32477 0
3.23219e-13 1.32477 0
4.81671e-14 1.30914 0
-1.86184e-13 1.30914 0
0 1.30914 0
-1.63204e-14 1.30914 0
0 1.29424 0
1.12649e-13 1.29424 0
-1.63204e-14 1.30914 0
2.5147e-13 1.30914 0
1.12649e-13 1.29424 0
-3.95412e-13 1.29424 0
0 1.29424 0
2.51069e-13 1.29424 0
0 1.28004 0
-2.17768e-13 1.28004 0
2.51069e-13 1.29424 0
-4.9998e-13 1.29424 0
-2.17768e-13 1.28004 0
2.97715e-13 1.28004 0
2.5147e-13 1.30914 0
-4.78855e-13 1.30914 0
-3.95412e-13 1.29424 0
5.07522e-13 1.29424 0
-4.78855e-13 1.30914 0
2.21759e-13 1.30914 0
5.07522e-13 1.29424 0
-1.34188e-13 1.29424 0
-4.9998e-13 1.29424 0
5.32941e-13 1.29424 0
2.97715e-13 1.28004 0
-2.80916e-13 1.28004 0
5.32941e-13 1.29424 0
7.46498e-14 1.29424 0
-2.80916e-13 1.28004 0
-2.46061e-15 1.28004 0
0 1.28004 0
-8.45727e-14 1.28004 0
0 1.26649 0
-5.28979e-14 1.26649 0
-8.45727e-14 1.28004 0
1.50687e-13 1.28004 0
-5.28979e-14 1.26649 0
2.45378e-14 1.26649 0
0 1.26649 0
-1.04389e-14 1.26649 0
0 1.25358 0
-8.55638e-14 1.25358 0
-1.04389e-14 1.26649 0
1.36164e-13 1.26649 0
-8.55638e-14 1.25358 0
-1.10357e-13 1.25358 0
1.50687e-13 1.28004 0
-2.90932e-13 1.28004 0
2.45378e-14 1.26649 0
5.89156e-14 1.26649 0
-2.90932e-13 1.28004 0
-5.68508e-14 1.28004 0
5.89156e-14 1.26649 0
-6.22442e-14 1.26649 0
1.36164e-13 1.26649 0
-8.26815e-14 1.26649 0
-1.10357e-13 1.25358 0
7.26758e-14 1.25358 0
-8.26815e-14 1.26649 0
-8.29015e-14 1.26649 0
7.26758e-14 1.25358 0
1.40261e-13 1.25358 0
2.21759e-13 1.30914 0
2.23461e-13 1.30914 0
-1.34188e-13 1.29424 0
-1.67395e-13 1.29424 0
2.23461e-13 1.30914 0
-3.2186e-13 1.30914 0
-1.67395e-13 1.29424 0
3.85417e-13 1.29424 0
7.46498e-14 1.29424 0
-2.51576e-13 1.29424 0
-2.46061e-15 1.28004 0
2.35245e-13 1.28004 0
-2.51576e-13 1.29424 0
2.94835e-14 1.29424 0
2.35245e-13 1.28004 0
-1.56287e-15 1.28004 0
-3.2186e-13 1.30914 0
-1.09511e-13 1.30914 0
3.85417e-13 1.29424 0
-1.49329e-13 1.29424 0
-1.09511e-13 1.30914 0
9.36715e-14 1.30914 0
-1.49329e-13 1.29424 0
3.66746e-14 1.29424 0
2.94835e-14 1.29424 0
-7.38383e-14 1.29424 0
-1.56287e-15 1.28004 0
1.05378e-13 1.28004 0
-7.38383e-14 1.29424 0
9.26497e-14 1.29424 0
1.05378e-13 1.28004 0
-3.01934e-13 1.28004 0
-5.68508e-14 1.28004 0
1.40642e-13 1.28004 0
-6.22442e-14 1.26649 0
-1.38499e-13 1.26649 0
1.40642e-13 1.28004 0
1.02707e-13 1.28004 0
-1.38499e-13 1.26649 0
-8.69635e-14 1.26649 0
-8.29015e-14 1.26649 0
-1.11665e-13 1.26649 0
1.40261e-13 1.25358 0
1.86665e-13 1.25358 0
-1.11665e-13 1.26649 0
1.09124e-13 1.26649 0
1.86665e-13 1.25358 0
-2.10911e-13 1.25358 0
1.02707e-13 1.28004 0
1.58552e-13 1.28004 0
-8.69635e-14 1.26649 0
-7.05205e-14 1.26649 0
1.58552e-13 1.28004 0
-9.14995e-14 1.28004 0
-7.05205e-14 1.26649 0
-2.04639e-13 1.26649 0
1.09124e-13 1.26649 0
4.60991e-14 1.26649 0
-2.10911e-13 1.25358 0
-8.88256e-14 1.25358 0
4.60991e-14 1.26649 0
-3.30622e-13 1.26649 0
-8.88256e-14 1.25358 0
2.89448e-13 1.25358 0
0 1.25358 0
-1.79769e-13 1.25358 0
0 1.24126 0
1.49561e-13 1.24126 0
-1.79769e-13 1.25358 0
-1.72031e-13 1.25358 0
1.49561e-13 1.24126 0
2.43775e-13 1.24126 0
0 1.24126 0
-4.1048e-14 1.24126 0
0 1.22952 0
2.09203e-13 1.22952 0
-4.1048e-14 1.24126 0
2.12404e-13 1.24126 0
2.09203e-13 1.22952 0
-1.16189e-13 1.22952 0
-1.72031e-13 1.25358 0
1.43171e-13 1.25358 0
2.43775e-13 1.24126 0
-2.7846e-13 1.24126 0
1.43171e-13 1.25358 0
7.56174e-14 1.25358 0
-2.7846e-13 1.24126 0
6.06337e-15 1.24126 0
2.12404e-13 1.24126 0
-2.10624e-13 1.24126 0
-1.16189e-13 1.22952 0
9.07851e-14 1.22952 0
-2.10624e-13 1.24126 0
1.48613e-13 1.24126 0
9.07851e-14 1.22952 0
-1.39159e-13 1.22952 0
0 1.22952 0
2.16461e-13 1.22952 0
0 1.21831 0
2.64046e-14 1.21831 0
2.16461e-13 1.22952 0
7.86166e-14 1.22952 0
2.64046e-14 1.21831 0
-3.27553e-13 1.21831 0
0 1.21831 0
1.4044e-14 1.21831 0
0 1.20764 0
-2.44285e-14 1.20764 0
1.4044e-14 1.21831 0
-3.31038e-13 1.21831 0
-2.44285e-14 1.20764 0
2.78123e-13 1.20764 0
7.86166e-14 1.22952 0
-1.96346e-13 1.22952 0
-3.27553e-13 1.21831 0
1.68608e-13 1.21831 0
-1.96346e-13 1.22952 0
-6.66929e-14 1.22952 0
1.68608e-13 1.21831 0
1.1336e-13 1.21831 0
-3.31038e-13 1.21831 0
2.23604e-13 1.21831 0
2.78123e-13 1.20764 0
-2.06958e-13 1.20764 0
2.23604e-13 1.21831 0
-3.03365e-14 1.21831 0
-2.06958e-13 1.20764 0
-6.10366e-14 1.20764 0
7.56174e-14 1.25358 0
1.78037e-13 1.25358 0
6.06337e-15 1.24126 0
-2.46011e-13 1.24126 0
1.78037e-13 1.25358 0
-2.5825e-13 1.25358 0
-2.46011e-13 1.24126 0
3.79193e-13 1.24126 0
1.48613e-13 1.24126 0
-1.25604e-13 1.24126 0
-1.39159e-13 1.22952 0
5.31925e-14 1.22952 0
-1.25604e-13 1.24126 0
3.07008e-13 1.24126 0
5.31925e-14 1.22952 0
-1.14122e-13 1.22952 0
-2.5825e-13 1.25358 0
1.14805e-13 1.25358 0
3.79193e-13 1.24126 0
-2.1807e-13 1.24126 0
1.14805e-13 1.25358 0
5.35674e-14 1.25358 0
-2.1807e-13 1.24126 0
-1.44066e-13 1.24126 0
3.07008e-13 1.24126 0
-1.23899e-13 1.24126 0
-1.14122e-13 1.22952 0
2.29146e-14 1.22952 0
-1.23899e-13 1.24126 0
-1.77492e-13 1.24126 0
2.29146e-14 1.22952 0
2.19266e-13 1.22952 0
-6.66929e-14 1.22952 0
2.08387e-14 1.22952 0
1.1336e-13 1.21831 0
-5.58907e-14 1.21831 0
2.08387e-14 1.22952 0
-2.31825e-13 1.22952 0
-5.58907e-14 1.21831 0
-1.62177e-13 1.21831 0
-3.03365e-14 1.21831 0
-2.8457e-14 1.21831 0
-6.10366e-14 1.20764 0
-2.45765e-13 1.20764 0
-2.8457e-14 1.21831 0
-8.42125e-14 1.21831 0
-2.45765e-13 1.20764 0
-1.32618e-13 1.20764 0
-2.31825e-13 1.22952 0
-8.56896e-14 1.22952 0
-1.62177e-13 1.21831 0
-1.5699e-13 1.21831 0
-8.56896e-14 1.22952 0
3.69805e-13 1.22952 0
-1.5699e-13 1.21831 0
-2.15171e-13 1.21831 0
-8.42125e-14 1.21831 0
-9.74469e-16 1.21831 0
-1.32618e-13 1.20764 0
1.27912e-13 1.20764 0
-9.74469e-16 1.21831 0
-4.21032e-15 1.21831 0
1.27912e-13 1.20764 0
1.35682e-13 1.20764 0
9.36715e-14 1.30914 0
-1.27726e-13 1.30914 0
3.66746e-14 1.29424 0
-1.58298e-13 1.29424 0
-1.27726e-13 1.30914 0
2.31417e-13 1.30914 0
-1.58298e-13 1.29424 0
-3.94399e-13 1.29424 0
9.26497e-14 1.29424 0
7.51607e-15 1.29424 0
-3.01934e-13 1.28004 0
1.55105e-13 1.28004 0
7.51607e-15 1.29424 0
-5.55257e-13 1.29424 0
1.55105e-13 1.28004 0
3.35718e-13 1.28004 0
2.31417e-13 1.30914 0
-2.53658e-13 1.30914 0
-3.94399e-13 1.29424 0
1.75845e-13 1.29424 0
-2.53658e-13 1.30914 0
-3.64402e-13 1.30914 0
1.75845e-13 1.29424 0
2.88327e-13 1.29424 0
-5.55257e-13 1.29424 0
2.91359e-13 1.29424 0
3.35718e-13 1.28004 0
-4.61674e-13 1.28004 0
2.91359e-13 1.29424 0
1.76405e-13 1.29424 0
-4.61674e-13 1.28004 0
-2.48535e-13 1.28004 0
-9.14995e-14 1.28004 0
-4.02537e-14 1.28004 0
-2.04639e-13 1.26649 0
-7.83632e-14 1.26649 0
-4.02537e-14 1.28004 0
-7.41067e-14 1.28004 0
-7.83632e-14 1.26649 0
-1.2483e-14 1.26649 0
-3.30622e-13 1.26649 0
-2.73353e-13 1.26649 0
2.89448e-13 1.25358 0
3.75265e-13 1.25358 0
-2.73353e-13 1.26649 0
2.76104e-13 1.26649 0
3.75265e-13 1.25358 0
-3.51737e-13 1.25358 0
-7.41067e-14 1.28004 0
-1.9588e-13 1.28004 0
-1.2483e-14 1.26649 0
2.30854e-13 1.26649 0
-1.9588e-13 1.28004 0
4.61263e-14 1.28004 0
2.30854e-13 1.26649 0
3.26793e-14 1.26649 0
2.76104e-13 1.26649 0
5.82215e-14 1.26649 0
-3.51737e-13 1.25358 0
-5.29271e-14 1.25358 0
5.82215e-14 1.26649 0
-5.59306e-14 1.26649 0
-5.29271e-14 1.25358 0
-1.86388e-14 1.25358 0
-3.64402e-13 1.30914 0
4.52497e-13 1.30914 0
2.88327e-13 1.29424 0
-5.28019e-13 1.29424 0
4.52497e-13 1.30914 0
-1.44106e-13 1.30914 0
-5.28019e-13 1.29424 0
1.53617e-13 1.29424 0
1.76405e-13 1.29424 0
9.69957e-14 1.29424 0
-2.48535e-13 1.28004 0
1.70682e-14 1.28004 0
9.69957e-14 1.29424 0
-3.6328e-13 1.29424 0
1.70682e-14 1.28004 0
9.13076e-14 1.28004 0
-1.44106e-13 1.30914 0
-1.85069e-13 1.30914 0
1.53617e-13 1.29424 0
7.44299e-15 1.29424 0
-1.85069e-13 1.30914 0
2.33747e-13 1.30914 0
7.44299e-15 1.29424 0
-2.67129e-13 1.29424 0
-3.6328e-13 1.29424 0
-7.06488e-14 1.29424 0
9.13076e-14 1.28004 0
-1.26616e-13 1.28004 0
-7.06488e-14 1.29424 0
-7.32358e-14 1.29424 0
-1.26616e-13 1.28004 0
2.32053e-14 1.28004 0
4.61263e-14 1.28004 0
-1.42344e-13 1.28004 0
3.26793e-14 1.26649 0
3.05216e-13 1.26649 0
-1.42344e-13 1.28004 0
3.33662e-13 1.28004 0
3.05216e-13 1.26649 0
-6.27066e-13 1.26649 0
-5.59306e-14 1.26649 0
-1.71609e-13 1.26649 0
-1.86388e-14 1.25358 0
1.36221e-14 1.25358 0
-1.71609e-13 1.26649 0
3.14357e-14 1.26649 0
1.36221e-14 1.25358 0
1.867e-13 1.25358 0
3.33662e-13 1.28004 0
2.57789e-14 1.28004 0
-6.27066e-13 1.26649 0
1.23702e-13 1.26649 0
2.57789e-14 1.28004 0
-2.49088e-13 1.28004 0
1.23702e-13 1.26649 0
9.42278e-14 1.26649 0
3.14357e-14 1.26649 0
6.08844e-14 1.26649 0
1.867e-13 1.25358 0
-4.11507e-13 1.25358 0
6.08844e-14 1.26649 0
2.24316e-14 1.26649 0
-4.11507e-13 1.25358 0
1.03245e-13 1.25358 0
5.35674e-14 1.25358 0
1.95278e-14 1.25358 0
-1.44066e-13 1.24126 0
-2.98187e-14 1.24126 0
1.95278e-14 1.25358 0
-3.28666e-13 1.25358 0
-2.98187e-14 1.24126 0
1.09988e-13 1.24126 0
-1.77492e-13 1.24126 0
6.87046e-14 1.24126 0
2.19266e-13 1.22952 0
-1.33639e-13 1.22952 0
6.87046e-14 1.24126 0
6.51103e-14 1.24126 0
-1.33639e-13 1.22952 0
-2.33183e-13 1.22952 0