# vtk DataFile Version 3.0
#This file was generated by the deal.II library on 2018/10/15 at 16:29:00
ASCII
DATASET UNSTRUCTURED_GRID

POINTS 20480 double
0 0 0
0.19635 0 0
0 0.299876 0
0.19635 0.299876 0
0.19635 0 0
0.392699 0 0
0.19635 0.299876 0
0.392699 0.299876 0
0 0.299876 0
0.19635 0.299876 0
0 0.611766 0
0.19635 0.611766 0
0.19635 0.299876 0
0.392699 0.299876 0
0.19635 0.611766 0
0.392699 0.611766 0
0.392699 0 0
0.589049 0 0
0.392699 0.299876 0
0.589049 0.299876 0
0.589049 0 0
0.785398 0 0
0.589049 0.299876 0
0.785398 0.299876 0
0.392699 0.299876 0
0.589049 0.299876 0
0.392699 0.611766 0
0.589049 0.611766 0
0.589049 0.299876 0
0.785398 0.299876 0
0.589049 0.611766 0
0.785398 0.611766 0
0 0.611766 0
0.19635 0.611766 0
0 0.924623 0
0.19635 0.924623 0
0.19635 0.611766 0
0.392699 0.611766 0
0.19635 0.924623 0
0.392699 0.924623 0
0 0.924623 0
0.19635 0.924623 0
0 1.23774 0
0.19635 1.23774 0
0.19635 0.924623 0
0.392699 0.924623 0
0.19635 1.23774 0
0.392699 1.23774 0
0.392699 0.611766 0
0.589049 0.611766 0
0.392699 0.924623 0
0.589049 0.924623 0
0.589049 0.611766 0
0.785398 0.611766 0
0.589049 0.924623 0
0.785398 0.924623 0
0.392699 0.924623 0
0.589049 0.924623 0
0.392699 1.23774 0
0.589049 1.23774 0
0.589049 0.924623 0
0.785398 0.924623 0
0.589049 1.23774 0
0.785398 1.23774 0
0.785398 0 0
0.981748 0 0
0.785398 0.299876 0
0.981748 0.299876 0
0.981748 0 0
1.1781 0 0
0.981748 0.299876 0
1.1781 0.299876 0
0.785398 0.299876 0
0.981748 0.299876 0
0.785398 0.611766 0
0.981748 0.611766 0
0.981748 0.299876 0
1.1781 0.299876 0
0.981748 0.611766 0
1.1781 0.611766 0
1.1781 0 0
1.37445 0 0
1.1781 0.299876 0
1.37445 0.299876 0
1.37445 0 0
1.5708 0 0
1.37445 0.299876 0
1.5708 0.299876 0
1.1781 0.299876 0
1.37445 0.299876 0
1.1781 0.611766 0
1.37445 0.611766 0
1.37445 0.299876 0
1.5708 0.299876 0
1.37445 0.611766 0
1.5708 0.611766 0
0.785398 0.611766 0
0.981748 0.611766 0
0.785398 0.924623 0
0.981748 0.924623 0
0.981748 0.611766 0
1.1781 0.611766 0
0.981748 0.924623 0
1.1781 0.924623 0
0.785398 0.924623 0
0.981748 0.924623 0
0.785398 1.23774 0
0.981748 1.23774 0
0.981748 0.924623 0
1.1781 0.924623 0
0.981748 1.23774 0
1.1781 1.23774 0
1.1781 0.611766 0
1.37445 0.611766 0
1.1781 0.924623 0
1.37445 0.924623 0
1.37445 0.611766 0
1.5708 0.611766 0
1.37445 0.924623 0
1.5708 0.924623 0
1.1781 0.924623 0
1.37445 0.924623 0
1.1781 1.23774 0
1.37445 1.23774 0
1.37445 0.924623 0
1.5708 0.924623 0
1.37445 1.23774 0
1.5708 1.23774 0
0 1.23774 0
0.19635 1.23774 0
0 1.55083 0
0.19635 1.55083 0
0.19635 1.23774 0
0.392699 1.23774 0
0.19635 1.55083 0
0.392699 1.55083 0
0 1.55083 0
0.19635 1.55083 0
0 1.86391 0
0.19635 1.86391 0
0.19635 1.55083 0
0.392699 1.55083 0
0.19635 1.86391 0
0.392699 1.86391 0
0.392699 1.23774 0
0.589049 1.23774 0
0.392699 1.55083 0
0.589049 1.55083 0
0.589049 1.23774 0
0.785398 1.23774 0
0.589049 1.55083 0
0.785398 1.55083 0
0.392699 1.55083 0
0.589049 1.55083 0
0.392699 1.86391 0
0.589049 1.86391 0
0.589049 1.55083 0
0.785398 1.55083 0
0.589049 1.86391 0
0.785398 1.86391 0
0 1.86391 0
0.19635 1.86391 0
0 2.17697 0
0.19635 2.17697 0
0.19635 1.86391 0
0.392699 1.86391 0
0.19635 2.17697 0
0.392699 2.17697 0
0 2.17697 0
0.19635 2.17697 0
0 2.49001 0
0.19635 2.49001 0
0.19635 2.17697 0
0.392699 2.17697 0
0.19635 2.49001 0
0.392699 2.49001 0
0.392699 1.86391 0
0.589049 1.86391 0
0.392699 2.17697 0
0.589049 2.17697 0
0.589049 1.86391 0
0.785398 1.86391 0
0.589049 2.17697 0
0.785398 2.17697 0
0.392699 2.17697 0
0.589049 2.17697 0
0.392699 2.49001 0
0.589049 2.49001 0
0.589049 2.17697 0
0.785398 2.17697 0
0.589049 2.49001 0
0.785398 2.49001 0
0.785398 1.23774 0
0.981748 1.23774 0
0.785398 1.55083 0
0.981748 1.55083 0
0.981748 1.23774 0
1.1781 1.23774 0
0.981748 1.55083 0
1.1781 1.55083 0
0.785398 1.55083 0
0.981748 1.55083 0
0.785398 1.86391 0
0.981748 1.86391 0
0.981748 1.55083 0
1.1781 1.55083 0
0.981748 1.86391 0
1.1781 1.86391 0
1.1781 1.23774 0
1.37445 1.23774 0
1.1781 1.55083 0
1.37445 1.55083 0
1.37445 1.23774 0
1.5708 1.23774 0
1.37445 1.55083 0
1.5708 1.55083 0
1.1781 1.55083 0
1.37445 1.55083 0
1.1781 1.86391 0
1.37445 1.86391 0
1.37445 1.55083 0
1.5708 1.55083 0
1.37445 1.86391 0
1.5708 1.86391 0
0.785398 1.86391 0
0.981748 1.86391 0
0.785398 2.17697 0
0.981748 2.17697 0
0.981748 1.86391 0
1.1781 1.86391 0
0.981748 2.17697 0
1.1781 2.17697 0
0.785398 2.17697 0
0.981748 2.17697 0
0.785398 2.49001 0
0.981748 2.49001 0
0.981748 2.17697 0
1.1781 2.17697 0
0.981748 2.49001 0
1.1781 2.49001 0
1.1781 1.86391 0
1.37445 1.86391 0
1.1781 2.17697 0
1.37445 2.17697 0
1.37445 1.86391 0
1.5708 1.86391 0
1.37445 2.17697 0
1.5708 2.17697 0
1.1781 2.17697 0
1.37445 2.17697 0
1.1781 2.49001 0
1.37445 2.49001 0
1.37445 2.17697 0
1.5708 2.17697 0
1.37445 2.49001 0
1.5708 2.49001 0
1.5708 0 0
1.76715 0 0
1.5708 0.299876 0
1.76715 0.299876 0
1.76715 0 0
1.9635 0 0
1.76715 0.299876 0
1.9635 0.299876 0
1.5708 0.299876 0
1.76715 0.299876 0
1.5708 0.611766 0
1.76715 0.611766 0
1.76715 0.299876 0
1.9635 0.299876 0
1.76715 0.611766 0
1.9635 0.611766 0
1.9635 0 0
2.15984 0 0
1.9635 0.299876 0
2.15984 0.299876 0
2.15984 0 0
2.35619 0 0
2.15984 0.299876 0
2.35619 0.299876 0
1.9635 0.299876 0
2.15984 0.299876 0
1.9635 0.611766 0
2.15984 0.611766 0
2.15984 0.299876 0
2.35619 0.299876 0
2.15984 0.611766 0
2.35619 0.611766 0
1.5708 0.611766 0
1.76715 0.611766 0
1.5708 0.924623 0
1.76715 0.924623 0
1.76715 0.611766 0
1.9635 0.611766 0
1.76715 0.924623 0
1.9635 0.924623 0
1.5708 0.924623 0
1.76715 0.924623 0
1.5708 1.23774 0
1.76715 1.23774 0
1.76715 0.924623 0
1.9635 0.924623 0
1.76715 1.23774 0
1.9635 1.23774 0
1.9635 0.611766 0
2.15984 0.611766 0
1.9635 0.924623 0
2.15984 0.924623 0
2.15984 0.611766 0
2.35619 0.611766 0
2.15984 0.924623 0
2.35619 0.924623 0
1.9635 0.924623 0
2.15984 0.924623 0
1.9635 1.23774 0
2.15984 1.23774 0
2.15984 0.924623 0
2.35619 0.924623 0
2.15984 1.23774 0
2.35619 1.23774 0
2.35619 0 0
2.55254 0 0
2.35619 0.299876 0
2.55254 0.299876 0
2.55254 0 0
2.74889 0 0
2.55254 0.299876 0
2.74889 0.299876 0
2.35619 0.299876 0
2.55254 0.299876 0
2.35619 0.611766 0
2.55254 0.611766 0
2.55254 0.299876 0
2.74889 0.299876 0
2.55254 0.611766 0
2.74889 0.611766 0
2.74889 0 0
2.94524 0 0
2.74889 0.299876 0
2.94524 0.299876 0
2.94524 0 0
3.14159 0 0
2.94524 0.299876 0
3.14159 0.299876 0
2.74889 0.299876 0
2.94524 0.299876 0
2.74889 0.611766 0
2.94524 0.611766 0
2.94524 0.299876 0
3.14159 0.299876 0
2.94524 0.611766 0
3.14159 0.611766 0
2.35619 0.611766 0
2.55254 0.611766 0
2.35619 0.924623 0
2.55254 0.924623 0
2.55254 0.611766 0
2.74889 0.611766 0
2.55254 0.924623 0
2.74889 0.924623 0
2.35619 0.924623 0
2.55254 0.924623 0
2.35619 1.23774 0
2.55254 1.23774 0
2.55254 0.924623 0
2.74889 0.924623 0
2.55254 1.23774 0
2.74889 1.23774 0
2.74889 0.611766 0
2.94524 0.611766 0
2.74889 0.924623 0
2.94524 0.924623 0
2.94524 0.611766 0
3.14159 0.611766 0
2.94524 0.924623 0
3.14159 0.924623 0
2.74889 0.924623 0
2.94524 0.924623 0
2.74889 1.23774 0
2.94524 1.23774 0
2.94524 0.924623 0
3.14159 0.924623 0
2.94524 1.23774 0
3.14159 1.23774 0
1.5708 1.23774 0
1.76715 1.23774 0
1.5708 1.55083 0
1.76715 1.55083 0
1.76715 1.23774 0
1.9635 1.23774 0
1.76715 1.55083 0
1.9635 1.55083 0
1.5708 1.55083 0
1.76715 1.55083 0
1.5708 1.86391 0
1.76715 1.86391 0
1.76715 1.55083 0
1.9635 1.55083 0
1.76715 1.86391 0
1.9635 1.86391 0
1.9635 1.23774 0
2.15984 1.23774 0
1.9635 1.55083 0
2.15984 1.55083 0
2.15984 1.23774 0
2.35619 1.23774 0
2.15984 1.55083 0
2.35619 1.55083 0
1.9635 1.55083 0
2.15984 1.55083 0
1.9635 1.86391 0
2.15984 1.86391 0
2.15984 1.55083 0
2.35619 1.55083 0
2.15984 1.86391 0
2.35619 1.86391 0
1.5708 1.86391 0
1.76715 1.86391 0
1.5708 2.17697 0
1.76715 2.17697 0
1.76715 1.86391 0
1.9635 1.86391 0
1.76715 2.17697 0
1.9635 2.17697 0
1.5708 2.17697 0
1.76715 2.17697 0
1.5708 2.49001 0
1.76715 2.49001 0
1.76715 2.17697 0
1.9635 2.17697 0
1.76715 2.49001 0
1.9635 2.49001 0
1.9635 1.86391 0
2.15984 1.86391 0
1.9635 2.17697 0
2.15984 2.17697 0
2.15984 1.86391 0
2.35619 1.86391 0
2.15984 2.17697 0
2.35619 2.17697 0
1.9635 2.17697 0
2.15984 2.17697 0
1.9635 2.49001 0
2.15984 2.49001 0
2.15984 2.17697 0
2.35619 2.17697 0
2.15984 2.49001 0
2.35619 2.49001 0
2.35619 1.23774 0
2.55254 1.23774 0
2.35619 1.55083 0
2.55254 1.55083 0
2.55254 1.23774 0
2.74889 1.23774 0
2.55254 1.55083 0
2.74889 1.55083 0
2.35619 1.55083 0
2.55254 1.55083 0
2.35619 1.86391 0
2.55254 1.86391 0
2.55254 1.55083 0
2.74889 1.55083 0
2.55254 1.86391 0
2.74889 1.86391 0
2.74889 1.23774 0
2.94524 1.23774 0
2.74889 1.55083 0
2.94524 1.55083 0
2.94524 1.23774 0
3.14159 1.23774 0
2.94524 1.55083 0
3.14159 1.55083 0
2.74889 1.55083 0
2.94524 1.55083 0
2.74889 1.86391 0
2.94524 1.86391 0
2.94524 1.55083 0
3.14159 1.55083 0
2.94524 1.86391 0
3.14159 1.86391 0
2.35619 1.86391 0
2.55254 1.86391 0
2.35619 2.17697 0
2.55254 2.17697 0
2.55254 1.86391 0
2.74889 1.86391 0
2.55254 2.17697 0
2.74889 2.17697 0
2.35619 2.17697 0
2.55254 2.17697 0
2.35619 2.49001 0
2.55254 2.49001 0
2.55254 2.17697 0
2.74889 2.17697 0
2.55254 2.49001 0
2.74889 2.49001 0
2.74889 1.86391 0
2.94524 1.86391 0
2.74889 2.17697 0
2.94524 2.17697 0
2.94524 1.86391 0
3.14159 1.86391 0
2.94524 2.17697 0
3.14159 2.17697 0
2.74889 2.17697 0
2.94524 2.17697 0
2.74889 2.49001 0
2.94524 2.49001 0
2.94524 2.17697 0
3.14159 2.17697 0
2.94524 2.49001 0
3.14159 2.49001 0
0 2.49001 0
0.19635 2.49001 0
0 2.80303 0
0.19635 2.80303 0
0.19635 2.49001 0
0.392699 2.49001 0
0.19635 2.80303 0
0.392699 2.80303 0
0 2.80303 0
0.19635 2.80303 0
0 3.11604 0
0.19635 3.11604 0
0.19635 2.80303 0
0.392699 2.80303 0
0.19635 3.11604 0
0.392699 3.11604 0
0.392699 2.49001 0
0.589049 2.49001 0
0.392699 2.80303 0
0.589049 2.80303 0
0.589049 2.49001 0
0.785398 2.49001 0
0.589049 2.80303 0
0.785398 2.80303 0
0.392699 2.80303 0
0.589049 2.80303 0
0.392699 3.11604 0
0.589049 3.11604 0
0.589049 2.80303 0
0.785398 2.80303 0
0.589049 3.11604 0
0.785398 3.11604 0
0 3.11604 0
0.19635 3.11604 0
0 3.42903 0
0.19635 3.42903 0
0.19635 3.11604 0
0.392699 3.11604 0
0.19635 3.42903 0
[...]
POINT_DATA 20480
VECTORS velocity double
0 0 0
0 0 0
0 -0.00300015 0
1.73647e-16 -0.00300015 0
0 0 0
0 0 0
1.73647e-16 -0.00300015 0
1e-15 -0.00300015 0
0 -0.00300015 0
1.73647e-16 -0.00300015 0
0 -0.00317147 0
-3.28641e-16 -0.00317147 0
1.73647e-16 -0.00300015 0
1e-15 -0.00300015 0
-3.28641e-16 -0.00317147 0
-1.47731e-15 -0.00317147 0
0 0 0
0 0 0
1e-15 -0.00300015 0
4.58555e-15 -0.00300015 0
0 0 0
0 0 0
4.58555e-15 -0.00300015 0
5.83263e-16 -0.00300015 0
1e-15 -0.00300015 0
4.58555e-15 -0.00300015 0
-1.47731e-15 -0.00317147 0
-2.24429e-15 -0.00317147 0
4.58555e-15 -0.00300015 0
5.83263e-16 -0.00300015 0
-2.24429e-15 -0.00317147 0
-2.45746e-15 -0.00317147 0
0 -0.00317147 0
-3.28641e-16 -0.00317147 0
0 -0.00310678 0
2.41994e-15 -0.00310678 0
-3.28641e-16 -0.00317147 0
-1.47731e-15 -0.00317147 0
2.41994e-15 -0.00310678 0
2.58617e-15 -0.00310678 0
0 -0.00310678 0
2.41994e-15 -0.00310678 0
0 -0.00294616 0
-1.3706e-15 -0.00294616 0
2.41994e-15 -0.00310678 0
2.58617e-15 -0.00310678 0
-1.3706e-15 -0.00294616 0
3.77076e-15 -0.00294616 0
-1.47731e-15 -0.00317147 0
-2.24429e-15 -0.00317147 0
2.58617e-15 -0.00310678 0
3.79024e-15 -0.00310678 0
-2.24429e-15 -0.00317147 0
-2.45746e-15 -0.00317147 0
3.79024e-15 -0.00310678 0
1.88866e-15 -0.00310678 0
2.58617e-15 -0.00310678 0
3.79024e-15 -0.00310678 0
3.77076e-15 -0.00294616 0
3.72545e-15 -0.00294616 0
3.79024e-15 -0.00310678 0
1.88866e-15 -0.00310678 0
3.72545e-15 -0.00294616 0
-2.8818e-15 -0.00294616 0
0 0 0
0 0 0
5.83263e-16 -0.00300015 0
-2.86299e-15 -0.00300015 0
0 0 0
0 0 0
-2.86299e-15 -0.00300015 0
-2.8108e-15 -0.00300015 0
5.83263e-16 -0.00300015 0
-2.86299e-15 -0.00300015 0
-2.45746e-15 -0.00317147 0
7.60841e-15 -0.00317147 0
-2.86299e-15 -0.00300015 0
-2.8108e-15 -0.00300015 0
7.60841e-15 -0.00317147 0
5.8049e-15 -0.00317147 0
0 0 0
0 0 0
-2.8108e-15 -0.00300015 0
2.26368e-15 -0.00300015 0
0 0 0
0 0 0
2.26368e-15 -0.00300015 0
2.66515e-15 -0.00300015 0
-2.8108e-15 -0.00300015 0
2.26368e-15 -0.00300015 0
5.8049e-15 -0.00317147 0
2.94501e-15 -0.00317147 0
2.26368e-15 -0.00300015 0
2.66515e-15 -0.00300015 0
2.94501e-15 -0.00317147 0
2.48466e-15 -0.00317147 0
-2.45746e-15 -0.00317147 0
7.60841e-15 -0.00317147 0
1.88866e-15 -0.00310678 0
4.14914e-15 -0.00310678 0
7.60841e-15 -0.00317147 0
5.8049e-15 -0.00317147 0
4.14914e-15 -0.00310678 0
3.02295e-15 -0.00310678 0
1.88866e-15 -0.00310678 0
4.14914e-15 -0.00310678 0
-2.8818e-15 -0.00294616 0
2.69007e-15 -0.00294616 0
4.14914e-15 -0.00310678 0
3.02295e-15 -0.00310678 0
2.69007e-15 -0.00294616 0
8.34828e-15 -0.00294616 0
5.8049e-15 -0.00317147 0
2.94501e-15 -0.00317147 0
3.02295e-15 -0.00310678 0
3.98267e-15 -0.00310678 0
2.94501e-15 -0.00317147 0
2.48466e-15 -0.00317147 0
3.98267e-15 -0.00310678 0
5.09469e-15 -0.00310678 0
3.02295e-15 -0.00310678 0
3.98267e-15 -0.00310678 0
8.34828e-15 -0.00294616 0
9.21328e-15 -0.00294616 0
3.98267e-15 -0.00310678 0
5.09469e-15 -0.00310678 0
9.21328e-15 -0.00294616 0
1.21198e-14 -0.00294616 0
0 -0.00294616 0
-1.3706e-15 -0.00294616 0
0 -0.00279986 0
-1.8209e-15 -0.00279986 0
-1.3706e-15 -0.00294616 0
3.77076e-15 -0.00294616 0
-1.8209e-15 -0.00279986 0
5.52351e-15 -0.00279986 0
0 -0.00279986 0
-1.8209e-15 -0.00279986 0
0 -0.00265358 0
5.22737e-15 -0.00265358 0
-1.8209e-15 -0.00279986 0
5.52351e-15 -0.00279986 0
5.22737e-15 -0.00265358 0
-2.18142e-15 -0.00265358 0
3.77076e-15 -0.00294616 0
3.72545e-15 -0.00294616 0
5.52351e-15 -0.00279986 0
3.46101e-15 -0.00279986 0
3.72545e-15 -0.00294616 0
-2.8818e-15 -0.00294616 0
3.46101e-15 -0.00279986 0
2.35271e-15 -0.00279986 0
5.52351e-15 -0.00279986 0
3.46101e-15 -0.00279986 0
-2.18142e-15 -0.00265358 0
-1.45682e-15 -0.00265358 0
3.46101e-15 -0.00279986 0
2.35271e-15 -0.00279986 0
-1.45682e-15 -0.00265358 0
-2.00461e-15 -0.00265358 0
0 -0.00265358 0
5.22737e-15 -0.00265358 0
0 -0.00251381 0
-8.0591e-15 -0.00251381 0
5.22737e-15 -0.00265358 0
-2.18142e-15 -0.00265358 0
-8.0591e-15 -0.00251381 0
-4.8983e-15 -0.00251381 0
0 -0.00251381 0
-8.0591e-15 -0.00251381 0
0 -0.00237872 0
7.12329e-15 -0.00237872 0
-8.0591e-15 -0.00251381 0
-4.8983e-15 -0.00251381 0
7.12329e-15 -0.00237872 0
6.29889e-15 -0.00237872 0
-2.18142e-15 -0.00265358 0
-1.45682e-15 -0.00265358 0
-4.8983e-15 -0.00251381 0
3.29411e-15 -0.00251381 0
-1.45682e-15 -0.00265358 0
-2.00461e-15 -0.00265358 0
3.29411e-15 -0.00251381 0
-2.43375e-15 -0.00251381 0
-4.8983e-15 -0.00251381 0
3.29411e-15 -0.00251381 0
6.29889e-15 -0.00237872 0
6.33105e-15 -0.00237872 0
3.29411e-15 -0.00251381 0
-2.43375e-15 -0.00251381 0
6.33105e-15 -0.00237872 0
9.19464e-15 -0.00237872 0
-2.8818e-15 -0.00294616 0
2.69007e-15 -0.00294616 0
2.35271e-15 -0.00279986 0
1.0457e-15 -0.00279986 0
2.69007e-15 -0.00294616 0
8.34828e-15 -0.00294616 0
1.0457e-15 -0.00279986 0
4.97318e-15 -0.00279986 0
2.35271e-15 -0.00279986 0
1.0457e-15 -0.00279986 0
-2.00461e-15 -0.00265358 0
1.4307e-15 -0.00265358 0
1.0457e-15 -0.00279986 0
4.97318e-15 -0.00279986 0
1.4307e-15 -0.00265358 0
6.06807e-15 -0.00265358 0
8.34828e-15 -0.00294616 0
9.21328e-15 -0.00294616 0
4.97318e-15 -0.00279986 0
4.16188e-15 -0.00279986 0
9.21328e-15 -0.00294616 0
1.21198e-14 -0.00294616 0
4.16188e-15 -0.00279986 0
3.01718e-15 -0.00279986 0
4.97318e-15 -0.00279986 0
4.16188e-15 -0.00279986 0
6.06807e-15 -0.00265358 0
6.17987e-15 -0.00265358 0
4.16188e-15 -0.00279986 0
3.01718e-15 -0.00279986 0
6.17987e-15 -0.00265358 0
5.26813e-15 -0.00265358 0
-2.00461e-15 -0.00265358 0
1.4307e-15 -0.00265358 0
-2.43375e-15 -0.00251381 0
-3.47546e-15 -0.00251381 0
1.4307e-15 -0.00265358 0
6.06807e-15 -0.00265358 0
-3.47546e-15 -0.00251381 0
3.27853e-15 -0.00251381 0
-2.43375e-15 -0.00251381 0
-3.47546e-15 -0.00251381 0
9.19464e-15 -0.00237872 0
2.70498e-15 -0.00237872 0
-3.47546e-15 -0.00251381 0
3.27853e-15 -0.00251381 0
2.70498e-15 -0.00237872 0
1.10811e-14 -0.00237872 0
6.06807e-15 -0.00265358 0
6.17987e-15 -0.00265358 0
3.27853e-15 -0.00251381 0
-1.53806e-15 -0.00251381 0
6.17987e-15 -0.00265358 0
5.26813e-15 -0.00265358 0
-1.53806e-15 -0.00251381 0
4.40877e-15 -0.00251381 0
3.27853e-15 -0.00251381 0
-1.53806e-15 -0.00251381 0
1.10811e-14 -0.00237872 0
9.59684e-15 -0.00237872 0
-1.53806e-15 -0.00251381 0
4.40877e-15 -0.00251381 0
9.59684e-15 -0.00237872 0
7.93562e-15 -0.00237872 0
0 0 0
0 0 0
2.66515e-15 -0.00300015 0
-3.39846e-15 -0.00300015 0
0 0 0
0 0 0
-3.39846e-15 -0.00300015 0
-9.38085e-16 -0.00300015 0
2.66515e-15 -0.00300015 0
-3.39846e-15 -0.00300015 0
2.48466e-15 -0.00317147 0
1.33039e-15 -0.00317147 0
-3.39846e-15 -0.00300015 0
-9.38085e-16 -0.00300015 0
1.33039e-15 -0.00317147 0
-6.97905e-16 -0.00317147 0
0 0 0
0 0 0
-9.38085e-16 -0.00300015 0
2.12809e-15 -0.00300015 0
0 0 0
0 0 0
2.12809e-15 -0.00300015 0
-6.03275e-16 -0.00300015 0
-9.38085e-16 -0.00300015 0
2.12809e-15 -0.00300015 0
-6.97905e-16 -0.00317147 0
2.39564e-15 -0.00317147 0
2.12809e-15 -0.00300015 0
-6.03275e-16 -0.00300015 0
2.39564e-15 -0.00317147 0
3.90555e-15 -0.00317147 0
2.48466e-15 -0.00317147 0
1.33039e-15 -0.00317147 0
5.09469e-15 -0.00310678 0
4.85377e-15 -0.00310678 0
1.33039e-15 -0.00317147 0
-6.97905e-16 -0.00317147 0
4.85377e-15 -0.00310678 0
5.48626e-15 -0.00310678 0
5.09469e-15 -0.00310678 0
4.85377e-15 -0.00310678 0
1.21198e-14 -0.00294616 0
6.12856e-15 -0.00294616 0
4.85377e-15 -0.00310678 0
5.48626e-15 -0.00310678 0
6.12856e-15 -0.00294616 0
9.77098e-15 -0.00294616 0
-6.97905e-16 -0.00317147 0
2.39564e-15 -0.00317147 0
5.48626e-15 -0.00310678 0
4.27495e-15 -0.00310678 0
2.39564e-15 -0.00317147 0
3.90555e-15 -0.00317147 0
4.27495e-15 -0.00310678 0
1.54728e-15 -0.00310678 0
5.48626e-15 -0.00310678 0
4.27495e-15 -0.00310678 0
9.77098e-15 -0.00294616 0
6.14042e-15 -0.00294616 0
4.27495e-15 -0.00310678 0
1.54728e-15 -0.00310678 0
6.14042e-15 -0.00294616 0
7.41806e-15 -0.00294616 0
0 0 0
0 0 0
-6.03275e-16 -0.00300015 0
4.17363e-15 -0.00300015 0
0 0 0
0 0 0
4.17363e-15 -0.00300015 0
3.19513e-15 -0.00300015 0
-6.03275e-16 -0.00300015 0
4.17363e-15 -0.00300015 0
3.90555e-15 -0.00317147 0
3.15098e-15 -0.00317147 0
4.17363e-15 -0.00300015 0
3.19513e-15 -0.00300015 0
3.15098e-15 -0.00317147 0
2.38554e-15 -0.00317147 0
0 0 0
0 0 0
3.19513e-15 -0.00300015 0
1.94135e-15 -0.00300015 0
0 0 0
0 0 0
1.94135e-15 -0.00300015 0
2.54976e-15 -0.00300015 0
3.19513e-15 -0.00300015 0
1.94135e-15 -0.00300015 0
2.38554e-15 -0.00317147 0
4.47639e-15 -0.00317147 0
1.94135e-15 -0.00300015 0
2.54976e-15 -0.00300015 0
4.47639e-15 -0.00317147 0
4.09706e-15 -0.00317147 0
3.90555e-15 -0.00317147 0
3.15098e-15 -0.00317147 0
1.54728e-15 -0.00310678 0
2.26627e-15 -0.00310678 0
3.15098e-15 -0.00317147 0
2.38554e-15 -0.00317147 0
2.26627e-15 -0.00310678 0
2.02875e-15 -0.00310678 0
1.54728e-15 -0.00310678 0
2.26627e-15 -0.00310678 0
7.41806e-15 -0.00294616 0
9.46199e-15 -0.00294616 0
2.26627e-15 -0.00310678 0
2.02875e-15 -0.00310678 0
9.46199e-15 -0.00294616 0
9.8192e-15 -0.00294616 0
2.38554e-15 -0.00317147 0
4.47639e-15 -0.00317147 0
2.02875e-15 -0.00310678 0
5.66438e-15 -0.00310678 0
4.47639e-15 -0.00317147 0
4.09706e-15 -0.00317147 0
5.66438e-15 -0.00310678 0
3.46232e-15 -0.00310678 0
2.02875e-15 -0.00310678 0
5.66438e-15 -0.00310678 0
9.8192e-15 -0.00294616 0
1.08436e-14 -0.00294616 0
5.66438e-15 -0.00310678 0
3.46232e-15 -0.00310678 0
1.08436e-14 -0.00294616 0
9.71612e-15 -0.00294616 0
1.21198e-14 -0.00294616 0
6.12856e-15 -0.00294616 0
3.01718e-15 -0.00279986 0
6.43113e-15 -0.00279986 0
6.12856e-15 -0.00294616 0
9.77098e-15 -0.00294616 0
6.43113e-15 -0.00279986 0
7.69923e-15 -0.00279986 0
3.01718e-15 -0.00279986 0
6.43113e-15 -0.00279986 0
5.26813e-15 -0.00265358 0
3.1196e-15 -0.00265358 0
6.43113e-15 -0.00279986 0
7.69923e-15 -0.00279986 0
3.1196e-15 -0.00265358 0
5.07941e-15 -0.00265358 0
9.77098e-15 -0.00294616 0
6.14042e-15 -0.00294616 0
7.69923e-15 -0.00279986 0
7.7914e-15 -0.00279986 0
6.14042e-15 -0.00294616 0
7.41806e-15 -0.00294616 0
7.7914e-15 -0.00279986 0
8.33368e-15 -0.00279986 0
7.69923e-15 -0.00279986 0
7.7914e-15 -0.00279986 0
5.07941e-15 -0.00265358 0
7.37226e-15 -0.00265358 0
7.7914e-15 -0.00279986 0
8.33368e-15 -0.00279986 0
7.37226e-15 -0.00265358 0
1.08118e-15 -0.00265358 0
5.26813e-15 -0.00265358 0
3.1196e-15 -0.00265358 0
4.40877e-15 -0.00251381 0
4.17019e-15 -0.00251381 0
3.1196e-15 -0.00265358 0
5.07941e-15 -0.00265358 0
4.17019e-15 -0.00251381 0
-7.38981e-17 -0.00251381 0
4.40877e-15 -0.00251381 0
4.17019e-15 -0.00251381 0
7.93562e-15 -0.00237872 0
1.59341e-15 -0.00237872 0
4.17019e-15 -0.00251381 0
-7.38981e-17 -0.00251381 0
1.59341e-15 -0.00237872 0
6.45615e-15 -0.00237872 0
5.07941e-15 -0.00265358 0
7.37226e-15 -0.00265358 0
-7.38981e-17 -0.00251381 0
9.5303e-16 -0.00251381 0
7.37226e-15 -0.00265358 0
1.08118e-15 -0.00265358 0
9.5303e-16 -0.00251381 0
5.15135e-15 -0.00251381 0
-7.38981e-17 -0.00251381 0
9.5303e-16 -0.00251381 0
6.45615e-15 -0.00237872 0
2.79395e-15 -0.00237872 0
9.5303e-16 -0.00251381 0
5.15135e-15 -0.00251381 0
2.79395e-15 -0.00237872 0
1.09536e-14 -0.00237872 0
7.41806e-15 -0.00294616 0
9.46199e-15 -0.00294616 0
8.33368e-15 -0.00279986 0
6.82466e-15 -0.00279986 0
9.46199e-15 -0.00294616 0
9.8192e-15 -0.00294616 0
6.82466e-15 -0.00279986 0
7.11425e-15 -0.00279986 0
8.33368e-15 -0.00279986 0
6.82466e-15 -0.00279986 0
1.08118e-15 -0.00265358 0
1.39226e-15 -0.00265358 0
6.82466e-15 -0.00279986 0
7.11425e-15 -0.00279986 0
1.39226e-15 -0.00265358 0
2.32802e-15 -0.00265358 0
9.8192e-15 -0.00294616 0
1.08436e-14 -0.00294616 0
7.11425e-15 -0.00279986 0
1.12685e-14 -0.00279986 0
1.08436e-14 -0.00294616 0
9.71612e-15 -0.00294616 0
1.12685e-14 -0.00279986 0
9.033e-16 -0.00279986 0
7.11425e-15 -0.00279986 0
1.12685e-14 -0.00279986 0
2.32802e-15 -0.00265358 0
4.08785e-15 -0.00265358 0
1.12685e-14 -0.00279986 0
9.033e-16 -0.00279986 0
4.08785e-15 -0.00265358 0
4.45705e-15 -0.00265358 0
1.08118e-15 -0.00265358 0
1.39226e-15 -0.00265358 0
5.15135e-15 -0.00251381 0
9.79532e-15 -0.00251381 0
1.39226e-15 -0.00265358 0
2.32802e-15 -0.00265358 0
9.79532e-15 -0.00251381 0
-5.76187e-16 -0.00251381 0
5.15135e-15 -0.00251381 0
9.79532e-15 -0.00251381 0
1.09536e-14 -0.00237872 0
2.90899e-15 -0.00237872 0
9.79532e-15 -0.00251381 0
-5.76187e-16 -0.00251381 0
2.90899e-15 -0.00237872 0
7.50817e-15 -0.00237872 0
2.32802e-15 -0.00265358 0
4.08785e-15 -0.00265358 0
-5.76187e-16 -0.00251381 0
1.22542e-14 -0.00251381 0
4.08785e-15 -0.00265358 0
4.45705e-15 -0.00265358 0
1.22542e-14 -0.00251381 0
5.57297e-15 -0.00251381 0
-5.76187e-16 -0.00251381 0
1.22542e-14 -0.00251381 0
7.50817e-15 -0.00237872 0
1.74546e-14 -0.00237872 0
1.22542e-14 -0.00251381 0
5.57297e-15 -0.00251381 0
1.74546e-14 -0.00237872 0
1.26262e-15 -0.00237872 0
0 -0.00237872 0
7.12329e-15 -0.00237872 0
0 -0.00224863 0
9.87645e-16 -0.00224863 0
7.12329e-15 -0.00237872 0
6.29889e-15 -0.00237872 0
9.87645e-16 -0.00224863 0
4.049e-15 -0.00224863 0
0 -0.00224863 0
9.87645e-16 -0.00224863 0
0 -0.00212323 0
-2.25093e-16 -0.00212323 0
9.87645e-16 -0.00224863 0
4.049e-15 -0.00224863 0
-2.25093e-16 -0.00212323 0
-1.74719e-15 -0.00212323 0
6.29889e-15 -0.00237872 0
6.33105e-15 -0.00237872 0
4.049e-15 -0.00224863 0
-5.10157e-15 -0.00224863 0
6.33105e-15 -0.00237872 0
9.19464e-15 -0.00237872 0
-5.10157e-15 -0.00224863 0
2.99898e-16 -0.00224863 0
4.049e-15 -0.00224863 0
-5.10157e-15 -0.00224863 0
-1.74719e-15 -0.00212323 0
-9.86253e-15 -0.00212323 0
-5.10157e-15 -0.00224863 0
2.99898e-16 -0.00224863 0
-9.86253e-15 -0.00212323 0
5.349e-15 -0.00212323 0
0 -0.00212323 0
-2.25093e-16 -0.00212323 0
0 -0.00200239 0
-2.4958e-16 -0.00200239 0
-2.25093e-16 -0.00212323 0
-1.74719e-15 -0.00212323 0
-2.4958e-16 -0.00200239 0
-4.57418e-15 -0.00200239 0
0 -0.00200239 0
-2.4958e-16 -0.00200239 0
0 -0.00188594 0
7.94324e-15 -0.00188594 0
-2.4958e-16 -0.00200239 0
-4.57418e-15 -0.00200239 0
7.94324e-15 -0.00188594 0
2.26944e-15 -0.00188594 0
-1.74719e-15 -0.00212323 0
-9.86253e-15 -0.00212323 0
-4.57418e-15 -0.00200239 0
-4.32612e-15 -0.00200239 0
-9.86253e-15 -0.00212323 0
5.349e-15 -0.00212323 0
-4.32612e-15 -0.00200239 0
3.78847e-16 -0.00200239 0
-4.57418e-15 -0.00200239 0
-4.32612e-15 -0.00200239 0
2.26944e-15 -0.00188594 0
8.69691e-16 -0.00188594 0
-4.32612e-15 -0.00200239 0
3.78847e-16 -0.00200239 0
8.69691e-16 -0.00188594 0
-3.71979e-15 -0.00188594 0
9.19464e-15 -0.00237872 0
2.70498e-15 -0.00237872 0
2.99898e-16 -0.00224863 0
1.57635e-15 -0.00224863 0
2.70498e-15 -0.00237872 0
1.10811e-14 -0.00237872 0
1.57635e-15 -0.00224863 0
-4.04674e-15 -0.00224863 0
2.99898e-16 -0.00224863 0
1.57635e-15 -0.00224863 0
5.349e-15 -0.00212323 0
-9.62828e-15 -0.00212323 0
1.57635e-15 -0.00224863 0
-4.04674e-15 -0.00224863 0
-9.62828e-15 -0.00212323 0
-8.26325e-15 -0.00212323 0
1.10811e-14 -0.00237872 0
9.59684e-15 -0.00237872 0
-4.04674e-15 -0.00224863 0
-5.37672e-16 -0.00224863 0
9.59684e-15 -0.00237872 0
7.93562e-15 -0.00237872 0
-5.37672e-16 -0.00224863 0
1.98468e-15 -0.00224863 0
-4.04674e-15 -0.00224863 0
-5.37672e-16 -0.00224863 0
-8.26325e-15 -0.00212323 0
-2.50944e-15 -0.00212323 0
-5.37672e-16 -0.00224863 0
1.98468e-15 -0.00224863 0
-2.50944e-15 -0.00212323 0
-6.48248e-15 -0.00212323 0
5.349e-15 -0.00212323 0
-9.62828e-15 -0.00212323 0
3.78847e-16 -0.00200239 0
3.7572e-15 -0.00200239 0
-9.62828e-15 -0.00212323 0
-8.26325e-15 -0.00212323 0
3.7572e-15 -0.00200239 0
6.78053e-16 -0.00200239 0
3.78847e-16 -0.00200239 0
3.7572e-15 -0.00200239 0
-3.71979e-15 -0.00188594 0
-3.98572e-15 -0.00188594 0
3.7572e-15 -0.00200239 0
6.78053e-16 -0.00200239 0
-3.98572e-15 -0.00188594 0
-5.49478e-15 -0.00188594 0
-8.26325e-15 -0.00212323 0
-2.50944e-15 -0.00212323 0
6.78053e-16 -0.00200239 0
-1.41591e-15 -0.00200239 0
-2.50944e-15 -0.00212323 0
-6.48248e-15 -0.00212323 0
-1.41591e-15 -0.00200239 0
-2.14333e-15 -0.00200239 0
6.78053e-16 -0.00200239 0
-1.41591e-15 -0.00200239 0
-5.49478e-15 -0.00188594 0
-6.10504e-15 -0.00188594 0
-1.41591e-15 -0.00200239 0
-2.14333e-15 -0.00200239 0
-6.10504e-15 -0.00188594 0
-9.72367e-15 -0.00188594 0
0 -0.00188594 0
7.94324e-15 -0.00188594 0
0 -0.00177371 0
5.43585e-15 -0.00177371 0
7.94324e-15 -0.00188594 0
2.26944e-15 -0.00188594 0
5.43585e-15 -0.00177371 0
4.63367e-16 -0.00177371 0
0 -0.00177371 0
5.43585e-15 -0.00177371 0
0 -0.00166555 0
3.60009e-16 -0.00166555 0
5.43585e-15 -0.00177371 0
4.63367e-16 -0.00177371 0
3.60009e-16 -0.00166555 0
-2.23908e-16 -0.00166555 0
2.26944e-15 -0.00188594 0
8.69691e-16 -0.00188594 0
4.63367e-16 -0.00177371 0
-5.72133e-16 -0.00177371 0
8.69691e-16 -0.00188594 0
-3.71979e-15 -0.00188594 0
-5.72133e-16 -0.00177371 0
-1.35591e-15 -0.00177371 0
4.63367e-16 -0.00177371 0
-5.72133e-16 -0.00177371 0
-2.23908e-16 -0.00166555 0
5.12739e-15 -0.00166555 0
-5.72133e-16 -0.00177371 0
-1.35591e-15 -0.00177371 0
5.12739e-15 -0.00166555 0
4.99553e-15 -0.00166555 0
0 -0.00166555 0
3.60009e-16 -0.00166555 0
0 -0.00156132 0
-7.76355e-15 -0.00156132 0
3.60009e-16 -0.00166555 0
-2.23908e-16 -0.00166555 0
-7.76355e-15 -0.00156132 0
4.90025e-16 -0.00156132 0
0 -0.00156132 0
-7.76355e-15 -0.00156132 0
0 -0.00146091 0
8.75601e-15 -0.00146091 0
-7.76355e-15 -0.00156132 0
4.90025e-16 -0.00156132 0
8.75601e-15 -0.00146091 0
-5.13312e-15 -0.00146091 0
-2.23908e-16 -0.00166555 0
5.12739e-15 -0.00166555 0
4.90025e-16 -0.00156132 0
-9.35489e-15 -0.00156132 0
5.12739e-15 -0.00166555 0
4.99553e-15 -0.00166555 0
-9.35489e-15 -0.00156132 0
-9.13015e-15 -0.00156132 0
4.90025e-16 -0.00156132 0
-9.35489e-15 -0.00156132 0
-5.13312e-15 -0.00146091 0
-7.38123e-15 -0.00146091 0
-9.35489e-15 -0.00156132 0
-9.13015e-15 -0.00156132 0
-7.38123e-15 -0.00146091 0
-1.54396e-14 -0.00146091 0
-3.71979e-15 -0.00188594 0
-3.98572e-15 -0.00188594 0
-1.35591e-15 -0.00177371 0
8.64729e-16 -0.00177371 0
-3.98572e-15 -0.00188594 0
-5.49478e-15 -0.00188594 0
8.64729e-16 -0.00177371 0
-1.05448e-14 -0.00177371 0
-1.35591e-15 -0.00177371 0
8.64729e-16 -0.00177371 0
4.99553e-15 -0.00166555 0
-8.09288e-15 -0.00166555 0
8.64729e-16 -0.00177371 0
-1.05448e-14 -0.00177371 0
-8.09288e-15 -0.00166555 0
1.72554e-14 -0.00166555 0
-5.49478e-15 -0.00188594 0
-6.10504e-15 -0.00188594 0
-1.05448e-14 -0.00177371 0
-1.08402e-14 -0.00177371 0
-6.10504e-15 -0.00188594 0
-9.72367e-15 -0.00188594 0
-1.08402e-14 -0.00177371 0
1.90631e-15 -0.00177371 0
-1.05448e-14 -0.00177371 0
-1.08402e-14 -0.00177371 0
1.72554e-14 -0.00166555 0
2.83899e-15 -0.00166555 0
-1.08402e-14 -0.00177371 0
1.90631e-15 -0.00177371 0
2.83899e-15 -0.00166555 0
-4.43406e-16 -0.00166555 0
4.99553e-15 -0.00166555 0
-8.09288e-15 -0.00166555 0
-9.13015e-15 -0.00156132 0
-1.06683e-14 -0.00156132 0
-8.09288e-15 -0.00166555 0
1.72554e-14 -0.00166555 0
-1.06683e-14 -0.00156132 0
-9.96345e-16 -0.00156132 0
-9.13015e-15 -0.00156132 0
-1.06683e-14 -0.00156132 0
-1.54396e-14 -0.00146091 0
-1.11385e-14 -0.00146091 0
-1.06683e-14 -0.00156132 0
-9.96345e-16 -0.00156132 0
-1.11385e-14 -0.00146091 0
-1.52673e-15 -0.00146091 0
1.72554e-14 -0.00166555 0
2.83899e-15 -0.00166555 0
-9.96345e-16 -0.00156132 0
-5.8904e-16 -0.00156132 0
2.83899e-15 -0.00166555 0
-4.43406e-16 -0.00166555 0
-5.8904e-16 -0.00156132 0
-8.05633e-15 -0.00156132 0
-9.96345e-16 -0.00156132 0
-5.8904e-16 -0.00156132 0
-1.52673e-15 -0.00146091 0
-7.82186e-15 -0.00146091 0
-5.8904e-16 -0.00156132 0
-8.05633e-15 -0.00156132 0
-7.82186e-15 -0.00146091 0
-9.61505e-16 -0.00146091 0
7.93562e-15 -0.00237872 0
1.59341e-15 -0.00237872 0
1.98468e-15 -0.00224863 0
5.67337e-15 -0.00224863 0
1.59341e-15 -0.00237872 0
6.45615e-15 -0.00237872 0
5.67337e-15 -0.00224863 0
1.16754e-14 -0.00224863 0
1.98468e-15 -0.00224863 0
5.67337e-15 -0.00224863 0
-6.48248e-15 -0.00212323 0
-3.9488e-15 -0.00212323 0
5.67337e-15 -0.00224863 0
1.16754e-14 -0.00224863 0
-3.9488e-15 -0.00212323 0
1.52382e-15 -0.00212323 0
6.45615e-15 -0.00237872 0
2.79395e-15 -0.00237872 0
1.16754e-14 -0.00224863 0
5.91654e-15 -0.00224863 0
2.79395e-15 -0.00237872 0
1.09536e-14 -0.00237872 0
5.91654e-15 -0.00224863 0
7.67145e-15 -0.00224863 0
1.16754e-14 -0.00224863 0
5.91654e-15 -0.00224863 0
1.52382e-15 -0.00212323 0
2.70258e-15 -0.00212323 0
5.91654e-15 -0.00224863 0
7.67145e-15 -0.00224863 0
2.70258e-15 -0.00212323 0