# vtk DataFile Version 3.0
#This file was generated by the deal.II library on 2018/10/14 at 22:48:16
ASCII
DATASET UNSTRUCTURED_GRID

POINTS 20480 double
0 0 0
0.19635 0 0
0 0.3125 0
0.19635 0.3125 0
0.19635 0 0
0.392699 0 0
0.19635 0.3125 0
0.392699 0.3125 0
0 0.3125 0
0.19635 0.3125 0
0 0.625 0
0.19635 0.625 0
0.19635 0.3125 0
0.392699 0.3125 0
0.19635 0.625 0
0.392699 0.625 0
0.392699 0 0
0.589049 0 0
0.392699 0.3125 0
0.589049 0.3125 0
0.589049 0 0
0.785398 0 0
0.589049 0.3125 0
0.785398 0.3125 0
0.392699 0.3125 0
0.589049 0.3125 0
0.392699 0.625 0
0.589049 0.625 0
0.589049 0.3125 0
0.785398 0.3125 0
0.589049 0.625 0
0.785398 0.625 0
0 0.625 0
0.19635 0.625 0
0 0.9375 0
0.19635 0.9375 0
0.19635 0.625 0
0.392699 0.625 0
0.19635 0.9375 0
0.392699 0.9375 0
0 0.9375 0
0.19635 0.9375 0
0 1.25 0
0.19635 1.25 0
0.19635 0.9375 0
0.392699 0.9375 0
0.19635 1.25 0
0.392699 1.25 0
0.392699 0.625 0
0.589049 0.625 0
0.392699 0.9375 0
0.589049 0.9375 0
0.589049 0.625 0
0.785398 0.625 0
0.589049 0.9375 0
0.785398 0.9375 0
0.392699 0.9375 0
0.589049 0.9375 0
0.392699 1.25 0
0.589049 1.25 0
0.589049 0.9375 0
0.785398 0.9375 0
0.589049 1.25 0
0.785398 1.25 0
0.785398 0 0
0.981748 0 0
0.785398 0.3125 0
0.981748 0.3125 0
0.981748 0 0
1.1781 0 0
0.981748 0.3125 0
1.1781 0.3125 0
0.785398 0.3125 0
0.981748 0.3125 0
0.785398 0.625 0
0.981748 0.625 0
0.981748 0.3125 0
1.1781 0.3125 0
0.981748 0.625 0
1.1781 0.625 0
1.1781 0 0
1.37445 0 0
1.1781 0.3125 0
1.37445 0.3125 0
1.37445 0 0
1.5708 0 0
1.37445 0.3125 0
1.5708 0.3125 0
1.1781 0.3125 0
1.37445 0.3125 0
1.1781 0.625 0
1.37445 0.625 0
1.37445 0.3125 0
1.5708 0.3125 0
1.37445 0.625 0
1.5708 0.625 0
0.785398 0.625 0
0.981748 0.625 0
0.785398 0.9375 0
0.981748 0.9375 0
0.981748 0.625 0
1.1781 0.625 0
0.981748 0.9375 0
1.1781 0.9375 0
0.785398 0.9375 0
0.981748 0.9375 0
0.785398 1.25 0
0.981748 1.25 0
0.981748 0.9375 0
1.1781 0.9375 0
0.981748 1.25 0
1.1781 1.25 0
1.1781 0.625 0
1.37445 0.625 0
1.1781 0.9375 0
1.37445 0.9375 0
1.37445 0.625 0
1.5708 0.625 0
1.37445 0.9375 0
1.5708 0.9375 0
1.1781 0.9375 0
1.37445 0.9375 0
1.1781 1.25 0
1.37445 1.25 0
1.37445 0.9375 0
1.5708 0.9375 0
1.37445 1.25 0
1.5708 1.25 0
0 1.25 0
0.19635 1.25 0
0 1.5625 0
0.19635 1.5625 0
0.19635 1.25 0
0.392699 1.25 0
0.19635 1.5625 0
0.392699 1.5625 0
0 1.5625 0
0.19635 1.5625 0
0 1.875 0
0.19635 1.875 0
0.19635 1.5625 0
0.392699 1.5625 0
0.19635 1.875 0
0.392699 1.875 0
0.392699 1.25 0
0.589049 1.25 0
0.392699 1.5625 0
0.589049 1.5625 0
0.589049 1.25 0
0.785398 1.25 0
0.589049 1.5625 0
0.785398 1.5625 0
0.392699 1.5625 0
0.589049 1.5625 0
0.392699 1.875 0
0.589049 1.875 0
0.589049 1.5625 0
0.785398 1.5625 0
0.589049 1.875 0
0.785398 1.875 0
0 1.875 0
0.19635 1.875 0
0 2.1875 0
0.19635 2.1875 0
0.19635 1.875 0
0.392699 1.875 0
0.19635 2.1875 0
0.392699 2.1875 0
0 2.1875 0
0.19635 2.1875 0
0 2.5 0
0.19635 2.5 0
0.19635 2.1875 0
0.392699 2.1875 0
0.19635 2.5 0
0.392699 2.5 0
0.392699 1.875 0
0.589049 1.875 0
0.392699 2.1875 0
0.589049 2.1875 0
0.589049 1.875 0
0.785398 1.875 0
0.589049 2.1875 0
0.785398 2.1875 0
0.392699 2.1875 0
0.589049 2.1875 0
0.392699 2.5 0
0.589049 2.5 0
0.589049 2.1875 0
0.785398 2.1875 0
0.589049 2.5 0
0.785398 2.5 0
0.785398 1.25 0
0.981748 1.25 0
0.785398 1.5625 0
0.981748 1.5625 0
0.981748 1.25 0
1.1781 1.25 0
0.981748 1.5625 0
1.1781 1.5625 0
0.785398 1.5625 0
0.981748 1.5625 0
0.785398 1.875 0
0.981748 1.875 0
0.981748 1.5625 0
1.1781 1.5625 0
0.981748 1.875 0
1.1781 1.875 0
1.1781 1.25 0
1.37445 1.25 0
1.1781 1.5625 0
1.37445 1.5625 0
1.37445 1.25 0
1.5708 1.25 0
1.37445 1.5625 0
1.5708 1.5625 0
1.1781 1.5625 0
1.37445 1.5625 0
1.1781 1.875 0
1.37445 1.875 0
1.37445 1.5625 0
1.5708 1.5625 0
1.37445 1.875 0
1.5708 1.875 0
0.785398 1.875 0
0.981748 1.875 0
0.785398 2.1875 0
0.981748 2.1875 0
0.981748 1.875 0
1.1781 1.875 0
0.981748 2.1875 0
1.1781 2.1875 0
0.785398 2.1875 0
0.981748 2.1875 0
0.785398 2.5 0
0.981748 2.5 0
0.981748 2.1875 0
1.1781 2.1875 0
0.981748 2.5 0
1.1781 2.5 0
1.1781 1.875 0
1.37445 1.875 0
1.1781 2.1875 0
1.37445 2.1875 0
1.37445 1.875 0
1.5708 1.875 0
1.37445 2.1875 0
1.5708 2.1875 0
1.1781 2.1875 0
1.37445 2.1875 0
1.1781 2.5 0
1.37445 2.5 0
1.37445 2.1875 0
1.5708 2.1875 0
1.37445 2.5 0
1.5708 2.5 0
1.5708 0 0
1.76715 0 0
1.5708 0.3125 0
1.76715 0.3125 0
1.76715 0 0
1.9635 0 0
1.76715 0.3125 0
1.9635 0.3125 0
1.5708 0.3125 0
1.76715 0.3125 0
1.5708 0.625 0
1.76715 0.625 0
1.76715 0.3125 0
1.9635 0.3125 0
1.76715 0.625 0
1.9635 0.625 0
1.9635 0 0
2.15984 0 0
1.9635 0.3125 0
2.15984 0.3125 0
2.15984 0 0
2.35619 0 0
2.15984 0.3125 0
2.35619 0.3125 0
1.9635 0.3125 0
2.15984 0.3125 0
1.9635 0.625 0
2.15984 0.625 0
2.15984 0.3125 0
2.35619 0.3125 0
2.15984 0.625 0
2.35619 0.625 0
1.5708 0.625 0
1.76715 0.625 0
1.5708 0.9375 0
1.76715 0.9375 0
1.76715 0.625 0
1.9635 0.625 0
1.76715 0.9375 0
1.9635 0.9375 0
1.5708 0.9375 0
1.76715 0.9375 0
1.5708 1.25 0
1.76715 1.25 0
1.76715 0.9375 0
1.9635 0.9375 0
1.76715 1.25 0
1.9635 1.25 0
1.9635 0.625 0
2.15984 0.625 0
1.9635 0.9375 0
2.15984 0.9375 0
2.15984 0.625 0
2.35619 0.625 0
2.15984 0.9375 0
2.35619 0.9375 0
1.9635 0.9375 0
2.15984 0.9375 0
1.9635 1.25 0
2.15984 1.25 0
2.15984 0.9375 0
2.35619 0.9375 0
2.15984 1.25 0
2.35619 1.25 0
2.35619 0 0
2.55254 0 0
2.35619 0.3125 0
2.55254 0.3125 0
2.55254 0 0
2.74889 0 0
2.55254 0.3125 0
2.74889 0.3125 0
2.35619 0.3125 0
2.55254 0.3125 0
2.35619 0.625 0
2.55254 0.625 0
2.55254 0.3125 0
2.74889 0.3125 0
2.55254 0.625 0
2.74889 0.625 0
2.74889 0 0
2.94524 0 0
2.74889 0.3125 0
2.94524 0.3125 0
2.94524 0 0
3.14159 0 0
2.94524 0.3125 0
3.14159 0.3125 0
2.74889 0.3125 0
2.94524 0.3125 0
2.74889 0.625 0
2.94524 0.625 0
2.94524 0.3125 0
3.14159 0.3125 0
2.94524 0.625 0
3.14159 0.625 0
2.35619 0.625 0
2.55254 0.625 0
2.35619 0.9375 0
2.55254 0.9375 0
2.55254 0.625 0
2.74889 0.625 0
2.55254 0.9375 0
2.74889 0.9375 0
2.35619 0.9375 0
2.55254 0.9375 0
2.35619 1.25 0
2.55254 1.25 0
2.55254 0.9375 0
2.74889 0.9375 0
2.55254 1.25 0
2.74889 1.25 0
2.74889 0.625 0
2.94524 0.625 0
2.74889 0.9375 0
2.94524 0.9375 0
2.94524 0.625 0
3.14159 0.625 0
2.94524 0.9375 0
3.14159 0.9375 0
2.74889 0.9375 0
2.94524 0.9375 0
2.74889 1.25 0
2.94524 1.25 0
2.94524 0.9375 0
3.14159 0.9375 0
2.94524 1.25 0
3.14159 1.25 0
1.5708 1.25 0
1.76715 1.25 0
1.5708 1.5625 0
1.76715 1.5625 0
1.76715 1.25 0
1.9635 1.25 0
1.76715 1.5625 0
1.9635 1.5625 0
1.5708 1.5625 0
1.76715 1.5625 0
1.5708 1.875 0
1.76715 1.875 0
1.76715 1.5625 0
1.9635 1.5625 0
1.76715 1.875 0
1.9635 1.875 0
1.9635 1.25 0
2.15984 1.25 0
1.9635 1.5625 0
2.15984 1.5625 0
2.15984 1.25 0
2.35619 1.25 0
2.15984 1.5625 0
2.35619 1.5625 0
1.9635 1.5625 0
2.15984 1.5625 0
1.9635 1.875 0
2.15984 1.875 0
2.15984 1.5625 0
2.35619 1.5625 0
2.15984 1.875 0
2.35619 1.875 0
1.5708 1.875 0
1.76715 1.875 0
1.5708 2.1875 0
1.76715 2.1875 0
1.76715 1.875 0
1.9635 1.875 0
1.76715 2.1875 0
1.9635 2.1875 0
1.5708 2.1875 0
1.76715 2.1875 0
1.5708 2.5 0
1.76715 2.5 0
1.76715 2.1875 0
1.9635 2.1875 0
1.76715 2.5 0
1.9635 2.5 0
1.9635 1.875 0
2.15984 1.875 0
1.9635 2.1875 0
2.15984 2.1875 0
2.15984 1.875 0
2.35619 1.875 0
2.15984 2.1875 0
2.35619 2.1875 0
1.9635 2.1875 0
2.15984 2.1875 0
1.9635 2.5 0
2.15984 2.5 0
2.15984 2.1875 0
2.35619 2.1875 0
2.15984 2.5 0
2.35619 2.5 0
2.35619 1.25 0
2.55254 1.25 0
2.35619 1.5625 0
2.55254 1.5625 0
2.55254 1.25 0
2.74889 1.25 0
2.55254 1.5625 0
2.74889 1.5625 0
2.35619 1.5625 0
2.55254 1.5625 0
2.35619 1.875 0
2.55254 1.875 0
2.55254 1.5625 0
2.74889 1.5625 0
2.55254 1.875 0
2.74889 1.875 0
2.74889 1.25 0
2.94524 1.25 0
2.74889 1.5625 0
2.94524 1.5625 0
2.94524 1.25 0
3.14159 1.25 0
2.94524 1.5625 0
3.14159 1.5625 0
2.74889 1.5625 0
2.94524 1.5625 0
2.74889 1.875 0
2.94524 1.875 0
2.94524 1.5625 0
3.14159 1.5625 0
2.94524 1.875 0
3.14159 1.875 0
2.35619 1.875 0
2.55254 1.875 0
2.35619 2.1875 0
2.55254 2.1875 0
2.55254 1.875 0
2.74889 1.875 0
2.55254 2.1875 0
2.74889 2.1875 0
2.35619 2.1875 0
2.55254 2.1875 0
2.35619 2.5 0
2.55254 2.5 0
2.55254 2.1875 0
2.74889 2.1875 0
2.55254 2.5 0
2.74889 2.5 0
2.74889 1.875 0
2.94524 1.875 0
2.74889 2.1875 0
2.94524 2.1875 0
2.94524 1.875 0
3.14159 1.875 0
2.94524 2.1875 0
3.14159 2.1875 0
2.74889 2.1875 0
2.94524 2.1875 0
2.74889 2.5 0
2.94524 2.5 0
2.94524 2.1875 0
3.14159 2.1875 0
2.94524 2.5 0
3.14159 2.5 0
0 2.5 0
0.19635 2.5 0
0 2.8125 0
0.19635 2.8125 0
0.19635 2.5 0
0.392699 2.5 0
0.19635 2.8125 0
0.392699 2.8125 0
0 2.8125 0
0.19635 2.8125 0
0 3.125 0
0.19635 3.125 0
0.19635 2.8125 0
0.392699 2.8125 0
0.19635 3.125 0
0.392699 3.125 0
0.392699 2.5 0
0.589049 2.5 0
0.392699 2.8125 0
0.589049 2.8125 0
0.589049 2.5 0
0.785398 2.5 0
0.589049 2.8125 0
0.785398 2.8125 0
0.392699 2.8125 0
0.589049 2.8125 0
0.392699 3.125 0
0.589049 3.125 0
0.589049 2.8125 0
0.785398 2.8125 0
0.589049 3.125 0
0.785398 3.125 0
0 3.125 0
0.19635 3.125 0
0 3.4375 0
0.19635 3.4375 0
0.19635 3.125 0
0.392699 3.125 0
0.19635 3.4375 0
0.392699 3.4375 0
0 3.4375 0
0.19635 3.4375 0
0 3.75 0
0.19635 3.75 0
0.19635 3.4375 0
0.392699 3.4375 0
0.19635 3.75 0
0.392699 3.75 0
0.392699 3.125 0
0.589049 3.125 0
0.392699 3.4375 0
0.589049 3.4375 0
0.589049 3.125 0
0.785398 3.125 0
0.589049 3.4375 0
0.785398 3.4375 0
0.392699 3.4375 0
0.589049 3.4375 0
0.392699 3.75 0
0.589049 3.75 0
0.589049 3.4375 0
0.785398 3.4375 0
0.589049 3.75 0
0.785398 3.75 0
0.785398 2.5 0
0.981748 2.5 0
0.785398 2.8125 0
0.981748 2.8125 0
0.981748 2.5 0
1.1781 2.5 0
0.981748 2.8125 0
1.1781 2.8125 0
0.785398 2.8125 0
0.981748 2.8125 0
0.785398 3.125 0
0.981748 3.125 0
0.981748 2.8125 0
1.1781 2.8125 0
0.981748 3.125 0
1.1781 3.125 0
1.1781 2.5 0
1.37445 2.5 0
1.1781 2.8125 0
1.37445 2.8125 0
1.37445 2.5 0
1.5708 2.5 0
1.37445 2.8125 0
1.5708 2.8125 0
1.1781 2.8125 0
1.37445 2.8125 0
1.1781 3.125 0
1.37445 3.125 0
1.37445 2.8125 0
1.5708 2.8125 0
1.37445 3.125 0
1.5708 3.125 0
0.785398 3.125 0
0.981748 3.125 0
0.785398 3.4375 0
0.981748 3.4375 0
0.981748 3.125 0
1.1781 3.125 0
0.981748 3.4375 0
1.1781 3.4375 0
0.785398 3.4375 0
0.981748 3.4375 0
[...]
POINT_DATA 20480
VECTORS uf double
0 1 0
7.29438e-14 1 0
0 1 0
8.83191e-15 1 0
7.29438e-14 1 0
9.61753e-14 1 0
8.83191e-15 1 0
1.25209e-14 1 0
0 1 0
1.1755e-13 1 0
0 1 0
-4.74853e-14 1 0
1.1755e-13 1 0
9.21383e-15 1 0
-4.74853e-14 1 0
-1.611e-14 1 0
9.61753e-14 1 0
-1.30997e-13 1 0
1.25209e-14 1 0
-1.08345e-13 1 0
-1.30997e-13 1 0
-1.62881e-13 1 0
-1.08345e-13 1 0
3.77994e-13 1 0
9.21383e-15 1 0
-2.21339e-13 1 0
-1.611e-14 1 0
-1.97454e-13 1 0
-2.21339e-13 1 0
-1.18552e-12 1 0
-1.97454e-13 1 0
-3.77804e-14 1 0
0 1 0
8.67978e-14 1 0
0 1 0
-2.53155e-14 1 0
8.67978e-14 1 0
1.11818e-14 1 0
-2.53155e-14 1 0
6.011e-14 1 0
0 1 0
5.71585e-14 1 0
0 1 0
1.79634e-14 1 0
5.71585e-14 1 0
-4.3755e-15 1 0
1.79634e-14 1 0
4.44511e-14 1 0
1.11818e-14 1 0
-1.02293e-13 1 0
6.011e-14 1 0
-1.97026e-14 1 0
-1.02293e-13 1 0
-9.2773e-14 1 0
-1.97026e-14 1 0
-4.53468e-15 1 0
-4.3755e-15 1 0
-1.05574e-13 1 0
4.44511e-14 1 0
-5.7045e-15 1 0
-1.05574e-13 1 0
1.04384e-14 1 0
-5.7045e-15 1 0
3.2861e-14 1 0
-1.62881e-13 1 0
1.5302e-13 1 0
3.77994e-13 1 0
-5.51459e-13 1 0
1.5302e-13 1 0
-6.51969e-14 1 0
-5.51459e-13 1 0
1.17718e-12 1 0
-1.18552e-12 1 0
7.72922e-13 1 0
-3.77804e-14 1 0
-2.31444e-13 1 0
7.72922e-13 1 0
-1.36529e-12 1 0
-2.31444e-13 1 0
3.26773e-13 1 0
-6.51969e-14 1 0
5.23307e-13 1 0
1.17718e-12 1 0
-6.80222e-13 1 0
5.23307e-13 1 0
1.48789e-13 1 0
-6.80222e-13 1 0
4.88743e-13 1 0
-1.36529e-12 1 0
2.59673e-12 1 0
3.26773e-13 1 0
3.09241e-14 1 0
2.59673e-12 1 0
-3.03177e-13 1 0
3.09241e-14 1 0
5.11147e-13 1 0
-9.2773e-14 1 0
-1.62411e-13 1 0
-4.53468e-15 1 0
8.51081e-14 1 0
-1.62411e-13 1 0
3.44105e-13 1 0
8.51081e-14 1 0
8.00437e-14 1 0
1.04384e-14 1 0
3.9865e-14 1 0
3.2861e-14 1 0
7.01184e-14 1 0
3.9865e-14 1 0
9.00786e-14 1 0
7.01184e-14 1 0
8.16814e-14 1 0
3.44105e-13 1 0
1.90228e-13 1 0
8.00437e-14 1 0
1.75957e-13 1 0
1.90228e-13 1 0
3.63267e-13 1 0
1.75957e-13 1 0
1.34493e-13 1 0
9.00786e-14 1 0
1.28251e-13 1 0
8.16814e-14 1 0
7.9618e-14 1 0
1.28251e-13 1 0
1.91668e-13 1 0
7.9618e-14 1 0
1.27532e-13 1 0
0 1 0
6.52656e-14 1 0
0 1 0
3.26689e-14 1 0
6.52656e-14 1 0
3.5815e-14 1 0
3.26689e-14 1 0
2.78943e-14 1 0
0 1 0
6.42509e-14 1 0
0 1 0
3.10314e-14 1 0
6.42509e-14 1 0
3.57091e-14 1 0
3.10314e-14 1 0
2.18766e-14 1 0
3.5815e-14 1 0
6.97879e-14 1 0
2.78943e-14 1 0
2.91077e-14 1 0
6.97879e-14 1 0
1.79989e-14 1 0
2.91077e-14 1 0
9.38844e-14 1 0
3.57091e-14 1 0
4.59975e-14 1 0
2.18766e-14 1 0
5.25278e-14 1 0
4.59975e-14 1 0
2.42555e-14 1 0
5.25278e-14 1 0
7.26626e-14 1 0
0 1 0
8.91277e-14 1 0
0 1 0
1.82155e-14 1 0
8.91277e-14 1 0
3.78716e-14 1 0
1.82155e-14 1 0
3.08962e-14 1 0
0 1 0
6.78077e-14 1 0
0 1 0
4.18843e-14 1 0
6.78077e-14 1 0
3.56967e-14 1 0
4.18843e-14 1 0
1.72487e-14 1 0
3.78716e-14 1 0
6.7474e-14 1 0
3.08962e-14 1 0
4.47777e-14 1 0
6.7474e-14 1 0
5.20327e-14 1 0
4.47777e-14 1 0
7.23655e-14 1 0
3.56967e-14 1 0
5.17239e-14 1 0
1.72487e-14 1 0
6.7263e-14 1 0
5.17239e-14 1 0
4.81059e-14 1 0
6.7263e-14 1 0
4.57574e-14 1 0
1.79989e-14 1 0
6.64717e-14 1 0
9.38844e-14 1 0
5.79524e-14 1 0
6.64717e-14 1 0
8.82863e-14 1 0
5.79524e-14 1 0
5.98428e-14 1 0
2.42555e-14 1 0
9.43977e-14 1 0
7.26626e-14 1 0
4.71126e-14 1 0
9.43977e-14 1 0
6.07578e-14 1 0
4.71126e-14 1 0
9.16537e-14 1 0
8.82863e-14 1 0
1.1283e-13 1 0
5.98428e-14 1 0
9.73314e-14 1 0
1.1283e-13 1 0
1.23131e-13 1 0
9.73314e-14 1 0
8.74932e-14 1 0
6.07578e-14 1 0
1.17751e-13 1 0
9.16537e-14 1 0
8.12014e-14 1 0
1.17751e-13 1 0
1.09269e-13 1 0
8.12014e-14 1 0
7.97263e-14 1 0
5.20327e-14 1 0
7.57142e-14 1 0
7.23655e-14 1 0
5.49663e-14 1 0
7.57142e-14 1 0
7.91201e-14 1 0
5.49663e-14 1 0
6.8026e-14 1 0
4.81059e-14 1 0
7.62443e-14 1 0
4.57574e-14 1 0
7.26565e-14 1 0
7.62443e-14 1 0
6.78925e-14 1 0
7.26565e-14 1 0
7.24454e-14 1 0
7.91201e-14 1 0
9.77067e-14 1 0
6.8026e-14 1 0
7.96851e-14 1 0
9.77067e-14 1 0
1.0556e-13 1 0
7.96851e-14 1 0
6.40083e-14 1 0
6.78925e-14 1 0
8.57543e-14 1 0
7.24454e-14 1 0
7.36454e-14 1 0
8.57543e-14 1 0
9.22115e-14 1 0
7.36454e-14 1 0
6.41108e-14 1 0
1.48789e-13 1 0
3.03956e-14 1 0
4.88743e-13 1 0
-5.09687e-14 1 0
3.03956e-14 1 0
8.46579e-14 1 0
-5.09687e-14 1 0
1.39962e-13 1 0
-3.03177e-13 1 0
-5.24526e-14 1 0
5.11147e-13 1 0
2.59995e-13 1 0
-5.24526e-14 1 0
6.37706e-14 1 0
2.59995e-13 1 0
1.99754e-13 1 0
8.46579e-14 1 0
8.63541e-14 1 0
1.39962e-13 1 0
1.51025e-13 1 0
8.63541e-14 1 0
1.21091e-13 1 0
1.51025e-13 1 0
1.65558e-13 1 0
6.37706e-14 1 0
7.80475e-14 1 0
1.99754e-13 1 0
1.69763e-13 1 0
7.80475e-14 1 0
8.67969e-14 1 0
1.69763e-13 1 0
1.75029e-13 1 0
3.63267e-13 1 0
1.31404e-13 1 0
1.34493e-13 1 0
1.86224e-13 1 0
1.31404e-13 1 0
1.25403e-13 1 0
1.86224e-13 1 0
1.81645e-13 1 0
1.91668e-13 1 0
1.54992e-13 1 0
1.27532e-13 1 0
1.39497e-13 1 0
1.54992e-13 1 0
1.84052e-13 1 0
1.39497e-13 1 0
1.2107e-13 1 0
1.25403e-13 1 0
1.19468e-13 1 0
1.81645e-13 1 0
1.51714e-13 1 0
1.19468e-13 1 0
1.19456e-13 1 0
1.51714e-13 1 0
1.45302e-13 1 0
1.84052e-13 1 0
1.63372e-13 1 0
1.2107e-13 1 0
1.42208e-13 1 0
1.63372e-13 1 0
1.89156e-13 1 0
1.42208e-13 1 0
1.63222e-13 1 0
1.21091e-13 1 0
1.26124e-13 1 0
1.65558e-13 1 0
1.68649e-13 1 0
1.26124e-13 1 0
1.35688e-13 1 0
1.68649e-13 1 0
1.79979e-13 1 0
8.67969e-14 1 0
1.02656e-13 1 0
1.75029e-13 1 0
1.58017e-13 1 0
1.02656e-13 1 0
1.28659e-13 1 0
1.58017e-13 1 0
1.6471e-13 1 0
1.35688e-13 1 0
1.4283e-13 1 0
1.79979e-13 1 0
1.66348e-13 1 0
1.4283e-13 1 0
2.01023e-13 1 0
1.66348e-13 1 0
1.08976e-13 1 0
1.28659e-13 1 0
1.48399e-13 1 0
1.6471e-13 1 0
2.12589e-13 1 0
1.48399e-13 1 0
2.53982e-13 1 0
2.12589e-13 1 0
2.30594e-13 1 0
1.19456e-13 1 0
1.05933e-13 1 0
1.45302e-13 1 0
2.33515e-13 1 0
1.05933e-13 1 0
1.13824e-13 1 0
2.33515e-13 1 0
3.00214e-13 1 0
1.89156e-13 1 0
2.16502e-14 1 0
1.63222e-13 1 0
1.15917e-13 1 0
2.16502e-14 1 0
-1.5154e-15 1 0
1.15917e-13 1 0
-1.18742e-14 1 0
1.13824e-13 1 0
8.65551e-14 1 0
3.00214e-13 1 0
2.10724e-14 1 0
8.65551e-14 1 0
1.11037e-13 1 0
2.10724e-14 1 0
-1.19073e-14 1 0
-1.5154e-15 1 0
3.15903e-13 1 0
-1.18742e-14 1 0
3.46274e-13 1 0
3.15903e-13 1 0
3.66704e-13 1 0
3.46274e-13 1 0
2.63908e-13 1 0
1.23131e-13 1 0
1.29509e-13 1 0
8.74932e-14 1 0
1.09615e-13 1 0
1.29509e-13 1 0
1.16565e-13 1 0
1.09615e-13 1 0
1.11035e-13 1 0
1.09269e-13 1 0
1.28817e-13 1 0
7.97263e-14 1 0
8.41801e-14 1 0
1.28817e-13 1 0
1.15683e-13 1 0
8.41801e-14 1 0
9.65476e-14 1 0
1.16565e-13 1 0
1.36678e-13 1 0
1.11035e-13 1 0
1.0898e-13 1 0
1.36678e-13 1 0
9.62098e-14 1 0
1.0898e-13 1 0
7.34935e-14 1 0
1.15683e-13 1 0
1.41863e-13 1 0
9.65476e-14 1 0
1.21692e-13 1 0
1.41863e-13 1 0
1.62847e-13 1 0
1.21692e-13 1 0
1.02898e-13 1 0
1.0556e-13 1 0
1.13985e-13 1 0
6.40083e-14 1 0
1.06146e-13 1 0
1.13985e-13 1 0
1.22908e-13 1 0
1.06146e-13 1 0
7.15241e-14 1 0
9.22115e-14 1 0
8.7642e-14 1 0
6.41108e-14 1 0
9.53513e-14 1 0
8.7642e-14 1 0
9.8309e-14 1 0
9.53513e-14 1 0
7.03615e-14 1 0
1.22908e-13 1 0
1.22192e-13 1 0
7.15241e-14 1 0
8.51579e-14 1 0
1.22192e-13 1 0
1.17488e-13 1 0
8.51579e-14 1 0
1.0489e-13 1 0
9.8309e-14 1 0
1.01512e-13 1 0
7.03615e-14 1 0
8.663e-14 1 0
1.01512e-13 1 0
9.72874e-14 1 0
8.663e-14 1 0
5.55262e-14 1 0
9.62098e-14 1 0
2.9684e-13 1 0
7.34935e-14 1 0
2.48785e-13 1 0
2.9684e-13 1 0
3.08864e-13 1 0
2.48785e-13 1 0
3.05275e-13 1 0
1.62847e-13 1 0
9.57835e-14 1 0
1.02898e-13 1 0
6.10644e-14 1 0
9.57835e-14 1 0
-1.21215e-14 1 0
6.10644e-14 1 0
6.89488e-14 1 0
3.08864e-13 1 0
-9.17848e-14 1 0
3.05275e-13 1 0
-6.72086e-14 1 0
-9.17848e-14 1 0
4.12889e-15 1 0
-6.72086e-14 1 0
-1.07302e-14 1 0
-1.21215e-14 1 0
3.05962e-13 1 0
6.89488e-14 1 0
1.72618e-13 1 0
3.05962e-13 1 0
2.94962e-13 1 0
1.72618e-13 1 0
1.67093e-13 1 0
1.17488e-13 1 0
1.10439e-13 1 0
1.0489e-13 1 0
1.26544e-13 1 0
1.10439e-13 1 0
1.16539e-13 1 0
1.26544e-13 1 0
6.91225e-14 1 0
9.72874e-14 1 0
1.55673e-13 1 0
5.55262e-14 1 0
1.93452e-13 1 0
1.55673e-13 1 0
1.11777e-13 1 0
1.93452e-13 1 0
1.32011e-13 1 0
1.16539e-13 1 0
1.41161e-13 1 0
6.91225e-14 1 0
1.75311e-13 1 0
1.41161e-13 1 0
1.40988e-13 1 0
1.75311e-13 1 0
1.09874e-13 1 0
1.11777e-13 1 0
8.34808e-14 1 0
1.32011e-13 1 0
7.63126e-14 1 0
8.34808e-14 1 0
1.32392e-13 1 0
7.63126e-14 1 0
6.81506e-14 1 0
0 1 0
6.61172e-14 1 0
0 1 0
3.30496e-14 1 0
6.61172e-14 1 0
4.79909e-14 1 0
3.30496e-14 1 0
1.43513e-14 1 0
0 1 0
6.7183e-14 1 0
0 1 0
3.13223e-14 1 0
6.7183e-14 1 0
3.31911e-14 1 0
3.13223e-14 1 0
3.39348e-14 1 0
4.79909e-14 1 0
6.53709e-14 1 0
1.43513e-14 1 0
3.93668e-14 1 0
6.53709e-14 1 0
3.45447e-14 1 0
3.93668e-14 1 0
7.07207e-14 1 0
3.31911e-14 1 0
6.23567e-14 1 0
3.39348e-14 1 0
4.80896e-14 1 0
6.23567e-14 1 0
3.51111e-14 1 0
4.80896e-14 1 0
7.96671e-14 1 0
0 1 0
6.70191e-14 1 0
0 1 0
2.36147e-14 1 0
6.70191e-14 1 0
3.81235e-14 1 0
2.36147e-14 1 0
2.27967e-14 1 0
0 1 0
7.00939e-14 1 0
0 1 0
2.42844e-14 1 0
7.00939e-14 1 0
3.12048e-14 1 0
2.42844e-14 1 0
3.45061e-14 1 0
3.81235e-14 1 0
5.06304e-14 1 0
2.27967e-14 1 0
5.22e-14 1 0
5.06304e-14 1 0
3.39859e-14 1 0
5.22e-14 1 0
6.06066e-14 1 0
3.12048e-14 1 0
4.55455e-14 1 0
3.45061e-14 1 0
7.07221e-14 1 0
4.55455e-14 1 0
1.99978e-14 1 0
7.07221e-14 1 0
6.77988e-14 1 0
3.45447e-14 1 0
6.57743e-14 1 0
7.07207e-14 1 0
5.71871e-14 1 0
6.57743e-14 1 0
9.17717e-14 1 0
5.71871e-14 1 0
4.34101e-14 1 0
3.51111e-14 1 0
6.37559e-14 1 0
7.96671e-14 1 0
5.64673e-14 1 0
6.37559e-14 1 0
6.1034e-14 1 0
5.64673e-14 1 0
5.83757e-14 1 0
9.17717e-14 1 0
8.30841e-14 1 0
4.34101e-14 1 0
7.08213e-14 1 0
8.30841e-14 1 0
9.13157e-14 1 0
7.08213e-14 1 0
5.69519e-14 1 0
6.1034e-14 1 0
7.34765e-14 1 0
5.83757e-14 1 0
5.94675e-14 1 0
7.34765e-14 1 0
7.97227e-14 1 0
5.94675e-14 1 0
5.21569e-14 1 0
3.39859e-14 1 0
5.06989e-14 1 0
6.06066e-14 1 0
5.95634e-14 1 0
5.06989e-14 1 0
7.26825e-14 1 0
5.95634e-14 1 0
4.73339e-14 1 0
1.99978e-14 1 0
4.39834e-14 1 0
6.77988e-14 1 0
6.49771e-14 1 0
4.39834e-14 1 0
4.72955e-14 1 0
6.49771e-14 1 0
7.13116e-14 1 0
7.26825e-14 1 0
8.17209e-14 1 0
4.73339e-14 1 0
4.66925e-14 1 0
8.17209e-14 1 0
7.28054e-14 1 0
4.66925e-14 1 0
5.13422e-14 1 0
4.72955e-14 1 0
6.06368e-14 1 0
7.13116e-14 1 0
6.69144e-14 1 0
6.06368e-14 1 0
6.55439e-14 1 0
6.69144e-14 1 0
6.97254e-14 1 0
0 1 0
8.09008e-14 1 0
0 1 0
5.01736e-15 1 0
8.09008e-14 1 0
1.18462e-13 1 0
5.01736e-15 1 0
7.92762e-14 1 0
0 1 0
4.18712e-14 1 0
0 1 0
2.10657e-14 1 0
4.18712e-14 1 0
9.05939e-14 1 0
2.10657e-14 1 0
1.19231e-13 1 0
1.18462e-13 1 0
3.53238e-15 1 0
7.92762e-14 1 0
-1.89183e-15 1 0
3.53238e-15 1 0
-1.06682e-14 1 0
-1.89183e-15 1 0
5.05515e-14 1 0
9.05939e-14 1 0
-1.90048e-14 1 0
1.19231e-13 1 0
-1.25672e-14 1 0
-1.90048e-14 1 0
5.07779e-14 1 0
-1.25672e-14 1 0
3.80094e-14 1 0
0 1 0
2.94267e-14 1 0
0 1 0
2.17931e-14 1 0
2.94267e-14 1 0
9.10783e-14 1 0
2.17931e-14 1 0
1.17219e-13 1 0
0 1 0
2.07149e-14 1 0
0 1 0
1.43655e-14 1 0
2.07149e-14 1 0
8.83228e-14 1 0
1.43655e-14 1 0
1.10605e-13 1 0
9.10783e-14 1 0
-9.62765e-15 1 0
1.17219e-13 1 0
-1.55992e-14 1 0
-9.62765e-15 1 0
4.1322e-14 1 0
-1.55992e-14 1 0
5.25981e-14 1 0
8.83228e-14 1 0
-2.179e-14 1 0
1.10605e-13 1 0
-2.03477e-14 1 0
-2.179e-14 1 0
3.43051e-14 1 0
-2.03477e-14 1 0
4.79702e-14 1 0
-1.06682e-14 1 0
8.28282e-14 1 0
5.05515e-14 1 0
6.47497e-14 1 0
8.28282e-14 1 0
5.85244e-14 1 0
6.47497e-14 1 0
8.56848e-14 1 0
5.07779e-14 1 0
5.0894e-14 1 0
3.80094e-14 1 0
4.10969e-14 1 0
5.0894e-14 1 0
6.00974e-14 1 0
4.10969e-14 1 0
7.28146e-14 1 0
5.85244e-14 1 0
6.97886e-14 1 0
8.56848e-14 1 0
8.32928e-14 1 0
6.97886e-14 1 0
7.73249e-14 1 0
8.32928e-14 1 0
7.94515e-14 1 0
6.00974e-14 1 0
6.33186e-14 1 0
7.28146e-14 1 0
6.0917e-14 1 0
6.33186e-14 1 0
6.00414e-14 1 0
6.0917e-14 1 0
7.69672e-14 1 0
4.1322e-14 1 0
3.17453e-14 1 0
5.25981e-14 1 0
3.70339e-14 1 0
3.17453e-14 1 0
4.16642e-14 1 0
3.70339e-14 1 0
6.54036e-14 1 0
3.43051e-14 1 0
3.0711e-14 1 0
4.79702e-14 1 0
2.55325e-14 1 0
3.0711e-14 1 0
4.30732e-14 1 0
2.55325e-14 1 0
5.98747e-14 1 0
4.16642e-14 1 0
4.29826e-14 1 0
6.54036e-14 1 0
5.68975e-14 1 0
4.29826e-14 1 0
5.34044e-14 1 0
5.68975e-14 1 0
6.47673e-14 1 0
4.30732e-14 1 0
3.91837e-14 1 0
5.98747e-14 1 0
4.50721e-14 1 0
3.91837e-14 1 0
5.16807e-14 1 0
4.50721e-14 1 0
4.91991e-14 1 0
9.13157e-14 1 0
8.38515e-14 1 0
5.69519e-14 1 0
7.32977e-14 1 0
8.38515e-14 1 0
1.21938e-13 1 0
7.32977e-14 1 0
6.45107e-14 1 0
7.97227e-14 1 0
8.37254e-14 1 0
5.21569e-14 1 0
7.48686e-14 1 0
8.37254e-14 1 0
8.81948e-14 1 0
7.48686e-14 1 0
6.97994e-14 1 0
1.21938e-13 1 0
1.12608e-13 1 0
6.45107e-14 1 0
7.19963e-14 1 0
1.12608e-13 1 0
9.21877e-14 1 0
7.19963e-14 1 0
6.44593e-14 1 0
8.81948e-14 1 0
9.54486e-14 1 0
6.97994e-14 1 0
8.74204e-14 1 0
9.54486e-14 1 0
1.06145e-13 1 0
8.74204e-14 1 0
6.8159e-14 1 0
7.28054e-14 1 0
9.1426e-14 1 0
5.13422e-14 1 0
5.06845e-14 1 0
9.1426e-14 1 0
8.23109e-14 1 0
5.06845e-14 1 0
6.06256e-14 1 0
6.55439e-14 1 0
7.91624e-14 1 0
6.97254e-14 1 0
5.73229e-14 1 0
7.91624e-14 1 0
6.67031e-14 1 0
5.73229e-14 1 0
6.86811e-14 1 0
8.23109e-14 1 0
9.44263e-14 1 0
6.06256e-14 1 0
7.39773e-14 1 0
9.44263e-14 1 0
8.38112e-14 1 0
7.39773e-14 1 0
5.58576e-14 1 0
6.67031e-14 1 0
8.60037e-14 1 0
6.86811e-14 1 0
6.524e-14 1 0
8.60037e-14 1 0
7.42777e-14 1 0
6.524e-14 1 0
5.51783e-14 1 0
9.21877e-14 1 0
1.90619e-13 1 0
6.44593e-14 1 0
1.25394e-13 1 0
1.90619e-13 1 0
1.43655e-13 1 0
1.25394e-13 1 0
1.06546e-13 1 0
1.06145e-13 1 0
9.91359e-14 1 0
6.8159e-14 1 0
5.46791e-14 1 0
9.91359e-14 1 0
8.92532e-14 1 0
5.46791e-14 1 0
3.96587e-14 1 0
1.43655e-13 1 0
6.76828e-14 1 0
1.06546e-13 1 0
6.86757e-14 1 0
6.76828e-14 1 0
1.1541e-13 1 0
6.86757e-14 1 0
8.27558e-14 1 0
8.92532e-14 1 0
1.25467e-13 1 0
3.96587e-14 1 0
1.30734e-13 1 0
1.25467e-13 1 0
1.34202e-13 1 0
1.30734e-13 1 0
1.21111e-13 1 0
8.38112e-14 1 0
6.3309e-14 1 0
5.58576e-14 1 0
9.63643e-14 1 0
6.3309e-14 1 0
6.79091e-14 1 0
9.63643e-14 1 0
4.62953e-14 1 0
7.42777e-14 1 0
1.10579e-13 1 0
5.51783e-14 1 0
1.46415e-13 1 0
1.10579e-13 1 0
8.2675e-14 1 0
1.46415e-13 1 0
1.24173e-13 1 0
6.79091e-14 1 0
1.19635e-13 1 0
4.62953e-14 1 0
1.22011e-13 1 0
1.19635e-13 1 0
1.20832e-13 1 0
1.22011e-13 1 0
7.51456e-14 1 0
8.2675e-14 1 0
6.08569e-14 1 0
1.24173e-13 1 0
1.43634e-14 1 0
6.08569e-14 1 0
8.31296e-14 1 0
1.43634e-14 1 0
4.65764e-14 1 0
7.73249e-14 1 0
6.78843e-14 1 0
7.94515e-14 1 0
9.55481e-14 1 0
6.78843e-14 1 0
8.21921e-14 1 0
9.55481e-14 1 0
8.83944e-14 1 0
6.00414e-14 1 0
6.65409e-14 1 0
7.69672e-14 1 0
6.51218e-14 1 0
6.65409e-14 1 0
6.06849e-14 1 0
6.51218e-14 1 0
7.94142e-14 1 0
8.21921e-14 1 0
8.56789e-14 1 0
8.83944e-14 1 0
9.19864e-14 1 0
8.56789e-14 1 0
7.72488e-14 1 0
9.19864e-14 1 0
8.9725e-14 1 0
6.06849e-14 1 0
6.26931e-14 1 0
7.94142e-14 1 0
8.93217e-14 1 0
6.26931e-14 1 0
8.05519e-14 1 0
8.93217e-14 1 0
8.64565e-14 1 0
5.34044e-14 1 0
4.90969e-14 1 0
6.47673e-14 1 0
6.19755e-14 1 0
4.90969e-14 1 0
5.91559e-14 1 0
6.19755e-14 1 0
6.27336e-14 1 0
5.16807e-14 1 0
4.31224e-14 1 0
4.91991e-14 1 0
5.91485e-14 1 0
4.31224e-14 1 0
5.63286e-14 1 0
5.91485e-14 1 0
6.04965e-14 1 0
5.91559e-14 1 0
6.15382e-14 1 0
6.27336e-14 1 0
6.08724e-14 1 0
6.15382e-14 1 0
6.25014e-14 1 0
6.08724e-14 1 0
7.70313e-14 1 0
5.63286e-14 1 0
5.19871e-14 1 0
6.04965e-14 1 0
5.55683e-14 1 0
5.19871e-14 1 0
5.41419e-14 1 0
5.55683e-14 1 0
4.82882e-14 1 0
7.72488e-14 1 0
7.54102e-14 1 0
8.9725e-14 1 0
9.10214e-14 1 0
7.54102e-14 1 0
1.12442e-13 1 0
9.10214e-14 1 0
9.7382e-14 1 0
8.05519e-14 1 0
7.26046e-14 1 0
8.64565e-14 1 0
4.78996e-14 1 0
7.26046e-14 1 0
6.4669e-14 1 0
4.78996e-14 1 0
3.28354e-14 1 0
1.12442e-13 1 0
2.49534e-14 1 0
9.7382e-14 1 0
5.78906e-14 1 0
2.49534e-14 1 0
9.69914e-14 1 0
5.78906e-14 1 0
8.69414e-14 1 0
6.4669e-14 1 0
8.8358e-14 1 0
3.28354e-14 1 0
1.23577e-13 1 0
8.8358e-14 1 0
8.76418e-14 1 0
1.23577e-13 1 0
1.19967e-13 1 0
6.25014e-14 1 0
3.49792e-14 1 0
7.70313e-14 1 0
7.71127e-14 1 0
3.49792e-14 1 0
5.55865e-14 1 0
7.71127e-14 1 0
4.96744e-14 1 0
5.41419e-14 1 0
5.40519e-14 1 0
4.82882e-14 1 0
1.0158e-13 1 0
5.40519e-14 1 0
3.19691e-14 1 0
1.0158e-13 1 0
9.47198e-14 1 0
5.55865e-14 1 0
8.71897e-14 1 0
4.96744e-14 1 0
8.02963e-14 1 0
8.71897e-14 1 0
9.9747e-14 1 0
8.02963e-14 1 0
6.95467e-14 1 0
3.19691e-14 1 0
2.37483e-14 1 0
9.47198e-14 1 0
3.0297e-14 1 0
2.37483e-14 1 0
7.00771e-14 1 0
3.0297e-14 1 0
-5.0186e-15 1 0
2.01023e-13 1 0
1.17946e-13 1 0
1.08976e-13 1 0
2.29254e-13 1 0
1.17946e-13 1 0
1.60392e-13 1 0
2.29254e-13 1 0
3.20749e-13 1 0
2.53982e-13 1 0
-4.44545e-15 1 0
2.30594e-13 1 0
9.87306e-14 1 0
-4.44545e-15 1 0
6.69689e-14 1 0
9.87306e-14 1 0
1.52733e-13 1 0
1.60392e-13 1 0
2.63495e-13 1 0
3.20749e-13 1 0
1.06584e-13 1 0
2.63495e-13 1 0
1.6315e-13 1 0
1.06584e-13 1 0
2.85617e-13 1 0
6.69689e-14 1 0
2.51299e-13 1 0
1.52733e-13 1 0
2.26354e-13 1 0
2.51299e-13 1 0
2.13171e-13 1 0
2.26354e-13 1 0
2.53813e-13 1 0
1.11037e-13 1 0
1.59138e-13 1 0
-1.19073e-14 1 0
3.85844e-13 1 0
1.59138e-13 1 0
1.92275e-13 1 0
3.85844e-13 1 0
3.46264e-13 1 0
3.66704e-13 1 0
-2.24298e-14 1 0
2.63908e-13 1 0
7.41967e-14 1 0
-2.24298e-14 1 0
5.24641e-14 1 0
7.41967e-14 1 0
1.23701e-13 1 0
1.92275e-13 1 0
1.46859e-13 1 0
3.46264e-13 1 0
7.90454e-14 1 0
1.46859e-13 1 0
1.70706e-13 1 0
7.90454e-14 1 0
1.78362e-13 1 0
5.24641e-14 1 0
2.56991e-13 1 0
1.23701e-13 1 0
1.41206e-13 1 0
2.56991e-13 1 0
1.569e-13 1 0
1.41206e-13 1 0
1.6335e-13 1 0
1.6315e-13 1 0
2.21145e-13 1 0
2.85617e-13 1 0
1.72948e-13 1 0
2.21145e-13 1 0
2.79011e-13 1 0
1.72948e-13 1 0
2.09054e-13 1 0
2.13171e-13 1 0
2.23063e-13 1 0
2.53813e-13 1 0
1.72135e-13 1 0
2.23063e-13 1 0
2.47049e-13 1 0
1.72135e-13 1 0
1.96231e-13 1 0
2.79011e-13 1 0
3.04203e-13 1 0
2.09054e-13 1 0
2.25949e-13 1 0
3.04203e-13 1 0
3.22901e-13 1 0
2.25949e-13 1 0
2.42574e-13 1 0
2.47049e-13 1 0
2.95035e-13 1 0
1.96231e-13 1 0
2.34376e-13 1 0
2.95035e-13 1 0
3.03158e-13 1 0
2.34376e-13 1 0
2.32373e-13 1 0
1.70706e-13 1 0
1.9536e-13 1 0
1.78362e-13 1 0
1.97994e-13 1 0
1.9536e-13 1 0
2.46e-13 1 0
1.97994e-13 1 0
1.45104e-13 1 0
1.569e-13 1 0
2.17348e-13 1 0
1.6335e-13 1 0
2.12517e-13 1 0
2.17348e-13 1 0
1.15673e-13 1 0
2.12517e-13 1 0
1.73231e-13 1 0
2.46e-13 1 0
2.71935e-13 1 0
1.45104e-13 1 0
2.198e-13 1 0
2.71935e-13 1 0
2.73148e-13 1 0
2.198e-13 1 0
2.35438e-13 1 0
1.15673e-13 1 0
2.11299e-13 1 0
1.73231e-13 1 0
2.51058e-13 1 0
2.11299e-13 1 0
2.10464e-13 1 0
2.51058e-13 1 0
2.49474e-13 1 0
4.12889e-15 1 0
2.68743e-13 1 0
-1.07302e-14 1 0
2.32026e-13 1 0
2.68743e-13 1 0
2.03189e-13 1 0
2.32026e-13 1 0
1.66167e-13 1 0
2.94962e-13 1 0
5.62209e-14 1 0
1.67093e-13 1 0
9.3531e-14 1 0
5.62209e-14 1 0
1.32319e-13 1 0
9.3531e-14 1 0
1.31318e-13 1 0
2.03189e-13 1 0
1.68447e-13 1 0
1.66167e-13 1 0
1.57941e-13 1 0
1.68447e-13 1 0
1.31873e-13 1 0
1.57941e-13 1 0
1.8437e-13 1 0
1.32319e-13 1 0
1.74884e-13 1 0
1.31318e-13 1 0
1.27386e-13 1 0
1.74884e-13 1 0
1.30977e-13 1 0
1.27386e-13 1 0
1.82632e-13 1 0
1.40988e-13 1 0
1.50331e-13 1 0
1.09874e-13 1 0
1.09071e-13 1 0
1.50331e-13 1 0
1.54953e-13 1 0
1.09071e-13 1 0
1.0221e-13 1 0
1.32392e-13 1 0
1.38847e-13 1 0
6.81506e-14 1 0
1.08747e-13 1 0
1.38847e-13 1 0
1.40171e-13 1 0
1.08747e-13 1 0
1.12528e-13 1 0
1.54953e-13 1 0
1.43074e-13 1 0
1.0221e-13 1 0
1.27069e-13 1 0
1.43074e-13 1 0
1.13562e-13 1 0
1.27069e-13 1 0
1.68978e-13 1 0
1.40171e-13 1 0
1.55578e-13 1 0
1.12528e-13 1 0
1.19026e-13 1 0
1.55578e-13 1 0
1.07778e-13 1 0
1.19026e-13 1 0
1.60499e-13 1 0
1.31873e-13 1 0
2.14269e-13 1 0
1.8437e-13 1 0
1.35355e-13 1 0
2.14269e-13 1 0
1.60335e-13 1 0
1.35355e-13 1 0
1.91641e-13 1 0
1.30977e-13 1 0
1.5311e-13 1 0
1.82632e-13 1 0
1.33754e-13 1 0
1.5311e-13 1 0
2.19927e-13 1 0
1.33754e-13 1 0
1.51113e-13 1 0
1.60335e-13 1 0
1.83929e-13 1 0
1.91641e-13 1 0
1.45563e-13 1 0
1.83929e-13 1 0
1.90162e-13 1 0
1.45563e-13 1 0
1.52454e-13 1 0
2.19927e-13 1 0
1.66037e-13 1 0
1.51113e-13 1 0
1.22413e-13 1 0
1.66037e-13 1 0
1.91069e-13 1 0
1.22413e-13 1 0
1.28656e-13 1 0
1.13562e-13 1 0
1.31879e-13 1 0
1.68978e-13 1 0
1.07328e-13 1 0
1.31879e-13 1 0
1.84965e-13 1 0
1.07328e-13 1 0
1.40882e-13 1 0
1.07778e-13 1 0
1.29714e-13 1 0
1.60499e-13 1 0
9.87238e-14 1 0
1.29714e-13 1 0
1.82108e-13 1 0
9.87238e-14 1 0
1.1585e-13 1 0
1.84965e-13 1 0
1.68835e-13 1 0
1.40882e-13 1 0
9.29883e-14 1 0
1.68835e-13 1 0
1.73861e-13 1 0