# vtk DataFile Version 3.0
#This file was generated by the deal.II library on 2018/10/15 at 19:48:43
ASCII
DATASET UNSTRUCTURED_GRID

POINTS 20480 double
0 0 0
0.19635 0 0
0 0.296835 0
0.19635 0.296835 0
0.19635 0 0
0.392699 0 0
0.19635 0.296835 0
0.392699 0.296835 0
0 0.296835 0
0.19635 0.296835 0
0 0.608544 0
0.19635 0.608544 0
0.19635 0.296835 0
0.392699 0.296835 0
0.19635 0.608544 0
0.392699 0.608544 0
0.392699 0 0
0.589049 0 0
0.392699 0.296835 0
0.589049 0.296835 0
0.589049 0 0
0.785398 0 0
0.589049 0.296835 0
0.785398 0.296835 0
0.392699 0.296835 0
0.589049 0.296835 0
0.392699 0.608544 0
0.589049 0.608544 0
0.589049 0.296835 0
0.785398 0.296835 0
0.589049 0.608544 0
0.785398 0.608544 0
0 0.608544 0
0.19635 0.608544 0
0 0.921462 0
0.19635 0.921462 0
0.19635 0.608544 0
0.392699 0.608544 0
0.19635 0.921462 0
0.392699 0.921462 0
0 0.921462 0
0.19635 0.921462 0
0 1.23475 0
0.19635 1.23475 0
0.19635 0.921462 0
0.392699 0.921462 0
0.19635 1.23475 0
0.392699 1.23475 0
0.392699 0.608544 0
0.589049 0.608544 0
0.392699 0.921462 0
0.589049 0.921462 0
0.589049 0.608544 0
0.785398 0.608544 0
0.589049 0.921462 0
0.785398 0.921462 0
0.392699 0.921462 0
0.589049 0.921462 0
0.392699 1.23475 0
0.589049 1.23475 0
0.589049 0.921462 0
0.785398 0.921462 0
0.589049 1.23475 0
0.785398 1.23475 0
0.785398 0 0
0.981748 0 0
0.785398 0.296835 0
0.981748 0.296835 0
0.981748 0 0
1.1781 0 0
0.981748 0.296835 0
1.1781 0.296835 0
0.785398 0.296835 0
0.981748 0.296835 0
0.785398 0.608544 0
0.981748 0.608544 0
0.981748 0.296835 0
1.1781 0.296835 0
0.981748 0.608544 0
1.1781 0.608544 0
1.1781 0 0
1.37445 0 0
1.1781 0.296835 0
1.37445 0.296835 0
1.37445 0 0
1.5708 0 0
1.37445 0.296835 0
1.5708 0.296835 0
1.1781 0.296835 0
1.37445 0.296835 0
1.1781 0.608544 0
1.37445 0.608544 0
1.37445 0.296835 0
1.5708 0.296835 0
1.37445 0.608544 0
1.5708 0.608544 0
0.785398 0.608544 0
0.981748 0.608544 0
0.785398 0.921462 0
0.981748 0.921462 0
0.981748 0.608544 0
1.1781 0.608544 0
0.981748 0.921462 0
1.1781 0.921462 0
0.785398 0.921462 0
0.981748 0.921462 0
0.785398 1.23475 0
0.981748 1.23475 0
0.981748 0.921462 0
1.1781 0.921462 0
0.981748 1.23475 0
1.1781 1.23475 0
1.1781 0.608544 0
1.37445 0.608544 0
1.1781 0.921462 0
1.37445 0.921462 0
1.37445 0.608544 0
1.5708 0.608544 0
1.37445 0.921462 0
1.5708 0.921462 0
1.1781 0.921462 0
1.37445 0.921462 0
1.1781 1.23475 0
1.37445 1.23475 0
1.37445 0.921462 0
1.5708 0.921462 0
1.37445 1.23475 0
1.5708 1.23475 0
0 1.23475 0
0.19635 1.23475 0
0 1.54798 0
0.19635 1.54798 0
0.19635 1.23475 0
0.392699 1.23475 0
0.19635 1.54798 0
0.392699 1.54798 0
0 1.54798 0
0.19635 1.54798 0
0 1.86121 0
0.19635 1.86121 0
0.19635 1.54798 0
0.392699 1.54798 0
0.19635 1.86121 0
0.392699 1.86121 0
0.392699 1.23475 0
0.589049 1.23475 0
0.392699 1.54798 0
0.589049 1.54798 0
0.589049 1.23475 0
0.785398 1.23475 0
0.589049 1.54798 0
0.785398 1.54798 0
0.392699 1.54798 0
0.589049 1.54798 0
0.392699 1.86121 0
0.589049 1.86121 0
0.589049 1.54798 0
0.785398 1.54798 0
0.589049 1.86121 0
0.785398 1.86121 0
0 1.86121 0
0.19635 1.86121 0
0 2.17441 0
0.19635 2.17441 0
0.19635 1.86121 0
0.392699 1.86121 0
0.19635 2.17441 0
0.392699 2.17441 0
0 2.17441 0
0.19635 2.17441 0
0 2.48759 0
0.19635 2.48759 0
0.19635 2.17441 0
0.392699 2.17441 0
0.19635 2.48759 0
0.392699 2.48759 0
0.392699 1.86121 0
0.589049 1.86121 0
0.392699 2.17441 0
0.589049 2.17441 0
0.589049 1.86121 0
0.785398 1.86121 0
0.589049 2.17441 0
0.785398 2.17441 0
0.392699 2.17441 0
0.589049 2.17441 0
0.392699 2.48759 0
0.589049 2.48759 0
0.589049 2.17441 0
0.785398 2.17441 0
0.589049 2.48759 0
0.785398 2.48759 0
0.785398 1.23475 0
0.981748 1.23475 0
0.785398 1.54798 0
0.981748 1.54798 0
0.981748 1.23475 0
1.1781 1.23475 0
0.981748 1.54798 0
1.1781 1.54798 0
0.785398 1.54798 0
0.981748 1.54798 0
0.785398 1.86121 0
0.981748 1.86121 0
0.981748 1.54798 0
1.1781 1.54798 0
0.981748 1.86121 0
1.1781 1.86121 0
1.1781 1.23475 0
1.37445 1.23475 0
1.1781 1.54798 0
1.37445 1.54798 0
1.37445 1.23475 0
1.5708 1.23475 0
1.37445 1.54798 0
1.5708 1.54798 0
1.1781 1.54798 0
1.37445 1.54798 0
1.1781 1.86121 0
1.37445 1.86121 0
1.37445 1.54798 0
1.5708 1.54798 0
1.37445 1.86121 0
1.5708 1.86121 0
0.785398 1.86121 0
0.981748 1.86121 0
0.785398 2.17441 0
0.981748 2.17441 0
0.981748 1.86121 0
1.1781 1.86121 0
0.981748 2.17441 0
1.1781 2.17441 0
0.785398 2.17441 0
0.981748 2.17441 0
0.785398 2.48759 0
0.981748 2.48759 0
0.981748 2.17441 0
1.1781 2.17441 0
0.981748 2.48759 0
1.1781 2.48759 0
1.1781 1.86121 0
1.37445 1.86121 0
1.1781 2.17441 0
1.37445 2.17441 0
1.37445 1.86121 0
1.5708 1.86121 0
1.37445 2.17441 0
1.5708 2.17441 0
1.1781 2.17441 0
1.37445 2.17441 0
1.1781 2.48759 0
1.37445 2.48759 0
1.37445 2.17441 0
1.5708 2.17441 0
1.37445 2.48759 0
1.5708 2.48759 0
1.5708 0 0
1.76715 0 0
1.5708 0.296835 0
1.76715 0.296835 0
1.76715 0 0
1.9635 0 0
1.76715 0.296835 0
1.9635 0.296835 0
1.5708 0.296835 0
1.76715 0.296835 0
1.5708 0.608544 0
1.76715 0.608544 0
1.76715 0.296835 0
1.9635 0.296835 0
1.76715 0.608544 0
1.9635 0.608544 0
1.9635 0 0
2.15984 0 0
1.9635 0.296835 0
2.15984 0.296835 0
2.15984 0 0
2.35619 0 0
2.15984 0.296835 0
2.35619 0.296835 0
1.9635 0.296835 0
2.15984 0.296835 0
1.9635 0.608544 0
2.15984 0.608544 0
2.15984 0.296835 0
2.35619 0.296835 0
2.15984 0.608544 0
2.35619 0.608544 0
1.5708 0.608544 0
1.76715 0.608544 0
1.5708 0.921462 0
1.76715 0.921462 0
1.76715 0.608544 0
1.9635 0.608544 0
1.76715 0.921462 0
1.9635 0.921462 0
1.5708 0.921462 0
1.76715 0.921462 0
1.5708 1.23475 0
1.76715 1.23475 0
1.76715 0.921462 0
1.9635 0.921462 0
1.76715 1.23475 0
1.9635 1.23475 0
1.9635 0.608544 0
2.15984 0.608544 0
1.9635 0.921462 0
2.15984 0.921462 0
2.15984 0.608544 0
2.35619 0.608544 0
2.15984 0.921462 0
2.35619 0.921462 0
1.9635 0.921462 0
2.15984 0.921462 0
1.9635 1.23475 0
2.15984 1.23475 0
2.15984 0.921462 0
2.35619 0.921462 0
2.15984 1.23475 0
2.35619 1.23475 0
2.35619 0 0
2.55254 0 0
2.35619 0.296835 0
2.55254 0.296835 0
2.55254 0 0
2.74889 0 0
2.55254 0.296835 0
2.74889 0.296835 0
2.35619 0.296835 0
2.55254 0.296835 0
2.35619 0.608544 0
2.55254 0.608544 0
2.55254 0.296835 0
2.74889 0.296835 0
2.55254 0.608544 0
2.74889 0.608544 0
2.74889 0 0
2.94524 0 0
2.74889 0.296835 0
2.94524 0.296835 0
2.94524 0 0
3.14159 0 0
2.94524 0.296835 0
3.14159 0.296835 0
2.74889 0.296835 0
2.94524 0.296835 0
2.74889 0.608544 0
2.94524 0.608544 0
2.94524 0.296835 0
3.14159 0.296835 0
2.94524 0.608544 0
3.14159 0.608544 0
2.35619 0.608544 0
2.55254 0.608544 0
2.35619 0.921462 0
2.55254 0.921462 0
2.55254 0.608544 0
2.74889 0.608544 0
2.55254 0.921462 0
2.74889 0.921462 0
2.35619 0.921462 0
2.55254 0.921462 0
2.35619 1.23475 0
2.55254 1.23475 0
2.55254 0.921462 0
2.74889 0.921462 0
2.55254 1.23475 0
2.74889 1.23475 0
2.74889 0.608544 0
2.94524 0.608544 0
2.74889 0.921462 0
2.94524 0.921462 0
2.94524 0.608544 0
3.14159 0.608544 0
2.94524 0.921462 0
3.14159 0.921462 0
2.74889 0.921462 0
2.94524 0.921462 0
2.74889 1.23475 0
2.94524 1.23475 0
2.94524 0.921462 0
3.14159 0.921462 0
2.94524 1.23475 0
3.14159 1.23475 0
1.5708 1.23475 0
1.76715 1.23475 0
1.5708 1.54798 0
1.76715 1.54798 0
1.76715 1.23475 0
1.9635 1.23475 0
1.76715 1.54798 0
1.9635 1.54798 0
1.5708 1.54798 0
1.76715 1.54798 0
1.5708 1.86121 0
1.76715 1.86121 0
1.76715 1.54798 0
1.9635 1.54798 0
1.76715 1.86121 0
1.9635 1.86121 0
1.9635 1.23475 0
2.15984 1.23475 0
1.9635 1.54798 0
2.15984 1.54798 0
2.15984 1.23475 0
2.35619 1.23475 0
2.15984 1.54798 0
2.35619 1.54798 0
1.9635 1.54798 0
2.15984 1.54798 0
1.9635 1.86121 0
2.15984 1.86121 0
2.15984 1.54798 0
2.35619 1.54798 0
2.15984 1.86121 0
2.35619 1.86121 0
1.5708 1.86121 0
1.76715 1.86121 0
1.5708 2.17441 0
1.76715 2.17441 0
1.76715 1.86121 0
1.9635 1.86121 0
1.76715 2.17441 0
1.9635 2.17441 0
1.5708 2.17441 0
1.76715 2.17441 0
1.5708 2.48759 0
1.76715 2.48759 0
1.76715 2.17441 0
1.9635 2.17441 0
1.76715 2.48759 0
1.9635 2.48759 0
1.9635 1.86121 0
2.15984 1.86121 0
1.9635 2.17441 0
2.15984 2.17441 0
2.15984 1.86121 0
2.35619 1.86121 0
2.15984 2.17441 0
2.35619 2.17441 0
1.9635 2.17441 0
2.15984 2.17441 0
1.9635 2.48759 0
2.15984 2.48759 0
2.15984 2.17441 0
2.35619 2.17441 0
2.15984 2.48759 0
2.35619 2.48759 0
2.35619 1.23475 0
2.55254 1.23475 0
2.35619 1.54798 0
2.55254 1.54798 0
2.55254 1.23475 0
2.74889 1.23475 0
2.55254 1.54798 0
2.74889 1.54798 0
2.35619 1.54798 0
2.55254 1.54798 0
2.35619 1.86121 0
2.55254 1.86121 0
2.55254 1.54798 0
2.74889 1.54798 0
2.55254 1.86121 0
2.74889 1.86121 0
2.74889 1.23475 0
2.94524 1.23475 0
2.74889 1.54798 0
2.94524 1.54798 0
2.94524 1.23475 0
3.14159 1.23475 0
2.94524 1.54798 0
3.14159 1.54798 0
2.74889 1.54798 0
2.94524 1.54798 0
2.74889 1.86121 0
2.94524 1.86121 0
2.94524 1.54798 0
3.14159 1.54798 0
2.94524 1.86121 0
3.14159 1.86121 0
2.35619 1.86121 0
2.55254 1.86121 0
2.35619 2.17441 0
2.55254 2.17441 0
2.55254 1.86121 0
2.74889 1.86121 0
2.55254 2.17441 0
2.74889 2.17441 0
2.35619 2.17441 0
2.55254 2.17441 0
2.35619 2.48759 0
2.55254 2.48759 0
2.55254 2.17441 0
2.74889 2.17441 0
2.55254 2.48759 0
2.74889 2.48759 0
2.74889 1.86121 0
2.94524 1.86121 0
2.74889 2.17441 0
2.94524 2.17441 0
2.94524 1.86121 0
3.14159 1.86121 0
2.94524 2.17441 0
3.14159 2.17441 0
2.74889 2.17441 0
2.94524 2.17441 0
2.74889 2.48759 0
2.94524 2.48759 0
2.94524 2.17441 0
3.14159 2.17441 0
2.94524 2.48759 0
3.14159 2.48759 0
0 2.48759 0
0.19635 2.48759 0
0 2.80075 0
0.19635 2.80075 0
0.19635 2.48759 0
0.392699 2.48759 0
0.19635 2.80075 0
0.392699 2.80075 0
0 2.80075 0
0.19635 2.80075 0
0 3.11388 0
0.19635 3.11388 0
0.19635 2.80075 0
0.392699 2.80075 0
0.19635 3.11388 0
0.392699 3.11388 0
0.392699 2.48759 0
0.589049 2.48759 0
0.392699 2.80075 0
0.589049 2.80075 0
0.589049 2.48759 0
0.785398 2.48759 0
0.589049 2.80075 0
0.785398 2.80075 0
0.392699 2.80075 0
0.589049 2.80075 0
0.392699 3.11388 0
0.589049 3.11388 0
0.589049 2.80075 0
0.785398 2.80075 0
0.589049 3.11388 0
0.785398 3.11388 0
0 3.11388 0
0.19635 3.11388 0
0 3.427 0
0.19635 3.427 0
0.19635 3.11388 0
0.392699 3.11388 0
0.19635 3.427 0
[...]
POINT_DATA 20480
VECTORS uf double
0 1 0
-1.93404e-13 1 0
0 1.52518 0
2.83666e-13 1.52518 0
-1.93404e-13 1 0
-6.35254e-14 1 0
2.83666e-13 1.52518 0
1.22733e-13 1.52518 0
0 1.52518 0
1.55287e-13 1.52518 0
0 1.49124 0
4.4592e-14 1.49124 0
1.55287e-13 1.52518 0
-4.33805e-14 1.52518 0
4.4592e-14 1.49124 0
1.35162e-13 1.49124 0
-6.35254e-14 1 0
1.56838e-13 1 0
1.22733e-13 1.52518 0
-3.16766e-13 1.52518 0
1.56838e-13 1 0
-1.83244e-13 1 0
-3.16766e-13 1.52518 0
3.33534e-13 1.52518 0
-4.33805e-14 1.52518 0
-6.06606e-13 1.52518 0
1.35162e-13 1.49124 0
6.66135e-13 1.49124 0
-6.06606e-13 1.52518 0
7.98804e-14 1.52518 0
6.66135e-13 1.49124 0
1.49114e-13 1.49124 0
0 1.49124 0
2.56288e-13 1.49124 0
0 1.47636 0
-1.85634e-13 1.47636 0
2.56288e-13 1.49124 0
1.66242e-13 1.49124 0
-1.85634e-13 1.47636 0
-2.29095e-13 1.47636 0
0 1.47636 0
-7.87114e-14 1.47636 0
0 1.44995 0
-1.32065e-14 1.44995 0
-7.87114e-14 1.47636 0
-1.26538e-13 1.47636 0
-1.32065e-14 1.44995 0
2.67316e-13 1.44995 0
1.66242e-13 1.49124 0
5.52363e-13 1.49124 0
-2.29095e-13 1.47636 0
-2.71396e-13 1.47636 0
5.52363e-13 1.49124 0
1.2598e-13 1.49124 0
-2.71396e-13 1.47636 0
1.8411e-13 1.47636 0
-1.26538e-13 1.47636 0
2.65721e-13 1.47636 0
2.67316e-13 1.44995 0
-5.22514e-13 1.44995 0
2.65721e-13 1.47636 0
2.07415e-13 1.47636 0
-5.22514e-13 1.44995 0
2.5709e-13 1.44995 0
-1.83244e-13 1 0
-2.4946e-13 1 0
3.33534e-13 1.52518 0
3.57926e-13 1.52518 0
-2.4946e-13 1 0
8.78351e-14 1 0
3.57926e-13 1.52518 0
-1.20711e-13 1.52518 0
7.98804e-14 1.52518 0
5.84363e-13 1.52518 0
1.49114e-13 1.49124 0
-4.2178e-13 1.49124 0
5.84363e-13 1.52518 0
4.10199e-13 1.52518 0
-4.2178e-13 1.49124 0
-6.09367e-13 1.49124 0
8.78351e-14 1 0
7.10934e-13 1 0
-1.20711e-13 1.52518 0
-1.23744e-12 1.52518 0
7.10934e-13 1 0
4.22722e-13 1 0
-1.23744e-12 1.52518 0
-6.61893e-13 1.52518 0
4.10199e-13 1.52518 0
-9.74785e-13 1.52518 0
-6.09367e-13 1.49124 0
3.42463e-13 1.49124 0
-9.74785e-13 1.52518 0
-5.35269e-13 1.52518 0
3.42463e-13 1.49124 0
2.09287e-13 1.49124 0
1.2598e-13 1.49124 0
-3.94088e-13 1.49124 0
1.8411e-13 1.47636 0
2.05822e-13 1.47636 0
-3.94088e-13 1.49124 0
-4.36007e-13 1.49124 0
2.05822e-13 1.47636 0
2.05976e-13 1.47636 0
2.07415e-13 1.47636 0
9.0994e-15 1.47636 0
2.5709e-13 1.44995 0
-1.9034e-13 1.44995 0
9.0994e-15 1.47636 0
-2.21252e-13 1.47636 0
-1.9034e-13 1.44995 0
1.98115e-13 1.44995 0
-4.36007e-13 1.49124 0
-1.93021e-13 1.49124 0
2.05976e-13 1.47636 0
-6.0358e-14 1.47636 0
-1.93021e-13 1.49124 0
1.04734e-13 1.49124 0
-6.0358e-14 1.47636 0
-3.48311e-13 1.47636 0
-2.21252e-13 1.47636 0
-6.39069e-14 1.47636 0
1.98115e-13 1.44995 0
-1.16348e-14 1.44995 0
-6.39069e-14 1.47636 0
6.23109e-14 1.47636 0
-1.16348e-14 1.44995 0
-2.96076e-13 1.44995 0
0 1.44995 0
-8.69524e-14 1.44995 0
0 1.42816 0
2.1987e-13 1.42816 0
-8.69524e-14 1.44995 0
4.49937e-13 1.44995 0
2.1987e-13 1.42816 0
-5.90377e-13 1.42816 0
0 1.42816 0
3.33652e-13 1.42816 0
0 1.40649 0
-3.09404e-13 1.40649 0
3.33652e-13 1.42816 0
-5.3981e-13 1.42816 0
-3.09404e-13 1.40649 0
2.39051e-13 1.40649 0
4.49937e-13 1.44995 0
-4.38029e-13 1.44995 0
-5.90377e-13 1.42816 0
4.12882e-13 1.42816 0
-4.38029e-13 1.44995 0
2.42007e-13 1.44995 0
4.12882e-13 1.42816 0
2.51764e-14 1.42816 0
-5.3981e-13 1.42816 0
2.50279e-13 1.42816 0
2.39051e-13 1.40649 0
-7.33867e-14 1.40649 0
2.50279e-13 1.42816 0
2.08922e-14 1.42816 0
-7.33867e-14 1.40649 0
1.56453e-13 1.40649 0
0 1.40649 0
-1.48722e-13 1.40649 0
0 1.38626 0
-4.92116e-14 1.38626 0
-1.48722e-13 1.40649 0
1.00103e-13 1.40649 0
-4.92116e-14 1.38626 0
1.57908e-14 1.38626 0
0 1.38626 0
-2.86853e-13 1.38626 0
0 1.36701 0
1.23348e-13 1.36701 0
-2.86853e-13 1.38626 0
-7.99848e-14 1.38626 0
1.23348e-13 1.36701 0
7.92562e-14 1.36701 0
1.00103e-13 1.40649 0
6.89804e-14 1.40649 0
1.57908e-14 1.38626 0
-1.67501e-14 1.38626 0
6.89804e-14 1.40649 0
3.50201e-13 1.40649 0
-1.67501e-14 1.38626 0
-2.15629e-13 1.38626 0
-7.99848e-14 1.38626 0
1.26924e-13 1.38626 0
7.92562e-14 1.36701 0
-4.19813e-13 1.36701 0
1.26924e-13 1.38626 0
-1.92191e-13 1.38626 0
-4.19813e-13 1.36701 0
2.48016e-13 1.36701 0
2.42007e-13 1.44995 0
-1.82913e-14 1.44995 0
2.51764e-14 1.42816 0
-7.43913e-14 1.42816 0
-1.82913e-14 1.44995 0
4.39036e-14 1.44995 0
-7.43913e-14 1.42816 0
-1.0142e-13 1.42816 0
2.08922e-14 1.42816 0
-2.71131e-13 1.42816 0
1.56453e-13 1.40649 0
2.26627e-13 1.40649 0
-2.71131e-13 1.42816 0
8.59724e-14 1.42816 0
2.26627e-13 1.40649 0
-2.46713e-13 1.40649 0
4.39036e-14 1.44995 0
-3.75416e-13 1.44995 0
-1.0142e-13 1.42816 0
1.50036e-13 1.42816 0
-3.75416e-13 1.44995 0
-4.87564e-13 1.44995 0
1.50036e-13 1.42816 0
3.78981e-13 1.42816 0
8.59724e-14 1.42816 0
2.11803e-14 1.42816 0
-2.46713e-13 1.40649 0
7.93345e-15 1.40649 0
2.11803e-14 1.42816 0
2.90628e-13 1.42816 0
7.93345e-15 1.40649 0
-3.44867e-13 1.40649 0
3.50201e-13 1.40649 0
1.48878e-13 1.40649 0
-2.15629e-13 1.38626 0
-1.40255e-13 1.38626 0
1.48878e-13 1.40649 0
-3.05099e-13 1.40649 0
-1.40255e-13 1.38626 0
1.02134e-14 1.38626 0
-1.92191e-13 1.38626 0
-1.82114e-13 1.38626 0
2.48016e-13 1.36701 0
3.31941e-13 1.36701 0
-1.82114e-13 1.38626 0
-7.53386e-14 1.38626 0
3.31941e-13 1.36701 0
-1.19657e-13 1.36701 0
-3.05099e-13 1.40649 0
-5.28857e-13 1.40649 0
1.02134e-14 1.38626 0
5.47259e-13 1.38626 0
-5.28857e-13 1.40649 0
1.48263e-13 1.40649 0
5.47259e-13 1.38626 0
-4.56187e-14 1.38626 0
-7.53386e-14 1.38626 0
3.22934e-13 1.38626 0
-1.19657e-13 1.36701 0
-2.10523e-13 1.36701 0
3.22934e-13 1.38626 0
2.74071e-13 1.38626 0
-2.10523e-13 1.36701 0
-1.03187e-13 1.36701 0
4.22722e-13 1 0
-3.80974e-13 1 0
-6.61893e-13 1.52518 0
7.66449e-13 1.52518 0
-3.80974e-13 1 0
-2.26063e-13 1 0
7.66449e-13 1.52518 0
2.64937e-13 1.52518 0
-5.35269e-13 1.52518 0
7.81993e-13 1.52518 0
2.09287e-13 1.49124 0
-4.88674e-13 1.49124 0
7.81993e-13 1.52518 0
3.45214e-13 1.52518 0
-4.88674e-13 1.49124 0
-3.34828e-13 1.49124 0
-2.26063e-13 1 0
-1.97749e-13 1 0
2.64937e-13 1.52518 0
1.27539e-13 1.52518 0
-1.97749e-13 1 0
2.49906e-13 1 0
1.27539e-13 1.52518 0
1.43997e-13 1.52518 0
3.45214e-13 1.52518 0
-3.70032e-13 1.52518 0
-3.34828e-13 1.49124 0
4.24929e-13 1.49124 0
-3.70032e-13 1.52518 0
5.56149e-13 1.52518 0
4.24929e-13 1.49124 0
-4.34496e-13 1.49124 0
1.04734e-13 1.49124 0
-1.65362e-13 1.49124 0
-3.48311e-13 1.47636 0
1.24964e-13 1.47636 0
-1.65362e-13 1.49124 0
1.55787e-13 1.49124 0
1.24964e-13 1.47636 0
8.92571e-14 1.47636 0
6.23109e-14 1.47636 0
-1.96111e-13 1.47636 0
-2.96076e-13 1.44995 0
3.42767e-13 1.44995 0
-1.96111e-13 1.47636 0
-1.92499e-14 1.47636 0
3.42767e-13 1.44995 0
-3.08019e-13 1.44995 0
1.55787e-13 1.49124 0
2.64624e-13 1.49124 0
8.92571e-14 1.47636 0
-1.83236e-13 1.47636 0
2.64624e-13 1.49124 0
-5.39718e-13 1.49124 0
-1.83236e-13 1.47636 0
3.57465e-13 1.47636 0
-1.92499e-14 1.47636 0
-3.94701e-13 1.47636 0
-3.08019e-13 1.44995 0
6.03579e-13 1.44995 0
-3.94701e-13 1.47636 0
2.46982e-14 1.47636 0
6.03579e-13 1.44995 0
1.30315e-13 1.44995 0
2.49906e-13 1 0
2.15499e-13 1 0
1.43997e-13 1.52518 0
-2.96275e-13 1.52518 0
2.15499e-13 1 0
-9.92357e-14 1 0
-2.96275e-13 1.52518 0
1.56025e-14 1.52518 0
5.56149e-13 1.52518 0
-2.72995e-13 1.52518 0
-4.34496e-13 1.49124 0
2.12962e-13 1.49124 0
-2.72995e-13 1.52518 0
-2.9233e-13 1.52518 0
2.12962e-13 1.49124 0
2.51337e-13 1.49124 0
-9.92357e-14 1 0
-1.74861e-13 1 0
1.56025e-14 1.52518 0
2.27031e-13 1.52518 0
-1.74861e-13 1 0
1.28609e-13 1 0
2.27031e-13 1.52518 0
-8.69409e-14 1.52518 0
-2.9233e-13 1.52518 0
2.05995e-13 1.52518 0
2.51337e-13 1.49124 0
-1.00078e-13 1.49124 0
2.05995e-13 1.52518 0
4.18428e-13 1.52518 0
-1.00078e-13 1.49124 0
-8.2909e-14 1.49124 0
-5.39718e-13 1.49124 0
-1.42857e-14 1.49124 0
3.57465e-13 1.47636 0
4.11791e-14 1.47636 0
-1.42857e-14 1.49124 0
-2.34872e-13 1.49124 0
4.11791e-14 1.47636 0
2.93287e-13 1.47636 0
2.46982e-14 1.47636 0
6.94927e-13 1.47636 0
1.30315e-13 1.44995 0
-6.23452e-13 1.44995 0
6.94927e-13 1.47636 0
-7.28746e-15 1.47636 0
-6.23452e-13 1.44995 0
3.3683e-13 1.44995 0
-2.34872e-13 1.49124 0
-3.38778e-16 1.49124 0
2.93287e-13 1.47636 0
-4.02796e-14 1.47636 0
-3.38778e-16 1.49124 0
1.9905e-13 1.49124 0
-4.02796e-14 1.47636 0
-1.26021e-13 1.47636 0
-7.28746e-15 1.47636 0
-2.558e-13 1.47636 0
3.3683e-13 1.44995 0
-2.7829e-13 1.44995 0
-2.558e-13 1.47636 0
2.94444e-13 1.47636 0
-2.7829e-13 1.44995 0
1.9268e-14 1.44995 0
-4.87564e-13 1.44995 0
7.33668e-13 1.44995 0
3.78981e-13 1.42816 0
-7.01368e-13 1.42816 0
7.33668e-13 1.44995 0
-1.61437e-13 1.44995 0
-7.01368e-13 1.42816 0
1.55935e-13 1.42816 0
2.90628e-13 1.42816 0
-1.30833e-13 1.42816 0
-3.44867e-13 1.40649 0
3.33847e-13 1.40649 0
-1.30833e-13 1.42816 0
-2.47095e-13 1.42816 0
3.33847e-13 1.40649 0
1.98019e-13 1.40649 0
-1.61437e-13 1.44995 0
-9.81219e-14 1.44995 0
1.55935e-13 1.42816 0
-2.01966e-13 1.42816 0
-9.81219e-14 1.44995 0
-3.55223e-14 1.44995 0
-2.01966e-13 1.42816 0
-7.59218e-14 1.42816 0
-2.47095e-13 1.42816 0
4.25244e-14 1.42816 0
1.98019e-13 1.40649 0
-1.1315e-13 1.40649 0
4.25244e-14 1.42816 0
-2.22438e-13 1.42816 0
-1.1315e-13 1.40649 0
3.10754e-14 1.40649 0
1.48263e-13 1.40649 0
2.20425e-13 1.40649 0
-4.56187e-14 1.38626 0
-1.77181e-13 1.38626 0
2.20425e-13 1.40649 0
1.38821e-13 1.40649 0
-1.77181e-13 1.38626 0
-9.77092e-14 1.38626 0
2.74071e-13 1.38626 0
-1.24381e-13 1.38626 0
-1.03187e-13 1.36701 0
5.38054e-14 1.36701 0
-1.24381e-13 1.38626 0
1.43921e-13 1.38626 0
5.38054e-14 1.36701 0
-1.77622e-15 1.36701 0
1.38821e-13 1.40649 0
-1.56544e-13 1.40649 0
-9.77092e-14 1.38626 0
3.11366e-13 1.38626 0
-1.56544e-13 1.40649 0
2.95029e-13 1.40649 0
3.11366e-13 1.38626 0
-2.33744e-13 1.38626 0
1.43921e-13 1.38626 0
1.09064e-14 1.38626 0
-1.77622e-15 1.36701 0
-9.79092e-14 1.36701 0
1.09064e-14 1.38626 0
4.18703e-13 1.38626 0
-9.79092e-14 1.36701 0
-4.14387e-13 1.36701 0
-3.55223e-14 1.44995 0
2.6441e-13 1.44995 0
-7.59218e-14 1.42816 0
2.13749e-13 1.42816 0
2.6441e-13 1.44995 0
-3.13059e-13 1.44995 0
2.13749e-13 1.42816 0
1.97228e-13 1.42816 0
-2.22438e-13 1.42816 0
3.85142e-14 1.42816 0
3.10754e-14 1.40649 0
2.06574e-13 1.40649 0
3.85142e-14 1.42816 0
1.24834e-13 1.42816 0
2.06574e-13 1.40649 0
-2.10973e-13 1.40649 0
-3.13059e-13 1.44995 0
5.27758e-13 1.44995 0
1.97228e-13 1.42816 0
-5.4115e-13 1.42816 0
5.27758e-13 1.44995 0
-6.39646e-13 1.44995 0
-5.4115e-13 1.42816 0
5.60929e-13 1.42816 0
1.24834e-13 1.42816 0
-2.79103e-13 1.42816 0
-2.10973e-13 1.40649 0
4.63491e-13 1.40649 0
-2.79103e-13 1.42816 0
2.36769e-13 1.42816 0
4.63491e-13 1.40649 0
-1.46434e-13 1.40649 0
2.95029e-13 1.40649 0
-3.82459e-13 1.40649 0
-2.33744e-13 1.38626 0
4.82828e-13 1.38626 0
-3.82459e-13 1.40649 0
-1.49343e-13 1.40649 0
4.82828e-13 1.38626 0
-4.94522e-14 1.38626 0
4.18703e-13 1.38626 0
-7.63153e-13 1.38626 0
-4.14387e-13 1.36701 0
6.09622e-13 1.36701 0
-7.63153e-13 1.38626 0
1.52253e-13 1.38626 0
6.09622e-13 1.36701 0
5.53001e-14 1.36701 0
-1.49343e-13 1.40649 0
4.94354e-13 1.40649 0
-4.94522e-14 1.38626 0
-4.97826e-13 1.38626 0
4.94354e-13 1.40649 0
-1.75017e-14 1.40649 0
-4.97826e-13 1.38626 0
5.99362e-14 1.38626 0
1.52253e-13 1.38626 0
3.70279e-14 1.38626 0
5.53001e-14 1.36701 0
-6.80545e-14 1.36701 0
3.70279e-14 1.38626 0
1.73303e-13 1.38626 0
-6.80545e-14 1.36701 0
1.72762e-13 1.36701 0
0 1.36701 0
3.94322e-14 1.36701 0
0 1.3488 0
-1.50249e-14 1.3488 0
3.94322e-14 1.36701 0
2.87124e-13 1.36701 0
-1.50249e-14 1.3488 0
-3.32412e-13 1.3488 0
0 1.3488 0
1.94005e-13 1.3488 0
0 1.33155 0
-2.47605e-13 1.33155 0
1.94005e-13 1.3488 0
-3.78175e-13 1.3488 0
-2.47605e-13 1.33155 0
2.13124e-13 1.33155 0
2.87124e-13 1.36701 0
-5.80319e-13 1.36701 0
-3.32412e-13 1.3488 0
6.63112e-13 1.3488 0
-5.80319e-13 1.36701 0
1.50792e-13 1.36701 0
6.63112e-13 1.3488 0
-2.04032e-14 1.3488 0
-3.78175e-13 1.3488 0
5.60947e-13 1.3488 0
2.13124e-13 1.33155 0
-3.65171e-13 1.33155 0
5.60947e-13 1.3488 0
1.4286e-13 1.3488 0
-3.65171e-13 1.33155 0
-4.19461e-14 1.33155 0
0 1.33155 0
-2.46928e-13 1.33155 0
0 1.3152 0
-1.09247e-13 1.3152 0
-2.46928e-13 1.33155 0
-2.48576e-14 1.33155 0
-1.09247e-13 1.3152 0
1.76188e-13 1.3152 0
0 1.3152 0
6.42259e-14 1.3152 0
0 1.29971 0
-2.36532e-14 1.29971 0
6.42259e-14 1.3152 0
2.98102e-13 1.3152 0
-2.36532e-14 1.29971 0
-2.42345e-13 1.29971 0
-2.48576e-14 1.33155 0
-2.38937e-13 1.33155 0
1.76188e-13 1.3152 0
2.3029e-13 1.3152 0
-2.38937e-13 1.33155 0
-7.34982e-14 1.33155 0
2.3029e-13 1.3152 0
-5.96719e-14 1.3152 0
2.98102e-13 1.3152 0
9.7129e-14 1.3152 0
-2.42345e-13 1.29971 0
2.30638e-14 1.29971 0
9.7129e-14 1.3152 0
-2.81176e-14 1.3152 0
2.30638e-14 1.29971 0
1.20137e-13 1.29971 0
1.50792e-13 1.36701 0
4.5332e-13 1.36701 0
-2.04032e-14 1.3488 0
-3.42352e-13 1.3488 0
4.5332e-13 1.36701 0
-4.10789e-13 1.36701 0
-3.42352e-13 1.3488 0
5.32848e-13 1.3488 0
1.4286e-13 1.3488 0
-3.66225e-13 1.3488 0
-4.19461e-14 1.33155 0
3.31052e-13 1.33155 0
-3.66225e-13 1.3488 0
6.6143e-14 1.3488 0
3.31052e-13 1.33155 0
7.05102e-15 1.33155 0
-4.10789e-13 1.36701 0
-2.23164e-13 1.36701 0
5.32848e-13 1.3488 0
-1.27838e-14 1.3488 0
-2.23164e-13 1.36701 0
9.43982e-15 1.36701 0
-1.27838e-14 1.3488 0
-6.48679e-14 1.3488 0
6.6143e-14 1.3488 0
1.62661e-13 1.3488 0
7.05102e-15 1.33155 0
-7.86719e-14 1.33155 0
1.62661e-13 1.3488 0
6.18128e-14 1.3488 0
-7.86719e-14 1.33155 0
-1.42564e-13 1.33155 0
-7.34982e-14 1.33155 0
3.94083e-13 1.33155 0
-5.96719e-14 1.3152 0
-3.79441e-13 1.3152 0
3.94083e-13 1.33155 0
2.95146e-14 1.33155 0
-3.79441e-13 1.3152 0
3.91386e-14 1.3152 0
-2.81176e-14 1.3152 0
-4.399e-13 1.3152 0
1.20137e-13 1.29971 0
3.915e-13 1.29971 0
-4.399e-13 1.3152 0
1.65981e-13 1.3152 0
3.915e-13 1.29971 0
-2.07983e-13 1.29971 0
2.95146e-14 1.33155 0
1.28087e-14 1.33155 0
3.91386e-14 1.3152 0
7.7186e-14 1.3152 0
1.28087e-14 1.33155 0
1.99489e-14 1.33155 0
7.7186e-14 1.3152 0
-3.09547e-13 1.3152 0
1.65981e-13 1.3152 0
3.53886e-13 1.3152 0
-2.07983e-13 1.29971 0
-4.04915e-13 1.29971 0
3.53886e-13 1.3152 0
-5.32576e-13 1.3152 0
-4.04915e-13 1.29971 0
6.4851e-13 1.29971 0
0 1.29971 0
-3.43907e-13 1.29971 0
0 1.28504 0
3.07146e-13 1.28504 0
-3.43907e-13 1.29971 0
-1.80089e-13 1.29971 0
3.07146e-13 1.28504 0
2.03405e-13 1.28504 0
0 1.28504 0
1.92504e-14 1.28504 0
0 1.27113 0
1.33611e-13 1.27113 0
1.92504e-14 1.28504 0
5.96369e-14 1.28504 0
1.33611e-13 1.27113 0
-4.896e-14 1.27113 0
-1.80089e-13 1.29971 0
2.81718e-13 1.29971 0
2.03405e-13 1.28504 0
-2.15165e-13 1.28504 0
2.81718e-13 1.29971 0
8.26423e-14 1.29971 0
-2.15165e-13 1.28504 0
9.33032e-16 1.28504 0
5.96369e-14 1.28504 0
-1.78844e-13 1.28504 0
-4.896e-14 1.27113 0
-1.26301e-13 1.27113 0
-1.78844e-13 1.28504 0
1.331e-13 1.28504 0
-1.26301e-13 1.27113 0
-8.13852e-14 1.27113 0
0 1.27113 0
3.17414e-13 1.27113 0
0 1.25795 0
-9.20094e-14 1.25795 0
3.17414e-13 1.27113 0
1.86554e-13 1.27113 0
-9.20094e-14 1.25795 0
-4.17199e-13 1.25795 0
0 1.25795 0
-5.56506e-14 1.25795 0
0 1.24546 0
1.21191e-13 1.24546 0
-5.56506e-14 1.25795 0
-4.56247e-13 1.25795 0
1.21191e-13 1.24546 0
2.42079e-13 1.24546 0
1.86554e-13 1.27113 0
-4.11033e-13 1.27113 0
-4.17199e-13 1.25795 0
3.25353e-13 1.25795 0
-4.11033e-13 1.27113 0
-2.75458e-14 1.27113 0
3.25353e-13 1.25795 0
1.15791e-13 1.25795 0
-4.56247e-13 1.25795 0
4.0051e-13 1.25795 0
2.42079e-13 1.24546 0
-2.8653e-13 1.24546 0
4.0051e-13 1.25795 0
1.38648e-13 1.25795 0
-2.8653e-13 1.24546 0
-1.84212e-13 1.24546 0
8.26423e-14 1.29971 0
4.29822e-13 1.29971 0
9.33032e-16 1.28504 0
-5.22697e-13 1.28504 0
4.29822e-13 1.29971 0
-3.49914e-13 1.29971 0
-5.22697e-13 1.28504 0
5.14452e-13 1.28504 0
1.331e-13 1.28504 0
-3.22964e-13 1.28504 0
-8.13852e-14 1.27113 0
4.92667e-14 1.27113 0
-3.22964e-13 1.28504 0
5.6819e-13 1.28504 0
4.92667e-14 1.27113 0
-2.70301e-13 1.27113 0
-3.49914e-13 1.29971 0
-1.54132e-13 1.29971 0
5.14452e-13 1.28504 0
1.74476e-14 1.28504 0
-1.54132e-13 1.29971 0
5.04503e-13 1.29971 0
1.74476e-14 1.28504 0
-2.35779e-13 1.28504 0
5.6819e-13 1.28504 0
-1.71646e-13 1.28504 0
-2.70301e-13 1.27113 0
1.89925e-13 1.27113 0
-1.71646e-13 1.28504 0
-4.92577e-13 1.28504 0
1.89925e-13 1.27113 0
2.82339e-13 1.27113 0
-2.75458e-14 1.27113 0
-4.08488e-14 1.27113 0
1.15791e-13 1.25795 0
-2.86142e-14 1.25795 0
-4.08488e-14 1.27113 0
-2.54137e-13 1.27113 0
-2.86142e-14 1.25795 0
4.36143e-15 1.25795 0
1.38648e-13 1.25795 0
-7.54154e-14 1.25795 0
-1.84212e-13 1.24546 0
-8.02876e-14 1.24546 0
-7.54154e-14 1.25795 0
-9.5016e-15 1.25795 0
-8.02876e-14 1.24546 0
9.90549e-14 1.24546 0
-2.54137e-13 1.27113 0
1.15491e-13 1.27113 0
4.36143e-15 1.25795 0
2.80225e-14 1.25795 0
1.15491e-13 1.27113 0
4.85645e-13 1.27113 0
2.80225e-14 1.25795 0
-2.72894e-13 1.25795 0
-9.5016e-15 1.25795 0
2.28391e-13 1.25795 0
9.90549e-14 1.24546 0
-1.26929e-13 1.24546 0
2.28391e-13 1.25795 0
-1.88358e-14 1.25795 0
-1.26929e-13 1.24546 0
1.37446e-13 1.24546 0
9.43982e-15 1.36701 0
2.21319e-14 1.36701 0
-6.48679e-14 1.3488 0
-1.10528e-13 1.3488 0
2.21319e-14 1.36701 0
3.47411e-13 1.36701 0
-1.10528e-13 1.3488 0
-3.72306e-13 1.3488 0
6.18128e-14 1.3488 0
3.94394e-14 1.3488 0
-1.42564e-13 1.33155 0
1.72926e-13 1.33155 0
3.94394e-14 1.3488 0
-6.22004e-13 1.3488 0
1.72926e-13 1.33155 0
3.59051e-13 1.33155 0
3.47411e-13 1.36701 0
-1.80087e-13 1.36701 0
-3.72306e-13 1.3488 0
1.78003e-13 1.3488 0
-1.80087e-13 1.36701 0
-6.4775e-13 1.36701 0
1.78003e-13 1.3488 0
5.34362e-13 1.3488 0
-6.22004e-13 1.3488 0
2.61402e-13 1.3488 0
3.59051e-13 1.33155 0
-3.02609e-13 1.33155 0
2.61402e-13 1.3488 0
4.36015e-13 1.3488 0
-3.02609e-13 1.33155 0
-3.27905e-13 1.33155 0
1.99489e-14 1.33155 0
6.16615e-14 1.33155 0
-3.09547e-13 1.3152 0
1.2821e-15 1.3152 0
6.16615e-14 1.33155 0
-9.56139e-14 1.33155 0
1.2821e-15 1.3152 0
2.55662e-15 1.3152 0
-5.32576e-13 1.3152 0
-2.22787e-13 1.3152 0
6.4851e-13 1.29971 0
2.94349e-13 1.29971 0
-2.22787e-13 1.3152 0
3.11837e-13 1.3152 0
2.94349e-13 1.29971 0
-2.76976e-13 1.29971 0
-9.56139e-14 1.33155 0
-2.91465e-14 1.33155 0
2.55662e-15 1.3152 0
1.1515e-13 1.3152 0
-2.91465e-14 1.33155 0
1.07236e-14 1.33155 0
1.1515e-13 1.3152 0
5.74048e-14 1.3152 0
3.11837e-13 1.3152 0
-1.48131e-13 1.3152 0
-2.76976e-13 1.29971 0
2.65017e-13 1.29971 0
-1.48131e-13 1.3152 0
8.74001e-14 1.3152 0
2.65017e-13 1.29971 0
-3.4746e-13 1.29971 0
-6.4775e-13 1.36701 0
7.65451e-13 1.36701 0
5.34362e-13 1.3488 0
-7.10141e-13 1.3488 0
7.65451e-13 1.36701 0
-2.42389e-13 1.36701 0
-7.10141e-13 1.3488 0
2.88741e-13 1.3488 0
4.36015e-13 1.3488 0
1.42698e-13 1.3488 0
-3.27905e-13 1.33155 0
9.75174e-14 1.33155 0
1.42698e-13 1.3488 0
-1.73808e-13 1.3488 0
9.75174e-14 1.33155 0
-7.77952e-15 1.33155 0
-2.42389e-13 1.36701 0
-2.15408e-13 1.36701 0
2.88741e-13 1.3488 0
6.35865e-14 1.3488 0
-2.15408e-13 1.36701 0
6.86216e-13 1.36701 0
6.35865e-14 1.3488 0
-4.56293e-13 1.3488 0
-1.73808e-13 1.3488 0
-1.30304e-13 1.3488 0
-7.77952e-15 1.33155 0
-1.50721e-14 1.33155 0
-1.30304e-13 1.3488 0
-3.07488e-13 1.3488 0
-1.50721e-14 1.33155 0
3.90212e-13 1.33155 0
1.07236e-14 1.33155 0
-1.65641e-13 1.33155 0
5.74048e-14 1.3152 0
4.52431e-13 1.3152 0
-1.65641e-13 1.33155 0
2.22543e-13 1.33155 0
4.52431e-13 1.3152 0
-4.82556e-13 1.3152 0
8.74001e-14 1.3152 0
3.06204e-17 1.3152 0
-3.4746e-13 1.29971 0
-1.14491e-13 1.29971 0
3.06204e-17 1.3152 0
-4.00952e-15 1.3152 0
-1.14491e-13 1.29971 0
3.78728e-13 1.29971 0
2.22543e-13 1.33155 0
2.47304e-13 1.33155 0
-4.82556e-13 1.3152 0
-2.16113e-15 1.3152 0
2.47304e-13 1.33155 0
3.19331e-14 1.33155 0
-2.16113e-15 1.3152 0
-9.28422e-15 1.3152 0
-4.00952e-15 1.3152 0
-8.42001e-14 1.3152 0
3.78728e-13 1.29971 0
-3.12072e-13 1.29971 0
-8.42001e-14 1.3152 0
2.4397e-13 1.3152 0
-3.12072e-13 1.29971 0
-4.02284e-14 1.29971 0
5.04503e-13 1.29971 0
3.34213e-15 1.29971 0
-2.35779e-13 1.28504 0
-2.21935e-14 1.28504 0
3.34213e-15 1.29971 0
-2.75856e-13 1.29971 0
-2.21935e-14 1.28504 0
4.86623e-14 1.28504 0
-4.92577e-13 1.28504 0
1.47468e-13 1.28504 0
2.82339e-13 1.27113 0
-2.26626e-13 1.27113 0
1.47468e-13 1.28504 0
2.45194e-13 1.28504 0
-2.26626e-13 1.27113 0
-2.39663e-13 1.27113 0
-2.75856e-13 1.29971 0
2.64559e-13 1.29971 0
4.86623e-14 1.28504 0
-2.82497e-13 1.28504 0
2.64559e-13 1.29971 0
-2.73438e-13 1.29971 0
-2.82497e-13 1.28504 0
3.47907e-13 1.28504 0