# vtk DataFile Version 3.0
#This file was generated by the deal.II library on 2018/10/16 at 5:01:25
ASCII
DATASET UNSTRUCTURED_GRID

POINTS 20480 double
0 0 0
0.19635 0 0
0 0.288965 0
0.19635 0.288965 0
0.19635 0 0
0.392699 0 0
0.19635 0.288965 0
0.392699 0.288965 0
0 0.288965 0
0.19635 0.288965 0
0 0.600127 0
0.19635 0.600127 0
0.19635 0.288965 0
0.392699 0.288965 0
0.19635 0.600127 0
0.392699 0.600127 0
0.392699 0 0
0.589049 0 0
0.392699 0.288965 0
0.589049 0.288965 0
0.589049 0 0
0.785398 0 0
0.589049 0.288965 0
0.785398 0.288965 0
0.392699 0.288965 0
0.589049 0.288965 0
0.392699 0.600127 0
0.589049 0.600127 0
0.589049 0.288965 0
0.785398 0.288965 0
0.589049 0.600127 0
0.785398 0.600127 0
0 0.600127 0
0.19635 0.600127 0
0 0.913152 0
0.19635 0.913152 0
0.19635 0.600127 0
0.392699 0.600127 0
0.19635 0.913152 0
0.392699 0.913152 0
0 0.913152 0
0.19635 0.913152 0
0 1.22688 0
0.19635 1.22688 0
0.19635 0.913152 0
0.392699 0.913152 0
0.19635 1.22688 0
0.392699 1.22688 0
0.392699 0.600127 0
0.589049 0.600127 0
0.392699 0.913152 0
0.589049 0.913152 0
0.589049 0.600127 0
0.785398 0.600127 0
0.589049 0.913152 0
0.785398 0.913152 0
0.392699 0.913152 0
0.589049 0.913152 0
0.392699 1.22688 0
0.589049 1.22688 0
0.589049 0.913152 0
0.785398 0.913152 0
0.589049 1.22688 0
0.785398 1.22688 0
0.785398 0 0
0.981748 0 0
0.785398 0.288965 0
0.981748 0.288965 0
0.981748 0 0
1.1781 0 0
0.981748 0.288965 0
1.1781 0.288965 0
0.785398 0.288965 0
0.981748 0.288965 0
0.785398 0.600127 0
0.981748 0.600127 0
0.981748 0.288965 0
1.1781 0.288965 0
0.981748 0.600127 0
1.1781 0.600127 0
1.1781 0 0
1.37445 0 0
1.1781 0.288965 0
1.37445 0.288965 0
1.37445 0 0
1.5708 0 0
1.37445 0.288965 0
1.5708 0.288965 0
1.1781 0.288965 0
1.37445 0.288965 0
1.1781 0.600127 0
1.37445 0.600127 0
1.37445 0.288965 0
1.5708 0.288965 0
1.37445 0.600127 0
1.5708 0.600127 0
0.785398 0.600127 0
0.981748 0.600127 0
0.785398 0.913152 0
0.981748 0.913152 0
0.981748 0.600127 0
1.1781 0.600127 0
0.981748 0.913152 0
1.1781 0.913152 0
0.785398 0.913152 0
0.981748 0.913152 0
0.785398 1.22688 0
0.981748 1.22688 0
0.981748 0.913152 0
1.1781 0.913152 0
0.981748 1.22688 0
1.1781 1.22688 0
1.1781 0.600127 0
1.37445 0.600127 0
1.1781 0.913152 0
1.37445 0.913152 0
1.37445 0.600127 0
1.5708 0.600127 0
1.37445 0.913152 0
1.5708 0.913152 0
1.1781 0.913152 0
1.37445 0.913152 0
1.1781 1.22688 0
1.37445 1.22688 0
1.37445 0.913152 0
1.5708 0.913152 0
1.37445 1.22688 0
1.5708 1.22688 0
0 1.22688 0
0.19635 1.22688 0
0 1.54051 0
0.19635 1.54051 0
0.19635 1.22688 0
0.392699 1.22688 0
0.19635 1.54051 0
0.392699 1.54051 0
0 1.54051 0
0.19635 1.54051 0
0 1.85414 0
0.19635 1.85414 0
0.19635 1.54051 0
0.392699 1.54051 0
0.19635 1.85414 0
0.392699 1.85414 0
0.392699 1.22688 0
0.589049 1.22688 0
0.392699 1.54051 0
0.589049 1.54051 0
0.589049 1.22688 0
0.785398 1.22688 0
0.589049 1.54051 0
0.785398 1.54051 0
0.392699 1.54051 0
0.589049 1.54051 0
0.392699 1.85414 0
0.589049 1.85414 0
0.589049 1.54051 0
0.785398 1.54051 0
0.589049 1.85414 0
0.785398 1.85414 0
0 1.85414 0
0.19635 1.85414 0
0 2.16773 0
0.19635 2.16773 0
0.19635 1.85414 0
0.392699 1.85414 0
0.19635 2.16773 0
0.392699 2.16773 0
0 2.16773 0
0.19635 2.16773 0
0 2.48127 0
0.19635 2.48127 0
0.19635 2.16773 0
0.392699 2.16773 0
0.19635 2.48127 0
0.392699 2.48127 0
0.392699 1.85414 0
0.589049 1.85414 0
0.392699 2.16773 0
0.589049 2.16773 0
0.589049 1.85414 0
0.785398 1.85414 0
0.589049 2.16773 0
0.785398 2.16773 0
0.392699 2.16773 0
0.589049 2.16773 0
0.392699 2.48127 0
0.589049 2.48127 0
0.589049 2.16773 0
0.785398 2.16773 0
0.589049 2.48127 0
0.785398 2.48127 0
0.785398 1.22688 0
0.981748 1.22688 0
0.785398 1.54051 0
0.981748 1.54051 0
0.981748 1.22688 0
1.1781 1.22688 0
0.981748 1.54051 0
1.1781 1.54051 0
0.785398 1.54051 0
0.981748 1.54051 0
0.785398 1.85414 0
0.981748 1.85414 0
0.981748 1.54051 0
1.1781 1.54051 0
0.981748 1.85414 0
1.1781 1.85414 0
1.1781 1.22688 0
1.37445 1.22688 0
1.1781 1.54051 0
1.37445 1.54051 0
1.37445 1.22688 0
1.5708 1.22688 0
1.37445 1.54051 0
1.5708 1.54051 0
1.1781 1.54051 0
1.37445 1.54051 0
1.1781 1.85414 0
1.37445 1.85414 0
1.37445 1.54051 0
1.5708 1.54051 0
1.37445 1.85414 0
1.5708 1.85414 0
0.785398 1.85414 0
0.981748 1.85414 0
0.785398 2.16773 0
0.981748 2.16773 0
0.981748 1.85414 0
1.1781 1.85414 0
0.981748 2.16773 0
1.1781 2.16773 0
0.785398 2.16773 0
0.981748 2.16773 0
0.785398 2.48127 0
0.981748 2.48127 0
0.981748 2.16773 0
1.1781 2.16773 0
0.981748 2.48127 0
1.1781 2.48127 0
1.1781 1.85414 0
1.37445 1.85414 0
1.1781 2.16773 0
1.37445 2.16773 0
1.37445 1.85414 0
1.5708 1.85414 0
1.37445 2.16773 0
1.5708 2.16773 0
1.1781 2.16773 0
1.37445 2.16773 0
1.1781 2.48127 0
1.37445 2.48127 0
1.37445 2.16773 0
1.5708 2.16773 0
1.37445 2.48127 0
1.5708 2.48127 0
1.5708 0 0
1.76715 0 0
1.5708 0.288965 0
1.76715 0.288965 0
1.76715 0 0
1.9635 0 0
1.76715 0.288965 0
1.9635 0.288965 0
1.5708 0.288965 0
1.76715 0.288965 0
1.5708 0.600127 0
1.76715 0.600127 0
1.76715 0.288965 0
1.9635 0.288965 0
1.76715 0.600127 0
1.9635 0.600127 0
1.9635 0 0
2.15984 0 0
1.9635 0.288965 0
2.15984 0.288965 0
2.15984 0 0
2.35619 0 0
2.15984 0.288965 0
2.35619 0.288965 0
1.9635 0.288965 0
2.15984 0.288965 0
1.9635 0.600127 0
2.15984 0.600127 0
2.15984 0.288965 0
2.35619 0.288965 0
2.15984 0.600127 0
2.35619 0.600127 0
1.5708 0.600127 0
1.76715 0.600127 0
1.5708 0.913152 0
1.76715 0.913152 0
1.76715 0.600127 0
1.9635 0.600127 0
1.76715 0.913152 0
1.9635 0.913152 0
1.5708 0.913152 0
1.76715 0.913152 0
1.5708 1.22688 0
1.76715 1.22688 0
1.76715 0.913152 0
1.9635 0.913152 0
1.76715 1.22688 0
1.9635 1.22688 0
1.9635 0.600127 0
2.15984 0.600127 0
1.9635 0.913152 0
2.15984 0.913152 0
2.15984 0.600127 0
2.35619 0.600127 0
2.15984 0.913152 0
2.35619 0.913152 0
1.9635 0.913152 0
2.15984 0.913152 0
1.9635 1.22688 0
2.15984 1.22688 0
2.15984 0.913152 0
2.35619 0.913152 0
2.15984 1.22688 0
2.35619 1.22688 0
2.35619 0 0
2.55254 0 0
2.35619 0.288965 0
2.55254 0.288965 0
2.55254 0 0
2.74889 0 0
2.55254 0.288965 0
2.74889 0.288965 0
2.35619 0.288965 0
2.55254 0.288965 0
2.35619 0.600127 0
2.55254 0.600127 0
2.55254 0.288965 0
2.74889 0.288965 0
2.55254 0.600127 0
2.74889 0.600127 0
2.74889 0 0
2.94524 0 0
2.74889 0.288965 0
2.94524 0.288965 0
2.94524 0 0
3.14159 0 0
2.94524 0.288965 0
3.14159 0.288965 0
2.74889 0.288965 0
2.94524 0.288965 0
2.74889 0.600127 0
2.94524 0.600127 0
2.94524 0.288965 0
3.14159 0.288965 0
2.94524 0.600127 0
3.14159 0.600127 0
2.35619 0.600127 0
2.55254 0.600127 0
2.35619 0.913152 0
2.55254 0.913152 0
2.55254 0.600127 0
2.74889 0.600127 0
2.55254 0.913152 0
2.74889 0.913152 0
2.35619 0.913152 0
2.55254 0.913152 0
2.35619 1.22688 0
2.55254 1.22688 0
2.55254 0.913152 0
2.74889 0.913152 0
2.55254 1.22688 0
2.74889 1.22688 0
2.74889 0.600127 0
2.94524 0.600127 0
2.74889 0.913152 0
2.94524 0.913152 0
2.94524 0.600127 0
3.14159 0.600127 0
2.94524 0.913152 0
3.14159 0.913152 0
2.74889 0.913152 0
2.94524 0.913152 0
2.74889 1.22688 0
2.94524 1.22688 0
2.94524 0.913152 0
3.14159 0.913152 0
2.94524 1.22688 0
3.14159 1.22688 0
1.5708 1.22688 0
1.76715 1.22688 0
1.5708 1.54051 0
1.76715 1.54051 0
1.76715 1.22688 0
1.9635 1.22688 0
1.76715 1.54051 0
1.9635 1.54051 0
1.5708 1.54051 0
1.76715 1.54051 0
1.5708 1.85414 0
1.76715 1.85414 0
1.76715 1.54051 0
1.9635 1.54051 0
1.76715 1.85414 0
1.9635 1.85414 0
1.9635 1.22688 0
2.15984 1.22688 0
1.9635 1.54051 0
2.15984 1.54051 0
2.15984 1.22688 0
2.35619 1.22688 0
2.15984 1.54051 0
2.35619 1.54051 0
1.9635 1.54051 0
2.15984 1.54051 0
1.9635 1.85414 0
2.15984 1.85414 0
2.15984 1.54051 0
2.35619 1.54051 0
2.15984 1.85414 0
2.35619 1.85414 0
1.5708 1.85414 0
1.76715 1.85414 0
1.5708 2.16773 0
1.76715 2.16773 0
1.76715 1.85414 0
1.9635 1.85414 0
1.76715 2.16773 0
1.9635 2.16773 0
1.5708 2.16773 0
1.76715 2.16773 0
1.5708 2.48127 0
1.76715 2.48127 0
1.76715 2.16773 0
1.9635 2.16773 0
1.76715 2.48127 0
1.9635 2.48127 0
1.9635 1.85414 0
2.15984 1.85414 0
1.9635 2.16773 0
2.15984 2.16773 0
2.15984 1.85414 0
2.35619 1.85414 0
2.15984 2.16773 0
2.35619 2.16773 0
1.9635 2.16773 0
2.15984 2.16773 0
1.9635 2.48127 0
2.15984 2.48127 0
2.15984 2.16773 0
2.35619 2.16773 0
2.15984 2.48127 0
2.35619 2.48127 0
2.35619 1.22688 0
2.55254 1.22688 0
2.35619 1.54051 0
2.55254 1.54051 0
2.55254 1.22688 0
2.74889 1.22688 0
2.55254 1.54051 0
2.74889 1.54051 0
2.35619 1.54051 0
2.55254 1.54051 0
2.35619 1.85414 0
2.55254 1.85414 0
2.55254 1.54051 0
2.74889 1.54051 0
2.55254 1.85414 0
2.74889 1.85414 0
2.74889 1.22688 0
2.94524 1.22688 0
2.74889 1.54051 0
2.94524 1.54051 0
2.94524 1.22688 0
3.14159 1.22688 0
2.94524 1.54051 0
3.14159 1.54051 0
2.74889 1.54051 0
2.94524 1.54051 0
2.74889 1.85414 0
2.94524 1.85414 0
2.94524 1.54051 0
3.14159 1.54051 0
2.94524 1.85414 0
3.14159 1.85414 0
2.35619 1.85414 0
2.55254 1.85414 0
2.35619 2.16773 0
2.55254 2.16773 0
2.55254 1.85414 0
2.74889 1.85414 0
2.55254 2.16773 0
2.74889 2.16773 0
2.35619 2.16773 0
2.55254 2.16773 0
2.35619 2.48127 0
2.55254 2.48127 0
2.55254 2.16773 0
2.74889 2.16773 0
2.55254 2.48127 0
2.74889 2.48127 0
2.74889 1.85414 0
2.94524 1.85414 0
2.74889 2.16773 0
2.94524 2.16773 0
2.94524 1.85414 0
3.14159 1.85414 0
2.94524 2.16773 0
3.14159 2.16773 0
2.74889 2.16773 0
2.94524 2.16773 0
2.74889 2.48127 0
2.94524 2.48127 0
2.94524 2.16773 0
3.14159 2.16773 0
2.94524 2.48127 0
3.14159 2.48127 0
0 2.48127 0
0.19635 2.48127 0
0 2.79478 0
0.19635 2.79478 0
0.19635 2.48127 0
0.392699 2.48127 0
0.19635 2.79478 0
0.392699 2.79478 0
0 2.79478 0
0.19635 2.79478 0
0 3.10826 0
0.19635 3.10826 0
0.19635 2.79478 0
0.392699 2.79478 0
0.19635 3.10826 0
0.392699 3.10826 0
0.392699 2.48127 0
0.589049 2.48127 0
0.392699 2.79478 0
0.589049 2.79478 0
0.589049 2.48127 0
0.785398 2.48127 0
0.589049 2.79478 0
0.785398 2.79478 0
0.392699 2.79478 0
0.589049 2.79478 0
0.392699 3.10826 0
0.589049 3.10826 0
0.589049 2.79478 0
0.785398 2.79478 0
0.589049 3.10826 0
0.785398 3.10826 0
0 3.10826 0
0.19635 3.10826 0
0 3.4217 0
0.19635 3.4217 0
0.19635 3.10826 0
0.392699 3.10826 0
0.19635 3.4217 0
[...]
POINT_DATA 20480
VECTORS uf double
0 1 0
-2.11704e-13 1 0
0 1.56567 0
2.97272e-13 1.56567 0
-2.11704e-13 1 0
-8.07845e-14 1 0
2.97272e-13 1.56567 0
1.70583e-13 1.56567 0
0 1.56567 0
1.75712e-13 1.56567 0
0 1.53442 0
-1.18843e-14 1.53442 0
1.75712e-13 1.56567 0
-4.01833e-14 1.56567 0
-1.18843e-14 1.53442 0
1.93933e-13 1.53442 0
-8.07845e-14 1 0
2.11437e-13 1 0
1.70583e-13 1.56567 0
-4.12864e-13 1.56567 0
2.11437e-13 1 0
-1.78016e-13 1 0
-4.12864e-13 1.56567 0
3.15193e-13 1.56567 0
-4.01833e-14 1.56567 0
-7.11738e-13 1.56567 0
1.93933e-13 1.53442 0
7.65631e-13 1.53442 0
-7.11738e-13 1.56567 0
7.59572e-14 1.56567 0
7.65631e-13 1.53442 0
1.19162e-13 1.53442 0
0 1.53442 0
1.33578e-13 1.53442 0
0 1.52105 0
4.26909e-14 1.52105 0
1.33578e-13 1.53442 0
3.30141e-13 1.53442 0
4.26909e-14 1.52105 0
-4.04388e-13 1.52105 0
0 1.52105 0
1.79195e-13 1.52105 0
0 1.49055 0
-1.6356e-13 1.49055 0
1.79195e-13 1.52105 0
-3.42512e-13 1.52105 0
-1.6356e-13 1.49055 0
3.24208e-13 1.49055 0
3.30141e-13 1.53442 0
6.50581e-13 1.53442 0
-4.04388e-13 1.52105 0
-3.6748e-13 1.52105 0
6.50581e-13 1.53442 0
1.32795e-13 1.53442 0
-3.6748e-13 1.52105 0
2.83071e-13 1.52105 0
-3.42512e-13 1.52105 0
2.42394e-13 1.52105 0
3.24208e-13 1.49055 0
-4.52989e-13 1.49055 0
2.42394e-13 1.52105 0
2.46139e-13 1.52105 0
-4.52989e-13 1.49055 0
2.12791e-13 1.49055 0
-1.78016e-13 1 0
-2.32821e-13 1 0
3.15193e-13 1.56567 0
4.37048e-13 1.56567 0
-2.32821e-13 1 0
1.24677e-13 1 0
4.37048e-13 1.56567 0
-1.91726e-13 1.56567 0
7.59572e-14 1.56567 0
5.34801e-13 1.56567 0
1.19162e-13 1.53442 0
-4.20757e-13 1.53442 0
5.34801e-13 1.56567 0
3.78747e-13 1.56567 0
-4.20757e-13 1.53442 0
-5.78029e-13 1.53442 0
1.24677e-13 1 0
6.95485e-13 1 0
-1.91726e-13 1.56567 0
-1.23824e-12 1.56567 0
6.95485e-13 1 0
4.52935e-13 1 0
-1.23824e-12 1.56567 0
-6.26981e-13 1.56567 0
3.78747e-13 1.56567 0
-8.75667e-13 1.56567 0
-5.78029e-13 1.53442 0
4.04266e-13 1.53442 0
-8.75667e-13 1.56567 0
-5.23452e-13 1.56567 0
4.04266e-13 1.53442 0
8.9678e-14 1.53442 0
1.32795e-13 1.53442 0
-3.13025e-13 1.53442 0
2.83071e-13 1.52105 0
1.44718e-13 1.52105 0
-3.13025e-13 1.53442 0
-5.39958e-13 1.53442 0
1.44718e-13 1.52105 0
2.23925e-13 1.52105 0
2.46139e-13 1.52105 0
-4.0365e-14 1.52105 0
2.12791e-13 1.49055 0
-1.63601e-13 1.49055 0
-4.0365e-14 1.52105 0
-2.23921e-13 1.52105 0
-1.63601e-13 1.49055 0
2.43339e-13 1.49055 0
-5.39958e-13 1.53442 0
-1.11434e-13 1.53442 0
2.23925e-13 1.52105 0
-1.41593e-13 1.52105 0
-1.11434e-13 1.53442 0
3.78987e-14 1.53442 0
-1.41593e-13 1.52105 0
-3.33437e-13 1.52105 0
-2.23921e-13 1.52105 0
-3.48778e-14 1.52105 0
2.43339e-13 1.49055 0
1.15679e-14 1.49055 0
-3.48778e-14 1.52105 0
1.07838e-13 1.52105 0
1.15679e-14 1.49055 0
-3.56164e-13 1.49055 0
0 1.49055 0
-2.84777e-13 1.49055 0
0 1.46655 0
3.51261e-13 1.46655 0
-2.84777e-13 1.49055 0
5.24954e-13 1.49055 0
3.51261e-13 1.46655 0
-6.69062e-13 1.46655 0
0 1.46655 0
5.53193e-13 1.46655 0
0 1.44227 0
-4.2131e-13 1.44227 0
5.53193e-13 1.46655 0
-7.21958e-13 1.46655 0
-4.2131e-13 1.44227 0
3.44108e-13 1.44227 0
5.24954e-13 1.49055 0
-3.68173e-13 1.49055 0
-6.69062e-13 1.46655 0
3.9968e-13 1.46655 0
-3.68173e-13 1.49055 0
1.8119e-13 1.49055 0
3.9968e-13 1.46655 0
1.12877e-13 1.46655 0
-7.21958e-13 1.46655 0
1.80532e-13 1.46655 0
3.44108e-13 1.44227 0
1.71839e-14 1.44227 0
1.80532e-13 1.46655 0
2.06143e-13 1.46655 0
1.71839e-14 1.44227 0
-6.82657e-15 1.44227 0
0 1.44227 0
-2.39911e-13 1.44227 0
0 1.41983 0
-1.08404e-13 1.41983 0
-2.39911e-13 1.44227 0
1.99695e-13 1.44227 0
-1.08404e-13 1.41983 0
-6.81046e-14 1.41983 0
0 1.41983 0
-3.70748e-13 1.41983 0
0 1.3985 0
2.57683e-13 1.3985 0
-3.70748e-13 1.41983 0
-1.32843e-13 1.41983 0
2.57683e-13 1.3985 0
8.03032e-14 1.3985 0
1.99695e-13 1.44227 0
2.26009e-13 1.44227 0
-6.81046e-14 1.41983 0
-1.48447e-13 1.41983 0
2.26009e-13 1.44227 0
1.33239e-13 1.44227 0
-1.48447e-13 1.41983 0
-1.08893e-14 1.41983 0
-1.32843e-13 1.41983 0
9.72074e-14 1.41983 0
8.03032e-14 1.3985 0
-4.44033e-13 1.3985 0
9.72074e-14 1.41983 0
-5.46537e-14 1.41983 0
-4.44033e-13 1.3985 0
2.6419e-13 1.3985 0
1.8119e-13 1.49055 0
1.86547e-15 1.49055 0
1.12877e-13 1.46655 0
-1.18725e-13 1.46655 0
1.86547e-15 1.49055 0
7.4593e-14 1.49055 0
-1.18725e-13 1.46655 0
-1.15265e-13 1.46655 0
2.06143e-13 1.46655 0
-3.93599e-13 1.46655 0
-6.82657e-15 1.44227 0
3.70832e-13 1.44227 0
-3.93599e-13 1.46655 0
3.56769e-14 1.46655 0
3.70832e-13 1.44227 0
-2.0317e-13 1.44227 0
7.4593e-14 1.49055 0
-2.9629e-13 1.49055 0
-1.15265e-13 1.46655 0
1.82699e-13 1.46655 0
-2.9629e-13 1.49055 0
-5.33046e-13 1.49055 0
1.82699e-13 1.46655 0
3.64302e-13 1.46655 0
3.56769e-14 1.46655 0
8.18326e-14 1.46655 0
-2.0317e-13 1.44227 0
-1.4235e-13 1.44227 0
8.18326e-14 1.46655 0
2.36868e-13 1.46655 0
-1.4235e-13 1.44227 0
-3.25825e-13 1.44227 0
1.33239e-13 1.44227 0
2.60851e-13 1.44227 0
-1.08893e-14 1.41983 0
-1.97274e-13 1.41983 0
2.60851e-13 1.44227 0
-2.46798e-13 1.44227 0
-1.97274e-13 1.41983 0
-3.92499e-14 1.41983 0
-5.46537e-14 1.41983 0
-1.96944e-13 1.41983 0
2.6419e-13 1.3985 0
3.75507e-13 1.3985 0
-1.96944e-13 1.41983 0
-8.51805e-14 1.41983 0
3.75507e-13 1.3985 0
-9.41149e-14 1.3985 0
-2.46798e-13 1.44227 0
-6.38291e-13 1.44227 0
-3.92499e-14 1.41983 0
6.98151e-13 1.41983 0
-6.38291e-13 1.44227 0
2.33291e-13 1.44227 0
6.98151e-13 1.41983 0
-1.48738e-13 1.41983 0
-8.51805e-14 1.41983 0
4.06997e-13 1.41983 0
-9.41149e-14 1.3985 0
-2.91453e-13 1.3985 0
4.06997e-13 1.41983 0
1.91002e-13 1.41983 0
-2.91453e-13 1.3985 0
-7.93183e-14 1.3985 0
4.52935e-13 1 0
-4.04226e-13 1 0
-6.26981e-13 1.56567 0
8.15463e-13 1.56567 0
-4.04226e-13 1 0
-2.58809e-13 1 0
8.15463e-13 1.56567 0
2.99027e-13 1.56567 0
-5.23452e-13 1.56567 0
7.54832e-13 1.56567 0
8.9678e-14 1.53442 0
-5.05233e-13 1.53442 0
7.54832e-13 1.56567 0
3.52282e-13 1.56567 0
-5.05233e-13 1.53442 0
-2.8403e-13 1.53442 0
-2.58809e-13 1 0
-1.7186e-13 1 0
2.99027e-13 1.56567 0
8.69825e-14 1.56567 0
-1.7186e-13 1 0
2.86279e-13 1 0
8.69825e-14 1.56567 0
9.14574e-14 1.56567 0
3.52282e-13 1.56567 0
-3.77946e-13 1.56567 0
-2.8403e-13 1.53442 0
4.62787e-13 1.53442 0
-3.77946e-13 1.56567 0
5.46037e-13 1.56567 0
4.62787e-13 1.53442 0
-4.3125e-13 1.53442 0
3.78987e-14 1.53442 0
-1.89821e-13 1.53442 0
-3.33437e-13 1.52105 0
2.01624e-13 1.52105 0
-1.89821e-13 1.53442 0
3.165e-13 1.53442 0
2.01624e-13 1.52105 0
1.68962e-14 1.52105 0
1.07838e-13 1.52105 0
-2.13625e-13 1.52105 0
-3.56164e-13 1.49055 0
4.15926e-13 1.49055 0
-2.13625e-13 1.52105 0
-4.40574e-14 1.52105 0
4.15926e-13 1.49055 0
-3.65872e-13 1.49055 0
3.165e-13 1.53442 0
1.56139e-13 1.53442 0
1.68962e-14 1.52105 0
-1.52654e-13 1.52105 0
1.56139e-13 1.53442 0
-5.9305e-13 1.53442 0
-1.52654e-13 1.52105 0
4.26536e-13 1.52105 0
-4.40574e-14 1.52105 0
-3.5151e-13 1.52105 0
-3.65872e-13 1.49055 0
6.36837e-13 1.49055 0
-3.5151e-13 1.52105 0
4.4251e-14 1.52105 0
6.36837e-13 1.49055 0
2.11017e-13 1.49055 0
2.86279e-13 1 0
2.39029e-13 1 0
9.14574e-14 1.56567 0
-3.30506e-13 1.56567 0
2.39029e-13 1 0
-1.44082e-13 1 0
-3.30506e-13 1.56567 0
1.08059e-13 1.56567 0
5.46037e-13 1.56567 0
-3.01899e-13 1.56567 0
-4.3125e-13 1.53442 0
2.47142e-13 1.53442 0
-3.01899e-13 1.56567 0
-1.69282e-13 1.56567 0
2.47142e-13 1.53442 0
1.97369e-13 1.53442 0
-1.44082e-13 1 0
-1.73041e-13 1 0
1.08059e-13 1.56567 0
2.35573e-13 1.56567 0
-1.73041e-13 1 0
1.02468e-13 1 0
2.35573e-13 1.56567 0
-1.93563e-14 1.56567 0
-1.69282e-13 1.56567 0
2.63237e-13 1.56567 0
1.97369e-13 1.53442 0
-1.91829e-13 1.53442 0
2.63237e-13 1.56567 0
4.28709e-13 1.56567 0
-1.91829e-13 1.53442 0
-6.98113e-14 1.53442 0
-5.9305e-13 1.53442 0
1.38262e-14 1.53442 0
4.26536e-13 1.52105 0
1.51686e-14 1.52105 0
1.38262e-14 1.53442 0
-1.97745e-13 1.53442 0
1.51686e-14 1.52105 0
2.17608e-13 1.52105 0
4.4251e-14 1.52105 0
7.13261e-13 1.52105 0
2.11017e-13 1.49055 0
-7.3974e-13 1.49055 0
7.13261e-13 1.52105 0
-3.62855e-14 1.52105 0
-7.3974e-13 1.49055 0
4.1882e-13 1.49055 0
-1.97745e-13 1.53442 0
-1.18346e-13 1.53442 0
2.17608e-13 1.52105 0
8.13454e-14 1.52105 0
-1.18346e-13 1.53442 0
1.98091e-13 1.53442 0
8.13454e-14 1.52105 0
-5.7446e-14 1.52105 0
-3.62855e-14 1.52105 0
-1.70864e-13 1.52105 0
4.1882e-13 1.49055 0
-3.27156e-13 1.49055 0
-1.70864e-13 1.52105 0
3.37933e-13 1.52105 0
-3.27156e-13 1.49055 0
-1.71134e-14 1.49055 0
-5.33046e-13 1.49055 0
8.22314e-13 1.49055 0
3.64302e-13 1.46655 0
-7.16135e-13 1.46655 0
8.22314e-13 1.49055 0
-2.21807e-13 1.49055 0
-7.16135e-13 1.46655 0
2.59664e-13 1.46655 0
2.36868e-13 1.46655 0
-1.58398e-13 1.46655 0
-3.25825e-13 1.44227 0
3.66011e-13 1.44227 0
-1.58398e-13 1.46655 0
-2.36071e-13 1.46655 0
3.66011e-13 1.44227 0
1.96281e-13 1.44227 0
-2.21807e-13 1.49055 0
1.94104e-15 1.49055 0
2.59664e-13 1.46655 0
-3.46747e-13 1.46655 0
1.94104e-15 1.49055 0
1.78944e-14 1.49055 0
-3.46747e-13 1.46655 0
-3.79256e-14 1.46655 0
-2.36071e-13 1.46655 0
-3.94656e-14 1.46655 0
1.96281e-13 1.44227 0
-7.4957e-14 1.44227 0
-3.94656e-14 1.46655 0
-1.01221e-13 1.46655 0
-7.4957e-14 1.44227 0
-9.84427e-14 1.44227 0
2.33291e-13 1.44227 0
2.33104e-13 1.44227 0
-1.48738e-13 1.41983 0
-2.15559e-13 1.41983 0
2.33104e-13 1.44227 0
1.02041e-13 1.44227 0
-2.15559e-13 1.41983 0
2.64257e-14 1.41983 0
1.91002e-13 1.41983 0
-1.87155e-13 1.41983 0
-7.93183e-14 1.3985 0
9.51627e-14 1.3985 0
-1.87155e-13 1.41983 0
3.49209e-13 1.41983 0
9.51627e-14 1.3985 0
-1.72887e-13 1.3985 0
1.02041e-13 1.44227 0
-1.86724e-13 1.44227 0
2.64257e-14 1.41983 0
3.24449e-13 1.41983 0
-1.86724e-13 1.44227 0
2.33569e-13 1.44227 0
3.24449e-13 1.41983 0
-1.94774e-13 1.41983 0
3.49209e-13 1.41983 0
-2.25566e-14 1.41983 0
-1.72887e-13 1.3985 0
-7.20179e-14 1.3985 0
-2.25566e-14 1.41983 0
4.24451e-13 1.41983 0
-7.20179e-14 1.3985 0
-4.08653e-13 1.3985 0
1.78944e-14 1.49055 0
1.2031e-13 1.49055 0
-3.79256e-14 1.46655 0
3.14474e-13 1.46655 0
1.2031e-13 1.49055 0
-2.32615e-13 1.49055 0
3.14474e-13 1.46655 0
1.42865e-13 1.46655 0
-1.01221e-13 1.46655 0
4.19776e-14 1.46655 0
-9.84427e-14 1.44227 0
2.7644e-13 1.44227 0
4.19776e-14 1.46655 0
6.50994e-14 1.46655 0
2.7644e-13 1.44227 0
-1.74356e-13 1.44227 0
-2.32615e-13 1.49055 0
5.52461e-13 1.49055 0
1.42865e-13 1.46655 0
-5.73268e-13 1.46655 0
5.52461e-13 1.49055 0
-6.66852e-13 1.49055 0
-5.73268e-13 1.46655 0
6.57089e-13 1.46655 0
6.50994e-14 1.46655 0
-3.01277e-13 1.46655 0
-1.74356e-13 1.44227 0
4.66474e-13 1.44227 0
-3.01277e-13 1.46655 0
3.02775e-13 1.46655 0
4.66474e-13 1.44227 0
-2.01549e-13 1.44227 0
2.33569e-13 1.44227 0
-2.57586e-13 1.44227 0
-1.94774e-13 1.41983 0
3.90221e-13 1.41983 0
-2.57586e-13 1.44227 0
-1.65804e-13 1.44227 0
3.90221e-13 1.41983 0
-1.44278e-14 1.41983 0
4.24451e-13 1.41983 0
-8.94013e-13 1.41983 0
-4.08653e-13 1.3985 0
8.35865e-13 1.3985 0
-8.94013e-13 1.41983 0
2.53234e-13 1.41983 0
8.35865e-13 1.3985 0
-2.32137e-14 1.3985 0
-1.65804e-13 1.44227 0
4.64436e-13 1.44227 0
-1.44278e-14 1.41983 0
-4.82548e-13 1.41983 0
4.64436e-13 1.44227 0
-4.5366e-15 1.44227 0
-4.82548e-13 1.41983 0
1.37035e-13 1.41983 0
2.53234e-13 1.41983 0
9.70061e-14 1.41983 0
-2.32137e-14 1.3985 0
-1.55318e-13 1.3985 0
9.70061e-14 1.41983 0
1.00588e-13 1.41983 0
-1.55318e-13 1.3985 0
2.81966e-13 1.3985 0
0 1.3985 0
1.99167e-13 1.3985 0
0 1.37841 0
-9.99018e-14 1.37841 0
1.99167e-13 1.3985 0
1.9488e-13 1.3985 0
-9.99018e-14 1.37841 0
-1.77019e-13 1.37841 0
0 1.37841 0
1.55595e-13 1.37841 0
0 1.35943 0
-2.91598e-13 1.35943 0
1.55595e-13 1.37841 0
-1.84169e-13 1.37841 0
-2.91598e-13 1.35943 0
1.20858e-13 1.35943 0
1.9488e-13 1.3985 0
-7.06656e-13 1.3985 0
-1.77019e-13 1.37841 0
6.69293e-13 1.37841 0
-7.06656e-13 1.3985 0
2.73154e-13 1.3985 0
6.69293e-13 1.37841 0
-1.22309e-13 1.37841 0
-1.84169e-13 1.37841 0
5.06632e-13 1.37841 0
1.20858e-13 1.35943 0
-2.58742e-13 1.35943 0
5.06632e-13 1.37841 0
-2.09227e-14 1.37841 0
-2.58742e-13 1.35943 0
2.6211e-14 1.35943 0
0 1.35943 0
-3.65074e-13 1.35943 0
0 1.34152 0
2.50656e-14 1.34152 0
-3.65074e-13 1.35943 0
-1.31742e-13 1.35943 0
2.50656e-14 1.34152 0
1.82868e-13 1.34152 0
0 1.34152 0
1.75678e-13 1.34152 0
0 1.3246 0
-7.78349e-14 1.3246 0
1.75678e-13 1.34152 0
2.90603e-13 1.34152 0
-7.78349e-14 1.3246 0
-2.80928e-13 1.3246 0
-1.31742e-13 1.35943 0
-1.93656e-13 1.35943 0
1.82868e-13 1.34152 0
2.51686e-13 1.34152 0
-1.93656e-13 1.35943 0
7.24667e-16 1.35943 0
2.51686e-13 1.34152 0
-1.4743e-14 1.34152 0
2.90603e-13 1.34152 0
6.57818e-14 1.34152 0
-2.80928e-13 1.3246 0
8.14026e-14 1.3246 0
6.57818e-14 1.34152 0
-1.1054e-13 1.34152 0
8.14026e-14 1.3246 0
1.4292e-13 1.3246 0
2.73154e-13 1.3985 0
5.36525e-13 1.3985 0
-1.22309e-13 1.37841 0
-4.44565e-13 1.37841 0
5.36525e-13 1.3985 0
-4.98058e-13 1.3985 0
-4.44565e-13 1.37841 0
5.90742e-13 1.37841 0
-2.09227e-14 1.37841 0
-4.97626e-13 1.37841 0
2.6211e-14 1.35943 0
3.66459e-13 1.35943 0
-4.97626e-13 1.37841 0
1.20218e-13 1.37841 0
3.66459e-13 1.35943 0
4.65649e-15 1.35943 0
-4.98058e-13 1.3985 0
-3.30038e-13 1.3985 0
5.90742e-13 1.37841 0
1.9885e-13 1.37841 0
-3.30038e-13 1.3985 0
9.41991e-14 1.3985 0
1.9885e-13 1.37841 0
-1.94234e-13 1.37841 0
1.20218e-13 1.37841 0
2.96434e-13 1.37841 0
4.65649e-15 1.35943 0
-2.05215e-13 1.35943 0
2.96434e-13 1.37841 0
-6.28178e-14 1.37841 0
-2.05215e-13 1.35943 0
-1.0479e-13 1.35943 0
7.24667e-16 1.35943 0
4.60677e-13 1.35943 0
-1.4743e-14 1.34152 0
-4.75032e-13 1.34152 0
4.60677e-13 1.35943 0
8.98747e-14 1.35943 0
-4.75032e-13 1.34152 0
8.70171e-14 1.34152 0
-1.1054e-13 1.34152 0
-5.33907e-13 1.34152 0
1.4292e-13 1.3246 0
3.58563e-13 1.3246 0
-5.33907e-13 1.34152 0
2.22962e-13 1.34152 0
3.58563e-13 1.3246 0
-1.78746e-13 1.3246 0
8.98747e-14 1.35943 0
-8.48862e-14 1.35943 0
8.70171e-14 1.34152 0
2.46535e-13 1.34152 0
-8.48862e-14 1.35943 0
-2.49708e-16 1.35943 0
2.46535e-13 1.34152 0
-3.7166e-13 1.34152 0
2.22962e-13 1.34152 0
5.68177e-13 1.34152 0
-1.78746e-13 1.3246 0
-6.4056e-13 1.3246 0
5.68177e-13 1.34152 0
-6.55984e-13 1.34152 0
-6.4056e-13 1.3246 0
8.0766e-13 1.3246 0
0 1.3246 0
-4.76884e-13 1.3246 0
0 1.30863 0
4.15481e-13 1.30863 0
-4.76884e-13 1.3246 0
-2.4432e-13 1.3246 0
4.15481e-13 1.30863 0
2.3924e-13 1.30863 0
0 1.30863 0
1.83862e-13 1.30863 0
0 1.29354 0
1.87349e-13 1.29354 0
1.83862e-13 1.30863 0
9.35072e-14 1.30863 0
1.87349e-13 1.29354 0
9.32845e-14 1.29354 0
-2.4432e-13 1.3246 0
4.60599e-13 1.3246 0
2.3924e-13 1.30863 0
-3.19529e-13 1.30863 0
4.60599e-13 1.3246 0
1.48201e-13 1.3246 0
-3.19529e-13 1.30863 0
1.84615e-14 1.30863 0
9.35072e-14 1.30863 0
-2.15835e-13 1.30863 0
9.32845e-14 1.29354 0
-2.1108e-13 1.29354 0
-2.15835e-13 1.30863 0
1.59333e-13 1.30863 0
-2.1108e-13 1.29354 0
-3.2564e-14 1.29354 0
0 1.29354 0
3.52373e-13 1.29354 0
0 1.27928 0
-8.36174e-14 1.27928 0
3.52373e-13 1.29354 0
3.98727e-13 1.29354 0
-8.36174e-14 1.27928 0
-5.25427e-13 1.27928 0
0 1.27928 0
-1.1774e-13 1.27928 0
0 1.26582 0
8.99626e-14 1.26582 0
-1.1774e-13 1.27928 0
-6.54529e-13 1.27928 0
8.99626e-14 1.26582 0
2.43644e-13 1.26582 0
3.98727e-13 1.29354 0
-5.39179e-13 1.29354 0
-5.25427e-13 1.27928 0
4.80453e-13 1.27928 0
-5.39179e-13 1.29354 0
-4.66439e-14 1.29354 0
4.80453e-13 1.27928 0
1.3833e-13 1.27928 0
-6.54529e-13 1.27928 0
5.39043e-13 1.27928 0
2.43644e-13 1.26582 0
-3.87114e-13 1.26582 0
5.39043e-13 1.27928 0
2.1767e-13 1.27928 0
-3.87114e-13 1.26582 0
-2.95403e-13 1.26582 0
1.48201e-13 1.3246 0
4.05483e-13 1.3246 0
1.84615e-14 1.30863 0
-4.76724e-13 1.30863 0
4.05483e-13 1.3246 0
-3.27491e-13 1.3246 0
-4.76724e-13 1.30863 0
3.56607e-13 1.30863 0
1.59333e-13 1.30863 0
-2.27124e-13 1.30863 0
-3.2564e-14 1.29354 0
-6.83183e-15 1.29354 0
-2.27124e-13 1.30863 0
4.28825e-13 1.30863 0
-6.83183e-15 1.29354 0
-1.73145e-13 1.29354 0
-3.27491e-13 1.3246 0
-4.09391e-13 1.3246 0
3.56607e-13 1.30863 0
2.69452e-13 1.30863 0
-4.09391e-13 1.3246 0
5.94019e-13 1.3246 0
2.69452e-13 1.30863 0
-3.08832e-13 1.30863 0
4.28825e-13 1.30863 0
-8.10496e-14 1.30863 0
-1.73145e-13 1.29354 0
2.35881e-13 1.29354 0
-8.10496e-14 1.30863 0
-4.34636e-13 1.30863 0
2.35881e-13 1.29354 0
2.2183e-13 1.29354 0
-4.66439e-14 1.29354 0
-9.8476e-14 1.29354 0
1.3833e-13 1.27928 0
-1.12946e-13 1.27928 0
-9.8476e-14 1.29354 0
-4.5877e-14 1.29354 0
-1.12946e-13 1.27928 0
5.91319e-14 1.27928 0
2.1767e-13 1.27928 0
-1.57665e-13 1.27928 0
-2.95403e-13 1.26582 0
3.2809e-15 1.26582 0
-1.57665e-13 1.27928 0
1.52065e-14 1.27928 0
3.2809e-15 1.26582 0
4.9989e-14 1.26582 0
-4.5877e-14 1.29354 0
1.78628e-13 1.29354 0
5.91319e-14 1.27928 0
5.34224e-15 1.27928 0
1.78628e-13 1.29354 0
3.6078e-13 1.29354 0
5.34224e-15 1.27928 0
-1.93949e-13 1.27928 0
1.52065e-14 1.27928 0
2.01034e-13 1.27928 0
4.9989e-14 1.26582 0
-1.46354e-13 1.26582 0
2.01034e-13 1.27928 0
-9.29133e-14 1.27928 0
-1.46354e-13 1.26582 0
1.19018e-13 1.26582 0
9.41991e-14 1.3985 0
7.41647e-14 1.3985 0
-1.94234e-13 1.37841 0
-5.96645e-14 1.37841 0
7.41647e-14 1.3985 0
1.98052e-13 1.3985 0
-5.96645e-14 1.37841 0
-1.85147e-13 1.37841 0
-6.28178e-14 1.37841 0
1.35285e-13 1.37841 0
-1.0479e-13 1.35943 0
1.26388e-13 1.35943 0
1.35285e-13 1.37841 0
-4.80317e-13 1.37841 0
1.26388e-13 1.35943 0
2.64626e-13 1.35943 0
1.98052e-13 1.3985 0
-1.36497e-13 1.3985 0
-1.85147e-13 1.37841 0
1.31135e-13 1.37841 0
-1.36497e-13 1.3985 0
-6.58768e-13 1.3985 0
1.31135e-13 1.37841 0
5.77602e-13 1.37841 0
-4.80317e-13 1.37841 0
1.40154e-13 1.37841 0
2.64626e-13 1.35943 0
-9.33707e-14 1.35943 0
1.40154e-13 1.37841 0
5.55096e-13 1.37841 0
-9.33707e-14 1.35943 0
-4.99231e-13 1.35943 0
-2.49708e-16 1.35943 0
2.90828e-14 1.35943 0
-3.7166e-13 1.34152 0
-2.79925e-14 1.34152 0
2.90828e-14 1.35943 0
-1.91071e-13 1.35943 0
-2.79925e-14 1.34152 0
9.27677e-14 1.34152 0
-6.55984e-13 1.34152 0
-2.62811e-13 1.34152 0
8.0766e-13 1.3246 0
3.3409e-13 1.3246 0
-2.62811e-13 1.34152 0
4.09616e-13 1.34152 0
3.3409e-13 1.3246 0
-3.25391e-13 1.3246 0
-1.91071e-13 1.35943 0
1.73332e-13 1.35943 0
9.27677e-14 1.34152 0
-3.95926e-16 1.34152 0
1.73332e-13 1.35943 0
-7.74476e-14 1.35943 0
-3.95926e-16 1.34152 0
6.7153e-14 1.34152 0
4.09616e-13 1.34152 0
-2.75627e-13 1.34152 0
-3.25391e-13 1.3246 0
4.80364e-13 1.3246 0
-2.75627e-13 1.34152 0
7.4929e-14 1.34152 0
4.80364e-13 1.3246 0
-4.88752e-13 1.3246 0
-6.58768e-13 1.3985 0
9.54448e-13 1.3985 0
5.77602e-13 1.37841 0
-7.50343e-13 1.37841 0
9.54448e-13 1.3985 0
-2.69533e-13 1.3985 0
-7.50343e-13 1.37841 0
3.37319e-13 1.37841 0
5.55096e-13 1.37841 0
1.72001e-13 1.37841 0
-4.99231e-13 1.35943 0
-1.50703e-14 1.35943 0
1.72001e-13 1.37841 0
-2.13719e-13 1.37841 0
-1.50703e-14 1.35943 0
8.72418e-14 1.35943 0
-2.69533e-13 1.3985 0
-2.2699e-13 1.3985 0
3.37319e-13 1.37841 0
6.23297e-14 1.37841 0
-2.2699e-13 1.3985 0
8.70937e-13 1.3985 0
6.23297e-14 1.37841 0
-5.64211e-13 1.37841 0
-2.13719e-13 1.37841 0
-1.94379e-13 1.37841 0
8.72418e-14 1.35943 0
-3.53882e-14 1.35943 0
-1.94379e-13 1.37841 0
-4.20075e-13 1.37841 0
-3.53882e-14 1.35943 0
5.57279e-13 1.35943 0
-7.74476e-14 1.35943 0
-2.91347e-13 1.35943 0
6.7153e-14 1.34152 0
6.07409e-13 1.34152 0
-2.91347e-13 1.35943 0
3.85443e-13 1.35943 0
6.07409e-13 1.34152 0
-5.58536e-13 1.34152 0
7.4929e-14 1.34152 0
6.20736e-14 1.34152 0
-4.88752e-13 1.3246 0
-1.18996e-13 1.3246 0
6.20736e-14 1.34152 0
-9.27142e-14 1.34152 0
-1.18996e-13 1.3246 0
5.10863e-13 1.3246 0
3.85443e-13 1.35943 0
1.80475e-13 1.35943 0
-5.58536e-13 1.34152 0
5.7193e-14 1.34152 0
1.80475e-13 1.35943 0
1.30957e-13 1.35943 0
5.7193e-14 1.34152 0
2.35276e-15 1.34152 0
-9.27142e-14 1.34152 0
3.23705e-14 1.34152 0
5.10863e-13 1.3246 0
-5.14494e-13 1.3246 0
3.23705e-14 1.34152 0
2.29267e-13 1.34152 0
-5.14494e-13 1.3246 0
4.45312e-14 1.3246 0
5.94019e-13 1.3246 0
-1.42742e-14 1.3246 0
-3.08832e-13 1.30863 0
4.05427e-16 1.30863 0
-1.42742e-14 1.3246 0
-1.87749e-13 1.3246 0
4.05427e-16 1.30863 0
-1.43461e-14 1.30863 0
-4.34636e-13 1.30863 0
4.31341e-14 1.30863 0
2.2183e-13 1.29354 0
-1.76979e-13 1.29354 0
4.31341e-14 1.30863 0
3.44311e-13 1.30863 0
-1.76979e-13 1.29354 0
-1.76325e-13 1.29354 0
-1.87749e-13 1.3246 0
5.37963e-13 1.3246 0
-1.43461e-14 1.30863 0
-4.50088e-13 1.30863 0
5.37963e-13 1.3246 0
-5.25213e-13 1.3246 0
-4.50088e-13 1.30863 0
6.71751e-13 1.30863 0
3.44311e-13 1.30863 0