# vtk DataFile Version 3.0
#This file was generated by the deal.II library on 2018/10/15 at 7:24:15
ASCII
DATASET UNSTRUCTURED_GRID

POINTS 20480 double
0 0 0
0.19635 0 0
0 0.30702 0
0.19635 0.30702 0
0.19635 0 0
0.392699 0 0
0.19635 0.30702 0
0.392699 0.30702 0
0 0.30702 0
0.19635 0.30702 0
0 0.619278 0
0.19635 0.619278 0
0.19635 0.30702 0
0.392699 0.30702 0
0.19635 0.619278 0
0.392699 0.619278 0
0.392699 0 0
0.589049 0 0
0.392699 0.30702 0
0.589049 0.30702 0
0.589049 0 0
0.785398 0 0
0.589049 0.30702 0
0.785398 0.30702 0
0.392699 0.30702 0
0.589049 0.30702 0
0.392699 0.619278 0
0.589049 0.619278 0
0.589049 0.30702 0
0.785398 0.30702 0
0.589049 0.619278 0
0.785398 0.619278 0
0 0.619278 0
0.19635 0.619278 0
0 0.931953 0
0.19635 0.931953 0
0.19635 0.619278 0
0.392699 0.619278 0
0.19635 0.931953 0
0.392699 0.931953 0
0 0.931953 0
0.19635 0.931953 0
0 1.24471 0
0.19635 1.24471 0
0.19635 0.931953 0
0.392699 0.931953 0
0.19635 1.24471 0
0.392699 1.24471 0
0.392699 0.619278 0
0.589049 0.619278 0
0.392699 0.931953 0
0.589049 0.931953 0
0.589049 0.619278 0
0.785398 0.619278 0
0.589049 0.931953 0
0.785398 0.931953 0
0.392699 0.931953 0
0.589049 0.931953 0
0.392699 1.24471 0
0.589049 1.24471 0
0.589049 0.931953 0
0.785398 0.931953 0
0.589049 1.24471 0
0.785398 1.24471 0
0.785398 0 0
0.981748 0 0
0.785398 0.30702 0
0.981748 0.30702 0
0.981748 0 0
1.1781 0 0
0.981748 0.30702 0
1.1781 0.30702 0
0.785398 0.30702 0
0.981748 0.30702 0
0.785398 0.619278 0
0.981748 0.619278 0
0.981748 0.30702 0
1.1781 0.30702 0
0.981748 0.619278 0
1.1781 0.619278 0
1.1781 0 0
1.37445 0 0
1.1781 0.30702 0
1.37445 0.30702 0
1.37445 0 0
1.5708 0 0
1.37445 0.30702 0
1.5708 0.30702 0
1.1781 0.30702 0
1.37445 0.30702 0
1.1781 0.619278 0
1.37445 0.619278 0
1.37445 0.30702 0
1.5708 0.30702 0
1.37445 0.619278 0
1.5708 0.619278 0
0.785398 0.619278 0
0.981748 0.619278 0
0.785398 0.931953 0
0.981748 0.931953 0
0.981748 0.619278 0
1.1781 0.619278 0
0.981748 0.931953 0
1.1781 0.931953 0
0.785398 0.931953 0
0.981748 0.931953 0
0.785398 1.24471 0
0.981748 1.24471 0
0.981748 0.931953 0
1.1781 0.931953 0
0.981748 1.24471 0
1.1781 1.24471 0
1.1781 0.619278 0
1.37445 0.619278 0
1.1781 0.931953 0
1.37445 0.931953 0
1.37445 0.619278 0
1.5708 0.619278 0
1.37445 0.931953 0
1.5708 0.931953 0
1.1781 0.931953 0
1.37445 0.931953 0
1.1781 1.24471 0
1.37445 1.24471 0
1.37445 0.931953 0
1.5708 0.931953 0
1.37445 1.24471 0
1.5708 1.24471 0
0 1.24471 0
0.19635 1.24471 0
0 1.55745 0
0.19635 1.55745 0
0.19635 1.24471 0
0.392699 1.24471 0
0.19635 1.55745 0
0.392699 1.55745 0
0 1.55745 0
0.19635 1.55745 0
0 1.87019 0
0.19635 1.87019 0
0.19635 1.55745 0
0.392699 1.55745 0
0.19635 1.87019 0
0.392699 1.87019 0
0.392699 1.24471 0
0.589049 1.24471 0
0.392699 1.55745 0
0.589049 1.55745 0
0.589049 1.24471 0
0.785398 1.24471 0
0.589049 1.55745 0
0.785398 1.55745 0
0.392699 1.55745 0
0.589049 1.55745 0
0.392699 1.87019 0
0.589049 1.87019 0
0.589049 1.55745 0
0.785398 1.55745 0
0.589049 1.87019 0
0.785398 1.87019 0
0 1.87019 0
0.19635 1.87019 0
0 2.18292 0
0.19635 2.18292 0
0.19635 1.87019 0
0.392699 1.87019 0
0.19635 2.18292 0
0.392699 2.18292 0
0 2.18292 0
0.19635 2.18292 0
0 2.49565 0
0.19635 2.49565 0
0.19635 2.18292 0
0.392699 2.18292 0
0.19635 2.49565 0
0.392699 2.49565 0
0.392699 1.87019 0
0.589049 1.87019 0
0.392699 2.18292 0
0.589049 2.18292 0
0.589049 1.87019 0
0.785398 1.87019 0
0.589049 2.18292 0
0.785398 2.18292 0
0.392699 2.18292 0
0.589049 2.18292 0
0.392699 2.49565 0
0.589049 2.49565 0
0.589049 2.18292 0
0.785398 2.18292 0
0.589049 2.49565 0
0.785398 2.49565 0
0.785398 1.24471 0
0.981748 1.24471 0
0.785398 1.55745 0
0.981748 1.55745 0
0.981748 1.24471 0
1.1781 1.24471 0
0.981748 1.55745 0
1.1781 1.55745 0
0.785398 1.55745 0
0.981748 1.55745 0
0.785398 1.87019 0
0.981748 1.87019 0
0.981748 1.55745 0
1.1781 1.55745 0
0.981748 1.87019 0
1.1781 1.87019 0
1.1781 1.24471 0
1.37445 1.24471 0
1.1781 1.55745 0
1.37445 1.55745 0
1.37445 1.24471 0
1.5708 1.24471 0
1.37445 1.55745 0
1.5708 1.55745 0
1.1781 1.55745 0
1.37445 1.55745 0
1.1781 1.87019 0
1.37445 1.87019 0
1.37445 1.55745 0
1.5708 1.55745 0
1.37445 1.87019 0
1.5708 1.87019 0
0.785398 1.87019 0
0.981748 1.87019 0
0.785398 2.18292 0
0.981748 2.18292 0
0.981748 1.87019 0
1.1781 1.87019 0
0.981748 2.18292 0
1.1781 2.18292 0
0.785398 2.18292 0
0.981748 2.18292 0
0.785398 2.49565 0
0.981748 2.49565 0
0.981748 2.18292 0
1.1781 2.18292 0
0.981748 2.49565 0
1.1781 2.49565 0
1.1781 1.87019 0
1.37445 1.87019 0
1.1781 2.18292 0
1.37445 2.18292 0
1.37445 1.87019 0
1.5708 1.87019 0
1.37445 2.18292 0
1.5708 2.18292 0
1.1781 2.18292 0
1.37445 2.18292 0
1.1781 2.49565 0
1.37445 2.49565 0
1.37445 2.18292 0
1.5708 2.18292 0
1.37445 2.49565 0
1.5708 2.49565 0
1.5708 0 0
1.76715 0 0
1.5708 0.30702 0
1.76715 0.30702 0
1.76715 0 0
1.9635 0 0
1.76715 0.30702 0
1.9635 0.30702 0
1.5708 0.30702 0
1.76715 0.30702 0
1.5708 0.619278 0
1.76715 0.619278 0
1.76715 0.30702 0
1.9635 0.30702 0
1.76715 0.619278 0
1.9635 0.619278 0
1.9635 0 0
2.15984 0 0
1.9635 0.30702 0
2.15984 0.30702 0
2.15984 0 0
2.35619 0 0
2.15984 0.30702 0
2.35619 0.30702 0
1.9635 0.30702 0
2.15984 0.30702 0
1.9635 0.619278 0
2.15984 0.619278 0
2.15984 0.30702 0
2.35619 0.30702 0
2.15984 0.619278 0
2.35619 0.619278 0
1.5708 0.619278 0
1.76715 0.619278 0
1.5708 0.931953 0
1.76715 0.931953 0
1.76715 0.619278 0
1.9635 0.619278 0
1.76715 0.931953 0
1.9635 0.931953 0
1.5708 0.931953 0
1.76715 0.931953 0
1.5708 1.24471 0
1.76715 1.24471 0
1.76715 0.931953 0
1.9635 0.931953 0
1.76715 1.24471 0
1.9635 1.24471 0
1.9635 0.619278 0
2.15984 0.619278 0
1.9635 0.931953 0
2.15984 0.931953 0
2.15984 0.619278 0
2.35619 0.619278 0
2.15984 0.931953 0
2.35619 0.931953 0
1.9635 0.931953 0
2.15984 0.931953 0
1.9635 1.24471 0
2.15984 1.24471 0
2.15984 0.931953 0
2.35619 0.931953 0
2.15984 1.24471 0
2.35619 1.24471 0
2.35619 0 0
2.55254 0 0
2.35619 0.30702 0
2.55254 0.30702 0
2.55254 0 0
2.74889 0 0
2.55254 0.30702 0
2.74889 0.30702 0
2.35619 0.30702 0
2.55254 0.30702 0
2.35619 0.619278 0
2.55254 0.619278 0
2.55254 0.30702 0
2.74889 0.30702 0
2.55254 0.619278 0
2.74889 0.619278 0
2.74889 0 0
2.94524 0 0
2.74889 0.30702 0
2.94524 0.30702 0
2.94524 0 0
3.14159 0 0
2.94524 0.30702 0
3.14159 0.30702 0
2.74889 0.30702 0
2.94524 0.30702 0
2.74889 0.619278 0
2.94524 0.619278 0
2.94524 0.30702 0
3.14159 0.30702 0
2.94524 0.619278 0
3.14159 0.619278 0
2.35619 0.619278 0
2.55254 0.619278 0
2.35619 0.931953 0
2.55254 0.931953 0
2.55254 0.619278 0
2.74889 0.619278 0
2.55254 0.931953 0
2.74889 0.931953 0
2.35619 0.931953 0
2.55254 0.931953 0
2.35619 1.24471 0
2.55254 1.24471 0
2.55254 0.931953 0
2.74889 0.931953 0
2.55254 1.24471 0
2.74889 1.24471 0
2.74889 0.619278 0
2.94524 0.619278 0
2.74889 0.931953 0
2.94524 0.931953 0
2.94524 0.619278 0
3.14159 0.619278 0
2.94524 0.931953 0
3.14159 0.931953 0
2.74889 0.931953 0
2.94524 0.931953 0
2.74889 1.24471 0
2.94524 1.24471 0
2.94524 0.931953 0
3.14159 0.931953 0
2.94524 1.24471 0
3.14159 1.24471 0
1.5708 1.24471 0
1.76715 1.24471 0
1.5708 1.55745 0
1.76715 1.55745 0
1.76715 1.24471 0
1.9635 1.24471 0
1.76715 1.55745 0
1.9635 1.55745 0
1.5708 1.55745 0
1.76715 1.55745 0
1.5708 1.87019 0
1.76715 1.87019 0
1.76715 1.55745 0
1.9635 1.55745 0
1.76715 1.87019 0
1.9635 1.87019 0
1.9635 1.24471 0
2.15984 1.24471 0
1.9635 1.55745 0
2.15984 1.55745 0
2.15984 1.24471 0
2.35619 1.24471 0
2.15984 1.55745 0
2.35619 1.55745 0
1.9635 1.55745 0
2.15984 1.55745 0
1.9635 1.87019 0
2.15984 1.87019 0
2.15984 1.55745 0
2.35619 1.55745 0
2.15984 1.87019 0
2.35619 1.87019 0
1.5708 1.87019 0
1.76715 1.87019 0
1.5708 2.18292 0
1.76715 2.18292 0
1.76715 1.87019 0
1.9635 1.87019 0
1.76715 2.18292 0
1.9635 2.18292 0
1.5708 2.18292 0
1.76715 2.18292 0
1.5708 2.49565 0
1.76715 2.49565 0
1.76715 2.18292 0
1.9635 2.18292 0
1.76715 2.49565 0
1.9635 2.49565 0
1.9635 1.87019 0
2.15984 1.87019 0
1.9635 2.18292 0
2.15984 2.18292 0
2.15984 1.87019 0
2.35619 1.87019 0
2.15984 2.18292 0
2.35619 2.18292 0
1.9635 2.18292 0
2.15984 2.18292 0
1.9635 2.49565 0
2.15984 2.49565 0
2.15984 2.18292 0
2.35619 2.18292 0
2.15984 2.49565 0
2.35619 2.49565 0
2.35619 1.24471 0
2.55254 1.24471 0
2.35619 1.55745 0
2.55254 1.55745 0
2.55254 1.24471 0
2.74889 1.24471 0
2.55254 1.55745 0
2.74889 1.55745 0
2.35619 1.55745 0
2.55254 1.55745 0
2.35619 1.87019 0
2.55254 1.87019 0
2.55254 1.55745 0
2.74889 1.55745 0
2.55254 1.87019 0
2.74889 1.87019 0
2.74889 1.24471 0
2.94524 1.24471 0
2.74889 1.55745 0
2.94524 1.55745 0
2.94524 1.24471 0
3.14159 1.24471 0
2.94524 1.55745 0
3.14159 1.55745 0
2.74889 1.55745 0
2.94524 1.55745 0
2.74889 1.87019 0
2.94524 1.87019 0
2.94524 1.55745 0
3.14159 1.55745 0
2.94524 1.87019 0
3.14159 1.87019 0
2.35619 1.87019 0
2.55254 1.87019 0
2.35619 2.18292 0
2.55254 2.18292 0
2.55254 1.87019 0
2.74889 1.87019 0
2.55254 2.18292 0
2.74889 2.18292 0
2.35619 2.18292 0
2.55254 2.18292 0
2.35619 2.49565 0
2.55254 2.49565 0
2.55254 2.18292 0
2.74889 2.18292 0
2.55254 2.49565 0
2.74889 2.49565 0
2.74889 1.87019 0
2.94524 1.87019 0
2.74889 2.18292 0
2.94524 2.18292 0
2.94524 1.87019 0
3.14159 1.87019 0
2.94524 2.18292 0
3.14159 2.18292 0
2.74889 2.18292 0
2.94524 2.18292 0
2.74889 2.49565 0
2.94524 2.49565 0
2.94524 2.18292 0
3.14159 2.18292 0
2.94524 2.49565 0
3.14159 2.49565 0
0 2.49565 0
0.19635 2.49565 0
0 2.80837 0
0.19635 2.80837 0
0.19635 2.49565 0
0.392699 2.49565 0
0.19635 2.80837 0
0.392699 2.80837 0
0 2.80837 0
0.19635 2.80837 0
0 3.12108 0
0.19635 3.12108 0
0.19635 2.80837 0
0.392699 2.80837 0
0.19635 3.12108 0
0.392699 3.12108 0
0.392699 2.49565 0
0.589049 2.49565 0
0.392699 2.80837 0
0.589049 2.80837 0
0.589049 2.49565 0
0.785398 2.49565 0
0.589049 2.80837 0
0.785398 2.80837 0
0.392699 2.80837 0
0.589049 2.80837 0
0.392699 3.12108 0
0.589049 3.12108 0
0.589049 2.80837 0
0.785398 2.80837 0
0.589049 3.12108 0
0.785398 3.12108 0
0 3.12108 0
0.19635 3.12108 0
0 3.43379 0
0.19635 3.43379 0
0.19635 3.12108 0
0.392699 3.12108 0
0.19635 3.43379 0
0.392699 3.43379 0
0 3.43379 0
0.19635 3.43379 0
0 3.74649 0
[...]
POINT_DATA 20480
VECTORS uf double
0 1 0
-1.78253e-13 1 0
0 1.42047 0
3.08704e-13 1.42047 0
-1.78253e-13 1 0
-3.71955e-14 1 0
3.08704e-13 1.42047 0
-1.42589e-14 1.42047 0
0 1.42047 0
2.99577e-13 1.42047 0
0 1.39141 0
-1.89831e-13 1.39141 0
2.99577e-13 1.42047 0
-2.88711e-13 1.42047 0
-1.89831e-13 1.39141 0
4.08035e-13 1.39141 0
-3.71955e-14 1 0
2.01061e-14 1 0
-1.42589e-14 1.42047 0
-5.10549e-14 1.42047 0
2.01061e-14 1 0
-1.23631e-13 1 0
-5.10549e-14 1.42047 0
2.63647e-13 1.42047 0
-2.88711e-13 1.42047 0
-3.47103e-13 1.42047 0
4.08035e-13 1.39141 0
4.0854e-13 1.39141 0
-3.47103e-13 1.42047 0
3.7481e-13 1.42047 0
4.0854e-13 1.39141 0
4.05876e-15 1.39141 0
0 1.39141 0
-6.44807e-14 1.39141 0
0 1.37685 0
-4.15367e-14 1.37685 0
-6.44807e-14 1.39141 0
4.12883e-13 1.39141 0
-4.15367e-14 1.37685 0
-2.99877e-13 1.37685 0
0 1.37685 0
-7.66635e-14 1.37685 0
0 1.35814 0
-2.64392e-14 1.35814 0
-7.66635e-14 1.37685 0
-1.73514e-13 1.37685 0
-2.64392e-14 1.35814 0
3.18642e-13 1.35814 0
4.12883e-13 1.39141 0
4.00418e-13 1.39141 0
-2.99877e-13 1.37685 0
-2.5614e-13 1.37685 0
4.00418e-13 1.39141 0
5.69189e-15 1.39141 0
-2.5614e-13 1.37685 0
2.7314e-13 1.37685 0
-1.73514e-13 1.37685 0
2.00379e-13 1.37685 0
3.18642e-13 1.35814 0
-3.79006e-13 1.35814 0
2.00379e-13 1.37685 0
3.63545e-13 1.37685 0
-3.79006e-13 1.35814 0
-9.49316e-14 1.35814 0
-1.23631e-13 1 0
-2.97624e-13 1 0
2.63647e-13 1.42047 0
3.62339e-13 1.42047 0
-2.97624e-13 1 0
7.63175e-14 1 0
3.62339e-13 1.42047 0
-1.74717e-13 1.42047 0
3.7481e-13 1.42047 0
2.18867e-13 1.42047 0
4.05876e-15 1.39141 0
-2.83803e-13 1.39141 0
2.18867e-13 1.42047 0
5.63786e-13 1.42047 0
-2.83803e-13 1.39141 0
-5.53389e-13 1.39141 0
7.63175e-14 1 0
7.39721e-13 1 0
-1.74717e-13 1.42047 0
-1.19516e-12 1.42047 0
7.39721e-13 1 0
3.28544e-13 1 0
-1.19516e-12 1.42047 0
-6.74903e-13 1.42047 0
5.63786e-13 1.42047 0
-1.26667e-12 1.42047 0
-5.53389e-13 1.39141 0
3.9701e-13 1.39141 0
-1.26667e-12 1.42047 0
-4.53505e-13 1.42047 0
3.9701e-13 1.39141 0
1.89033e-13 1.39141 0
5.69189e-15 1.39141 0
-2.83752e-13 1.39141 0
2.7314e-13 1.37685 0
5.33672e-14 1.37685 0
-2.83752e-13 1.39141 0
-4.26018e-13 1.39141 0
5.33672e-14 1.37685 0
-6.97852e-15 1.37685 0
3.63545e-13 1.37685 0
-9.91259e-14 1.37685 0
-9.49316e-14 1.35814 0
2.24474e-14 1.35814 0
-9.91259e-14 1.37685 0
-2.80824e-13 1.37685 0
2.24474e-14 1.35814 0
1.14754e-13 1.35814 0
-4.26018e-13 1.39141 0
-1.96416e-13 1.39141 0
-6.97852e-15 1.37685 0
3.07407e-14 1.37685 0
-1.96416e-13 1.39141 0
-7.68072e-14 1.39141 0
3.07407e-14 1.37685 0
-2.83976e-13 1.37685 0
-2.80824e-13 1.37685 0
-1.82023e-13 1.37685 0
1.14754e-13 1.35814 0
8.16002e-14 1.35814 0
-1.82023e-13 1.37685 0
4.26805e-14 1.37685 0
8.16002e-14 1.35814 0
-3.02595e-13 1.35814 0
0 1.35814 0
-3.26403e-14 1.35814 0
0 1.34145 0
6.14362e-14 1.34145 0
-3.26403e-14 1.35814 0
4.90428e-13 1.35814 0
6.14362e-14 1.34145 0
-4.08089e-13 1.34145 0
0 1.34145 0
1.35089e-13 1.34145 0
0 1.32517 0
-1.2922e-13 1.32517 0
1.35089e-13 1.34145 0
-2.35755e-13 1.34145 0
-1.2922e-13 1.32517 0
-3.27595e-14 1.32517 0
4.90428e-13 1.35814 0
-3.3953e-13 1.35814 0
-4.08089e-13 1.34145 0
2.35802e-13 1.34145 0
-3.3953e-13 1.35814 0
-1.1968e-13 1.35814 0
2.35802e-13 1.34145 0
2.53491e-13 1.34145 0
-2.35755e-13 1.34145 0
7.94509e-14 1.34145 0
-3.27595e-14 1.32517 0
-1.66077e-13 1.32517 0
7.94509e-14 1.34145 0
1.29579e-13 1.34145 0
-1.66077e-13 1.32517 0
1.37143e-13 1.32517 0
0 1.32517 0
-1.31229e-13 1.32517 0
0 1.30972 0
-1.54402e-13 1.30972 0
-1.31229e-13 1.32517 0
-2.14702e-13 1.32517 0
-1.54402e-13 1.30972 0
1.94461e-13 1.30972 0
0 1.30972 0
-2.20637e-13 1.30972 0
0 1.29494 0
2.05545e-13 1.29494 0
-2.20637e-13 1.30972 0
1.7688e-13 1.30972 0
2.05545e-13 1.29494 0
-5.53568e-14 1.29494 0
-2.14702e-13 1.32517 0
-5.61325e-14 1.32517 0
1.94461e-13 1.30972 0
6.64403e-14 1.30972 0
-5.61325e-14 1.32517 0
2.62246e-13 1.32517 0
6.64403e-14 1.30972 0
-2.58065e-13 1.30972 0
1.7688e-13 1.30972 0
9.34905e-14 1.30972 0
-5.53568e-14 1.29494 0
-2.26932e-13 1.29494 0
9.34905e-14 1.30972 0
-2.41691e-13 1.30972 0
-2.26932e-13 1.29494 0
3.05981e-13 1.29494 0
-1.1968e-13 1.35814 0
6.60345e-14 1.35814 0
2.53491e-13 1.34145 0
-1.70389e-13 1.34145 0
6.60345e-14 1.35814 0
4.14928e-14 1.35814 0
-1.70389e-13 1.34145 0
-1.378e-13 1.34145 0
1.29579e-13 1.34145 0
-3.01278e-13 1.34145 0
1.37143e-13 1.32517 0
1.30572e-13 1.32517 0
-3.01278e-13 1.34145 0
3.88666e-14 1.34145 0
1.30572e-13 1.32517 0
-1.68094e-13 1.32517 0
4.14928e-14 1.35814 0
-2.00714e-13 1.35814 0
-1.378e-13 1.34145 0
6.24201e-14 1.34145 0
-2.00714e-13 1.35814 0
-3.82511e-13 1.35814 0
6.24201e-14 1.34145 0
1.6722e-13 1.34145 0
3.88666e-14 1.34145 0
-6.32426e-14 1.34145 0
-1.68094e-13 1.32517 0
9.96343e-14 1.32517 0
-6.32426e-14 1.34145 0
1.28305e-13 1.34145 0
9.96343e-14 1.32517 0
-3.88089e-13 1.32517 0
2.62246e-13 1.32517 0
1.18725e-13 1.32517 0
-2.58065e-13 1.30972 0
-2.48338e-13 1.30972 0
1.18725e-13 1.32517 0
-2.43061e-13 1.32517 0
-2.48338e-13 1.30972 0
1.63121e-14 1.30972 0
-2.41691e-13 1.30972 0
-2.00979e-13 1.30972 0
3.05981e-13 1.29494 0
1.74507e-13 1.29494 0
-2.00979e-13 1.30972 0
9.8872e-15 1.30972 0
1.74507e-13 1.29494 0
-2.60415e-13 1.29494 0
-2.43061e-13 1.32517 0
-3.53558e-13 1.32517 0
1.63121e-14 1.30972 0
3.85408e-13 1.30972 0
-3.53558e-13 1.32517 0
6.69392e-15 1.32517 0
3.85408e-13 1.30972 0
2.65298e-14 1.30972 0
9.8872e-15 1.30972 0
1.89176e-14 1.30972 0
-2.60415e-13 1.29494 0
-2.05617e-13 1.29494 0
1.89176e-14 1.30972 0
2.53741e-13 1.30972 0
-2.05617e-13 1.29494 0
-6.29861e-14 1.29494 0
3.28544e-13 1 0
-3.38118e-13 1 0
-6.74903e-13 1.42047 0
4.63102e-13 1.42047 0
-3.38118e-13 1 0
-3.18651e-13 1 0
4.63102e-13 1.42047 0
1.77817e-13 1.42047 0
-4.53505e-13 1.42047 0
5.79788e-13 1.42047 0
1.89033e-13 1.39141 0
-4.80485e-13 1.39141 0
5.79788e-13 1.42047 0
3.63765e-13 1.42047 0
-4.80485e-13 1.39141 0
-2.7769e-13 1.39141 0
-3.18651e-13 1 0
-3.6463e-13 1 0
1.77817e-13 1.42047 0
2.86767e-13 1.42047 0
-3.6463e-13 1 0
2.98617e-13 1 0
2.86767e-13 1.42047 0
-1.39151e-13 1.42047 0
3.63765e-13 1.42047 0
-3.06448e-13 1.42047 0
-2.7769e-13 1.39141 0
1.33044e-13 1.39141 0
-3.06448e-13 1.42047 0
1.84537e-13 1.42047 0
1.33044e-13 1.39141 0
-2.5765e-13 1.39141 0
-7.68072e-14 1.39141 0
-1.58118e-13 1.39141 0
-2.83976e-13 1.37685 0
1.08655e-13 1.37685 0
-1.58118e-13 1.39141 0
-2.28922e-13 1.39141 0
1.08655e-13 1.37685 0
7.76626e-14 1.37685 0
4.26805e-14 1.37685 0
-9.21017e-14 1.37685 0
-3.02595e-13 1.35814 0
3.10752e-14 1.35814 0
-9.21017e-14 1.37685 0
7.59504e-14 1.37685 0
3.10752e-14 1.35814 0
-3.12879e-13 1.35814 0
-2.28922e-13 1.39141 0
3.86347e-13 1.39141 0
7.76626e-14 1.37685 0
-2.28679e-13 1.37685 0
3.86347e-13 1.39141 0
-4.08135e-13 1.39141 0
-2.28679e-13 1.37685 0
1.37343e-13 1.37685 0
7.59504e-14 1.37685 0
-5.27926e-13 1.37685 0
-3.12879e-13 1.35814 0
5.3949e-13 1.35814 0
-5.27926e-13 1.37685 0
-2.67672e-13 1.37685 0
5.3949e-13 1.35814 0
2.24041e-13 1.35814 0
2.98617e-13 1 0
5.25381e-14 1 0
-1.39151e-13 1.42047 0
-1.58665e-13 1.42047 0
5.25381e-14 1 0
-1.39155e-13 1 0
-1.58665e-13 1.42047 0
-8.55174e-14 1.42047 0
1.84537e-13 1.42047 0
-1.87026e-13 1.42047 0
-2.5765e-13 1.39141 0
1.04095e-13 1.39141 0
-1.87026e-13 1.42047 0
-3.44851e-13 1.42047 0
1.04095e-13 1.39141 0
1.48446e-13 1.39141 0
-1.39155e-13 1 0
-2.44821e-13 1 0
-8.55174e-14 1.42047 0
1.76402e-13 1.42047 0
-2.44821e-13 1 0
1.31139e-13 1 0
1.76402e-13 1.42047 0
-2.45206e-13 1.42047 0
-3.44851e-13 1.42047 0
1.35336e-13 1.42047 0
1.48446e-13 1.39141 0
-8.04546e-14 1.39141 0
1.35336e-13 1.42047 0
2.52314e-13 1.42047 0
-8.04546e-14 1.39141 0
-1.31461e-13 1.39141 0
-4.08135e-13 1.39141 0
-5.14011e-14 1.39141 0
1.37343e-13 1.37685 0
-4.96179e-15 1.37685 0
-5.14011e-14 1.39141 0
-3.21339e-13 1.39141 0
-4.96179e-15 1.37685 0
2.62051e-13 1.37685 0
-2.67672e-13 1.37685 0
6.45138e-13 1.37685 0
2.24041e-13 1.35814 0
-6.81244e-13 1.35814 0
6.45138e-13 1.37685 0
1.77059e-14 1.37685 0
-6.81244e-13 1.35814 0
1.12777e-13 1.35814 0
-3.21339e-13 1.39141 0
5.45937e-14 1.39141 0
2.62051e-13 1.37685 0
-1.74671e-13 1.37685 0
5.45937e-14 1.39141 0
1.18161e-13 1.39141 0
-1.74671e-13 1.37685 0
-2.32416e-13 1.37685 0
1.77059e-14 1.37685 0
-3.699e-13 1.37685 0
1.12777e-13 1.35814 0
-2.55617e-13 1.35814 0
-3.699e-13 1.37685 0
3.31035e-14 1.37685 0
-2.55617e-13 1.35814 0
1.16248e-13 1.35814 0
-3.82511e-13 1.35814 0
3.45431e-13 1.35814 0
1.6722e-13 1.34145 0
-5.28836e-13 1.34145 0
3.45431e-13 1.35814 0
-1.70779e-13 1.35814 0
-5.28836e-13 1.34145 0
2.54821e-13 1.34145 0
1.28305e-13 1.34145 0
-1.22219e-13 1.34145 0
-3.88089e-13 1.32517 0
3.31047e-13 1.32517 0
-1.22219e-13 1.34145 0
-1.18425e-14 1.34145 0
3.31047e-13 1.32517 0
-1.59085e-13 1.32517 0
-1.70779e-13 1.35814 0
-9.84897e-14 1.35814 0
2.54821e-13 1.34145 0
-2.29218e-13 1.34145 0
-9.84897e-14 1.35814 0
-1.38082e-14 1.35814 0
-2.29218e-13 1.34145 0
-1.91928e-13 1.34145 0
-1.18425e-14 1.34145 0
-2.61455e-14 1.34145 0
-1.59085e-13 1.32517 0
-1.29142e-13 1.32517 0
-2.61455e-14 1.34145 0
-3.20377e-13 1.34145 0
-1.29142e-13 1.32517 0
9.28345e-14 1.32517 0
6.69392e-15 1.32517 0
1.87182e-13 1.32517 0
2.65298e-14 1.30972 0
-1.45353e-13 1.30972 0
1.87182e-13 1.32517 0
-4.96274e-14 1.32517 0
-1.45353e-13 1.30972 0
-1.5146e-13 1.30972 0
2.53741e-13 1.30972 0
-3.72621e-14 1.30972 0
-6.29861e-14 1.29494 0
3.8625e-14 1.29494 0
-3.72621e-14 1.30972 0
6.22799e-14 1.30972 0
3.8625e-14 1.29494 0
1.23553e-16 1.29494 0
-4.96274e-14 1.32517 0
-1.2258e-13 1.32517 0
-1.5146e-13 1.30972 0
1.78149e-13 1.30972 0
-1.2258e-13 1.32517 0
3.26534e-13 1.32517 0
1.78149e-13 1.30972 0
-3.30003e-13 1.30972 0
6.22799e-14 1.30972 0
-7.70951e-14 1.30972 0
1.23553e-16 1.29494 0
-1.42578e-13 1.29494 0
-7.70951e-14 1.30972 0
1.99996e-13 1.30972 0
-1.42578e-13 1.29494 0
-1.77606e-13 1.29494 0
-1.38082e-14 1.35814 0
1.865e-13 1.35814 0
-1.91928e-13 1.34145 0
1.62323e-13 1.34145 0
1.865e-13 1.35814 0
-4.04997e-13 1.35814 0
1.62323e-13 1.34145 0
3.78428e-14 1.34145 0
-3.20377e-13 1.34145 0
-4.72362e-14 1.34145 0
9.28345e-14 1.32517 0
4.0875e-14 1.32517 0
-4.72362e-14 1.34145 0
-1.71142e-13 1.34145 0
4.0875e-14 1.32517 0
7.88365e-16 1.32517 0
-4.04997e-13 1.35814 0
4.05631e-13 1.35814 0
3.78428e-14 1.34145 0
-4.54931e-13 1.34145 0
4.05631e-13 1.35814 0
-5.84156e-13 1.35814 0
-4.54931e-13 1.34145 0
4.44837e-13 1.34145 0
-1.71142e-13 1.34145 0
-1.0994e-13 1.34145 0
7.88365e-16 1.32517 0
2.30597e-13 1.32517 0
-1.0994e-13 1.34145 0
1.35852e-13 1.34145 0
2.30597e-13 1.32517 0
-2.50168e-13 1.32517 0
3.26534e-13 1.32517 0
-6.21698e-13 1.32517 0
-3.30003e-13 1.30972 0
7.25127e-13 1.30972 0
-6.21698e-13 1.32517 0
5.5663e-14 1.32517 0
7.25127e-13 1.30972 0
-2.54344e-13 1.30972 0
1.99996e-13 1.30972 0
-4.81577e-13 1.30972 0
-1.77606e-13 1.29494 0
8.53385e-14 1.29494 0
-4.81577e-13 1.30972 0
2.30835e-15 1.30972 0
8.53385e-14 1.29494 0
7.04648e-14 1.29494 0
5.5663e-14 1.32517 0
3.49114e-13 1.32517 0
-2.54344e-13 1.30972 0
-5.34052e-13 1.30972 0
3.49114e-13 1.32517 0
-1.50138e-13 1.32517 0
-5.34052e-13 1.30972 0
1.2604e-13 1.30972 0
2.30835e-15 1.30972 0
-2.7165e-14 1.30972 0
7.04648e-14 1.29494 0
8.08592e-14 1.29494 0
-2.7165e-14 1.30972 0
3.24312e-13 1.30972 0
8.08592e-14 1.29494 0
-2.21145e-13 1.29494 0
0 1.29494 0
2.88518e-14 1.29494 0
0 1.28083 0
1.37719e-13 1.28083 0
2.88518e-14 1.29494 0
1.77414e-13 1.29494 0
1.37719e-13 1.28083 0
-3.57747e-13 1.28083 0
0 1.28083 0
2.51305e-13 1.28083 0
0 1.26735 0
-2.39256e-13 1.26735 0
2.51305e-13 1.28083 0
-4.72802e-13 1.28083 0
-2.39256e-13 1.26735 0
3.08594e-13 1.26735 0
1.77414e-13 1.29494 0
-4.29823e-13 1.29494 0
-3.57747e-13 1.28083 0
4.84957e-13 1.28083 0
-4.29823e-13 1.29494 0
2.55431e-13 1.29494 0
4.84957e-13 1.28083 0
-9.93588e-14 1.28083 0
-4.72802e-13 1.28083 0
4.90832e-13 1.28083 0
3.08594e-13 1.26735 0
-3.00929e-13 1.26735 0
4.90832e-13 1.28083 0
3.71181e-14 1.28083 0
-3.00929e-13 1.26735 0
-9.71626e-15 1.26735 0
0 1.26735 0
-6.09403e-14 1.26735 0
0 1.25448 0
-1.76429e-14 1.25448 0
-6.09403e-14 1.26735 0
1.69023e-13 1.26735 0
-1.76429e-14 1.25448 0
-1.73286e-14 1.25448 0
0 1.25448 0
-1.55326e-14 1.25448 0
0 1.24218 0
-7.37232e-14 1.24218 0
-1.55326e-14 1.25448 0
1.09596e-13 1.25448 0
-7.37232e-14 1.24218 0
-1.38999e-13 1.24218 0
1.69023e-13 1.26735 0
-2.71936e-13 1.26735 0
-1.73286e-14 1.25448 0
3.24631e-14 1.25448 0
-2.71936e-13 1.26735 0
-1.12451e-13 1.26735 0
3.24631e-14 1.25448 0
-4.99161e-14 1.25448 0
1.09596e-13 1.25448 0
-1.32714e-13 1.25448 0
-1.38999e-13 1.24218 0
1.44007e-13 1.24218 0
-1.32714e-13 1.25448 0
-4.62093e-15 1.25448 0
1.44007e-13 1.24218 0
8.74487e-14 1.24218 0
2.55431e-13 1.29494 0
1.59499e-13 1.29494 0
-9.93588e-14 1.28083 0
-1.87726e-13 1.28083 0
1.59499e-13 1.29494 0
-3.42163e-13 1.29494 0
-1.87726e-13 1.28083 0
3.50475e-13 1.28083 0
3.71181e-14 1.28083 0
-2.58438e-13 1.28083 0
-9.71626e-15 1.26735 0
2.57807e-13 1.26735 0
-2.58438e-13 1.28083 0
5.40221e-14 1.28083 0
2.57807e-13 1.26735 0
-1.45513e-14 1.26735 0
-3.42163e-13 1.29494 0
-8.16101e-14 1.29494 0
3.50475e-13 1.28083 0
-1.35019e-13 1.28083 0
-8.16101e-14 1.29494 0
4.8013e-14 1.29494 0
-1.35019e-13 1.28083 0
2.42332e-14 1.28083 0
5.40221e-14 1.28083 0
-5.99939e-14 1.28083 0
-1.45513e-14 1.26735 0
9.98461e-14 1.26735 0
-5.99939e-14 1.28083 0
9.33451e-14 1.28083 0
9.98461e-14 1.26735 0
-3.06648e-13 1.26735 0
-1.12451e-13 1.26735 0
1.37962e-13 1.26735 0
-4.99161e-14 1.25448 0
-1.40992e-13 1.25448 0
1.37962e-13 1.26735 0
4.5115e-14 1.26735 0
-1.40992e-13 1.25448 0
-5.79155e-14 1.25448 0
-4.62093e-15 1.25448 0
-1.28006e-13 1.25448 0
8.74487e-14 1.24218 0
1.42732e-13 1.24218 0
-1.28006e-13 1.25448 0
5.55316e-14 1.25448 0
1.42732e-13 1.24218 0
-2.21877e-13 1.24218 0
4.5115e-14 1.26735 0
1.54931e-13 1.26735 0
-5.79155e-14 1.25448 0
-1.25644e-13 1.25448 0
1.54931e-13 1.26735 0
-5.37942e-14 1.26735 0
-1.25644e-13 1.25448 0
-1.48689e-13 1.25448 0
5.55316e-14 1.25448 0
1.48029e-14 1.25448 0
-2.21877e-13 1.24218 0
-6.07205e-14 1.24218 0
1.48029e-14 1.25448 0
-2.75121e-13 1.25448 0
-6.07205e-14 1.24218 0
2.49845e-13 1.24218 0
0 1.24218 0
-1.71711e-13 1.24218 0
0 1.23044 0
4.6194e-14 1.23044 0
-1.71711e-13 1.24218 0
-3.02886e-13 1.24218 0
4.6194e-14 1.23044 0
2.69486e-13 1.23044 0
0 1.23044 0
-9.24584e-14 1.23044 0
0 1.21923 0
2.71326e-13 1.21923 0
-9.24584e-14 1.23044 0
2.9658e-13 1.23044 0
2.71326e-13 1.21923 0
-4.95757e-14 1.21923 0
-3.02886e-13 1.24218 0
2.02221e-13 1.24218 0
2.69486e-13 1.23044 0
-3.20418e-13 1.23044 0
2.02221e-13 1.24218 0
-4.96404e-15 1.24218 0
-3.20418e-13 1.23044 0
-4.52594e-15 1.23044 0
2.9658e-13 1.23044 0
-2.26161e-13 1.23044 0
-4.95757e-14 1.21923 0
6.95068e-14 1.21923 0
-2.26161e-13 1.23044 0
1.7357e-13 1.23044 0
6.95068e-14 1.21923 0
-9.20094e-14 1.21923 0
0 1.21923 0
2.28414e-13 1.21923 0
0 1.20852 0
-1.91039e-14 1.20852 0
2.28414e-13 1.21923 0
7.46517e-14 1.21923 0
-1.91039e-14 1.20852 0
-3.28896e-13 1.20852 0
0 1.20852 0
-2.75813e-14 1.20852 0
0 1.19829 0
-3.02194e-14 1.19829 0
-2.75813e-14 1.20852 0
-2.69146e-13 1.20852 0
-3.02194e-14 1.19829 0
2.56589e-13 1.19829 0
7.46517e-14 1.21923 0
-1.84897e-13 1.21923 0
-3.28896e-13 1.20852 0
2.20995e-13 1.20852 0
-1.84897e-13 1.21923 0
-5.91416e-14 1.21923 0
2.20995e-13 1.20852 0
6.78257e-14 1.20852 0
-2.69146e-13 1.20852 0
2.08996e-13 1.20852 0
2.56589e-13 1.19829 0
-2.21122e-13 1.19829 0
2.08996e-13 1.20852 0
-8.30403e-14 1.20852 0
-2.21122e-13 1.19829 0
-7.88269e-14 1.19829 0
-4.96404e-15 1.24218 0
9.76762e-14 1.24218 0
-4.52594e-15 1.23044 0
-1.26587e-13 1.23044 0
9.76762e-14 1.24218 0
-1.80635e-13 1.24218 0
-1.26587e-13 1.23044 0
3.46786e-13 1.23044 0
1.7357e-13 1.23044 0
-6.65491e-14 1.23044 0
-9.20094e-14 1.21923 0
5.7604e-14 1.21923 0
-6.65491e-14 1.23044 0
2.51075e-13 1.23044 0
5.7604e-14 1.21923 0
-1.04568e-13 1.21923 0
-1.80635e-13 1.24218 0
8.42854e-14 1.24218 0
3.46786e-13 1.23044 0
-2.44433e-13 1.23044 0
8.42854e-14 1.24218 0
-4.28839e-14 1.24218 0
-2.44433e-13 1.23044 0
-1.65366e-13 1.23044 0
2.51075e-13 1.23044 0
-1.30713e-13 1.23044 0
-1.04568e-13 1.21923 0
4.15484e-14 1.21923 0
-1.30713e-13 1.23044 0
-1.21197e-13 1.23044 0
4.15484e-14 1.21923 0
2.07071e-13 1.21923 0
-5.91416e-14 1.21923 0
3.57651e-14 1.21923 0
6.78257e-14 1.20852 0
-9.43008e-14 1.20852 0
3.57651e-14 1.21923 0
-2.12998e-13 1.21923 0
-9.43008e-14 1.20852 0
-1.29745e-13 1.20852 0
-8.30403e-14 1.20852 0
-5.38916e-15 1.20852 0
-7.88269e-14 1.19829 0
-2.48948e-13 1.19829 0
-5.38916e-15 1.20852 0
-5.31109e-14 1.20852 0
-2.48948e-13 1.19829 0
-1.57787e-13 1.19829 0
-2.12998e-13 1.21923 0
-8.68064e-14 1.21923 0
-1.29745e-13 1.20852 0
-1.48202e-13 1.20852 0
-8.68064e-14 1.21923 0
3.78229e-13 1.21923 0
-1.48202e-13 1.20852 0
-2.41017e-13 1.20852 0
-5.31109e-14 1.20852 0
-7.05654e-14 1.20852 0
-1.57787e-13 1.19829 0
5.29024e-14 1.19829 0
-7.05654e-14 1.20852 0
-4.50443e-14 1.20852 0
5.29024e-14 1.19829 0
1.5299e-13 1.19829 0
4.8013e-14 1.29494 0
-9.27744e-14 1.29494 0
2.42332e-14 1.28083 0
-1.71619e-13 1.28083 0
-9.27744e-14 1.29494 0
2.05992e-13 1.29494 0
-1.71619e-13 1.28083 0
-3.53461e-13 1.28083 0
9.33451e-14 1.28083 0
-6.83476e-14 1.28083 0
-3.06648e-13 1.26735 0
1.81998e-13 1.26735 0
-6.83476e-14 1.28083 0
-5.11504e-13 1.28083 0
1.81998e-13 1.26735 0
2.54202e-13 1.26735 0
2.05992e-13 1.29494 0
-2.82712e-13 1.29494 0
-3.53461e-13 1.28083 0
1.27181e-13 1.28083 0
-2.82712e-13 1.29494 0
-3.14224e-13 1.29494 0
1.27181e-13 1.28083 0
2.61649e-13 1.28083 0
-5.11504e-13 1.28083 0
2.79906e-13 1.28083 0
2.54202e-13 1.26735 0
-4.31079e-13 1.26735 0
2.79906e-13 1.28083 0
1.37219e-13 1.28083 0
-4.31079e-13 1.26735 0
-2.60369e-13 1.26735 0
-5.37942e-14 1.26735 0
-3.04841e-14 1.26735 0
-1.48689e-13 1.25448 0
-1.06576e-13 1.25448 0
-3.04841e-14 1.26735 0
-1.73452e-13 1.26735 0
-1.06576e-13 1.25448 0
2.03593e-14 1.25448 0
-2.75121e-13 1.25448 0
-3.10368e-13 1.25448 0
2.49845e-13 1.24218 0
3.34475e-13 1.24218 0
-3.10368e-13 1.25448 0
2.84726e-13 1.25448 0
3.34475e-13 1.24218 0
-3.28682e-13 1.24218 0
-1.73452e-13 1.26735 0
-1.42034e-13 1.26735 0
2.03593e-14 1.25448 0
1.837e-13 1.25448 0
-1.42034e-13 1.26735 0
5.44169e-14 1.26735 0
1.837e-13 1.25448 0
1.46352e-14 1.25448 0
2.84726e-13 1.25448 0
5.02224e-14 1.25448 0
-3.28682e-13 1.24218 0
-1.07395e-13 1.24218 0
5.02224e-14 1.25448 0
-1.09096e-13 1.25448 0
-1.07395e-13 1.24218 0
-2.18514e-14 1.24218 0
-3.14224e-13 1.29494 0
3.46739e-13 1.29494 0
2.61649e-13 1.28083 0
-4.89346e-13 1.28083 0
3.46739e-13 1.29494 0
-2.34743e-13 1.29494 0
-4.89346e-13 1.28083 0
6.01809e-14 1.28083 0
1.37219e-13 1.28083 0
1.05336e-13 1.28083 0
-2.60369e-13 1.26735 0
8.19091e-15 1.26735 0
1.05336e-13 1.28083 0
-4.06286e-13 1.28083 0
8.19091e-15 1.26735 0
1.92342e-13 1.26735 0
-2.34743e-13 1.29494 0
-1.89924e-13 1.29494 0
6.01809e-14 1.28083 0
-3.13489e-14 1.28083 0
-1.89924e-13 1.29494 0
1.94056e-13 1.29494 0
-3.13489e-14 1.28083 0
-2.66331e-13 1.28083 0
-4.06286e-13 1.28083 0
-6.77946e-14 1.28083 0
1.92342e-13 1.26735 0
-1.34767e-13 1.26735 0
-6.77946e-14 1.28083 0
-7.51971e-14 1.28083 0
-1.34767e-13 1.26735 0
-4.63813e-14 1.26735 0
5.44169e-14 1.26735 0
-1.47318e-13 1.26735 0
1.46352e-14 1.25448 0
2.97858e-13 1.25448 0
-1.47318e-13 1.26735 0
3.55884e-13 1.26735 0
2.97858e-13 1.25448 0
-5.79856e-13 1.25448 0
-1.09096e-13 1.25448 0
-2.32247e-13 1.25448 0
-2.18514e-14 1.24218 0
7.73812e-14 1.24218 0
-2.32247e-13 1.25448 0
8.33841e-14 1.25448 0
7.73812e-14 1.24218 0
6.32273e-14 1.24218 0
3.55884e-13 1.26735 0
-9.08017e-15 1.26735 0
-5.79856e-13 1.25448 0
1.33912e-13 1.25448 0
-9.08017e-15 1.26735 0
-3.02327e-13 1.26735 0
1.33912e-13 1.25448 0
7.90643e-14 1.25448 0
8.33841e-14 1.25448 0
5.83725e-14 1.25448 0
6.32273e-14 1.24218 0
-4.50252e-13 1.24218 0
5.83725e-14 1.25448 0
-2.35442e-14 1.25448 0
-4.50252e-13 1.24218 0
1.16959e-13 1.24218 0
-4.28839e-14 1.24218 0
6.54574e-14 1.24218 0
-1.65366e-13 1.23044 0
-9.16372e-15 1.23044 0
6.54574e-14 1.24218 0
-3.09753e-13 1.24218 0
-9.16372e-15 1.23044 0
6.3047e-14 1.23044 0
-1.21197e-13 1.23044 0
3.82791e-14 1.23044 0
2.07071e-13 1.21923 0
-1.44649e-13 1.21923 0
3.82791e-14 1.23044 0
-2.08073e-14 1.23044 0
-1.44649e-13 1.21923 0
-1.44609e-13 1.21923 0