# vtk DataFile Version 3.0
#This file was generated by the deal.II library on 2018/10/15 at 14:33:09
ASCII
DATASET UNSTRUCTURED_GRID

POINTS 20480 double
0 0 0
0.19635 0 0
0 0.301364 0
0.19635 0.301364 0
0.19635 0 0
0.392699 0 0
0.19635 0.301364 0
0.392699 0.301364 0
0 0.301364 0
0.19635 0.301364 0
0 0.613338 0
0.19635 0.613338 0
0.19635 0.301364 0
0.392699 0.301364 0
0.19635 0.613338 0
0.392699 0.613338 0
0.392699 0 0
0.589049 0 0
0.392699 0.301364 0
0.589049 0.301364 0
0.589049 0 0
0.785398 0 0
0.589049 0.301364 0
0.785398 0.301364 0
0.392699 0.301364 0
0.589049 0.301364 0
0.392699 0.613338 0
0.589049 0.613338 0
0.589049 0.301364 0
0.785398 0.301364 0
0.589049 0.613338 0
0.785398 0.613338 0
0 0.613338 0
0.19635 0.613338 0
0 0.926161 0
0.19635 0.926161 0
0.19635 0.613338 0
0.392699 0.613338 0
0.19635 0.926161 0
0.392699 0.926161 0
0 0.926161 0
0.19635 0.926161 0
0 1.2392 0
0.19635 1.2392 0
0.19635 0.926161 0
0.392699 0.926161 0
0.19635 1.2392 0
0.392699 1.2392 0
0.392699 0.613338 0
0.589049 0.613338 0
0.392699 0.926161 0
0.589049 0.926161 0
0.589049 0.613338 0
0.785398 0.613338 0
0.589049 0.926161 0
0.785398 0.926161 0
0.392699 0.926161 0
0.589049 0.926161 0
0.392699 1.2392 0
0.589049 1.2392 0
0.589049 0.926161 0
0.785398 0.926161 0
0.589049 1.2392 0
0.785398 1.2392 0
0.785398 0 0
0.981748 0 0
0.785398 0.301364 0
0.981748 0.301364 0
0.981748 0 0
1.1781 0 0
0.981748 0.301364 0
1.1781 0.301364 0
0.785398 0.301364 0
0.981748 0.301364 0
0.785398 0.613338 0
0.981748 0.613338 0
0.981748 0.301364 0
1.1781 0.301364 0
0.981748 0.613338 0
1.1781 0.613338 0
1.1781 0 0
1.37445 0 0
1.1781 0.301364 0
1.37445 0.301364 0
1.37445 0 0
1.5708 0 0
1.37445 0.301364 0
1.5708 0.301364 0
1.1781 0.301364 0
1.37445 0.301364 0
1.1781 0.613338 0
1.37445 0.613338 0
1.37445 0.301364 0
1.5708 0.301364 0
1.37445 0.613338 0
1.5708 0.613338 0
0.785398 0.613338 0
0.981748 0.613338 0
0.785398 0.926161 0
0.981748 0.926161 0
0.981748 0.613338 0
1.1781 0.613338 0
0.981748 0.926161 0
1.1781 0.926161 0
0.785398 0.926161 0
0.981748 0.926161 0
0.785398 1.2392 0
0.981748 1.2392 0
0.981748 0.926161 0
1.1781 0.926161 0
0.981748 1.2392 0
1.1781 1.2392 0
1.1781 0.613338 0
1.37445 0.613338 0
1.1781 0.926161 0
1.37445 0.926161 0
1.37445 0.613338 0
1.5708 0.613338 0
1.37445 0.926161 0
1.5708 0.926161 0
1.1781 0.926161 0
1.37445 0.926161 0
1.1781 1.2392 0
1.37445 1.2392 0
1.37445 0.926161 0
1.5708 0.926161 0
1.37445 1.2392 0
1.5708 1.2392 0
0 1.2392 0
0.19635 1.2392 0
0 1.55222 0
0.19635 1.55222 0
0.19635 1.2392 0
0.392699 1.2392 0
0.19635 1.55222 0
0.392699 1.55222 0
0 1.55222 0
0.19635 1.55222 0
0 1.86522 0
0.19635 1.86522 0
0.19635 1.55222 0
0.392699 1.55222 0
0.19635 1.86522 0
0.392699 1.86522 0
0.392699 1.2392 0
0.589049 1.2392 0
0.392699 1.55222 0
0.589049 1.55222 0
0.589049 1.2392 0
0.785398 1.2392 0
0.589049 1.55222 0
0.785398 1.55222 0
0.392699 1.55222 0
0.589049 1.55222 0
0.392699 1.86522 0
0.589049 1.86522 0
0.589049 1.55222 0
0.785398 1.55222 0
0.589049 1.86522 0
0.785398 1.86522 0
0 1.86522 0
0.19635 1.86522 0
0 2.17821 0
0.19635 2.17821 0
0.19635 1.86522 0
0.392699 1.86522 0
0.19635 2.17821 0
0.392699 2.17821 0
0 2.17821 0
0.19635 2.17821 0
0 2.49119 0
0.19635 2.49119 0
0.19635 2.17821 0
0.392699 2.17821 0
0.19635 2.49119 0
0.392699 2.49119 0
0.392699 1.86522 0
0.589049 1.86522 0
0.392699 2.17821 0
0.589049 2.17821 0
0.589049 1.86522 0
0.785398 1.86522 0
0.589049 2.17821 0
0.785398 2.17821 0
0.392699 2.17821 0
0.589049 2.17821 0
0.392699 2.49119 0
0.589049 2.49119 0
0.589049 2.17821 0
0.785398 2.17821 0
0.589049 2.49119 0
0.785398 2.49119 0
0.785398 1.2392 0
0.981748 1.2392 0
0.785398 1.55222 0
0.981748 1.55222 0
0.981748 1.2392 0
1.1781 1.2392 0
0.981748 1.55222 0
1.1781 1.55222 0
0.785398 1.55222 0
0.981748 1.55222 0
0.785398 1.86522 0
0.981748 1.86522 0
0.981748 1.55222 0
1.1781 1.55222 0
0.981748 1.86522 0
1.1781 1.86522 0
1.1781 1.2392 0
1.37445 1.2392 0
1.1781 1.55222 0
1.37445 1.55222 0
1.37445 1.2392 0
1.5708 1.2392 0
1.37445 1.55222 0
1.5708 1.55222 0
1.1781 1.55222 0
1.37445 1.55222 0
1.1781 1.86522 0
1.37445 1.86522 0
1.37445 1.55222 0
1.5708 1.55222 0
1.37445 1.86522 0
1.5708 1.86522 0
0.785398 1.86522 0
0.981748 1.86522 0
0.785398 2.17821 0
0.981748 2.17821 0
0.981748 1.86522 0
1.1781 1.86522 0
0.981748 2.17821 0
1.1781 2.17821 0
0.785398 2.17821 0
0.981748 2.17821 0
0.785398 2.49119 0
0.981748 2.49119 0
0.981748 2.17821 0
1.1781 2.17821 0
0.981748 2.49119 0
1.1781 2.49119 0
1.1781 1.86522 0
1.37445 1.86522 0
1.1781 2.17821 0
1.37445 2.17821 0
1.37445 1.86522 0
1.5708 1.86522 0
1.37445 2.17821 0
1.5708 2.17821 0
1.1781 2.17821 0
1.37445 2.17821 0
1.1781 2.49119 0
1.37445 2.49119 0
1.37445 2.17821 0
1.5708 2.17821 0
1.37445 2.49119 0
1.5708 2.49119 0
1.5708 0 0
1.76715 0 0
1.5708 0.301364 0
1.76715 0.301364 0
1.76715 0 0
1.9635 0 0
1.76715 0.301364 0
1.9635 0.301364 0
1.5708 0.301364 0
1.76715 0.301364 0
1.5708 0.613338 0
1.76715 0.613338 0
1.76715 0.301364 0
1.9635 0.301364 0
1.76715 0.613338 0
1.9635 0.613338 0
1.9635 0 0
2.15984 0 0
1.9635 0.301364 0
2.15984 0.301364 0
2.15984 0 0
2.35619 0 0
2.15984 0.301364 0
2.35619 0.301364 0
1.9635 0.301364 0
2.15984 0.301364 0
1.9635 0.613338 0
2.15984 0.613338 0
2.15984 0.301364 0
2.35619 0.301364 0
2.15984 0.613338 0
2.35619 0.613338 0
1.5708 0.613338 0
1.76715 0.613338 0
1.5708 0.926161 0
1.76715 0.926161 0
1.76715 0.613338 0
1.9635 0.613338 0
1.76715 0.926161 0
1.9635 0.926161 0
1.5708 0.926161 0
1.76715 0.926161 0
1.5708 1.2392 0
1.76715 1.2392 0
1.76715 0.926161 0
1.9635 0.926161 0
1.76715 1.2392 0
1.9635 1.2392 0
1.9635 0.613338 0
2.15984 0.613338 0
1.9635 0.926161 0
2.15984 0.926161 0
2.15984 0.613338 0
2.35619 0.613338 0
2.15984 0.926161 0
2.35619 0.926161 0
1.9635 0.926161 0
2.15984 0.926161 0
1.9635 1.2392 0
2.15984 1.2392 0
2.15984 0.926161 0
2.35619 0.926161 0
2.15984 1.2392 0
2.35619 1.2392 0
2.35619 0 0
2.55254 0 0
2.35619 0.301364 0
2.55254 0.301364 0
2.55254 0 0
2.74889 0 0
2.55254 0.301364 0
2.74889 0.301364 0
2.35619 0.301364 0
2.55254 0.301364 0
2.35619 0.613338 0
2.55254 0.613338 0
2.55254 0.301364 0
2.74889 0.301364 0
2.55254 0.613338 0
2.74889 0.613338 0
2.74889 0 0
2.94524 0 0
2.74889 0.301364 0
2.94524 0.301364 0
2.94524 0 0
3.14159 0 0
2.94524 0.301364 0
3.14159 0.301364 0
2.74889 0.301364 0
2.94524 0.301364 0
2.74889 0.613338 0
2.94524 0.613338 0
2.94524 0.301364 0
3.14159 0.301364 0
2.94524 0.613338 0
3.14159 0.613338 0
2.35619 0.613338 0
2.55254 0.613338 0
2.35619 0.926161 0
2.55254 0.926161 0
2.55254 0.613338 0
2.74889 0.613338 0
2.55254 0.926161 0
2.74889 0.926161 0
2.35619 0.926161 0
2.55254 0.926161 0
2.35619 1.2392 0
2.55254 1.2392 0
2.55254 0.926161 0
2.74889 0.926161 0
2.55254 1.2392 0
2.74889 1.2392 0
2.74889 0.613338 0
2.94524 0.613338 0
2.74889 0.926161 0
2.94524 0.926161 0
2.94524 0.613338 0
3.14159 0.613338 0
2.94524 0.926161 0
3.14159 0.926161 0
2.74889 0.926161 0
2.94524 0.926161 0
2.74889 1.2392 0
2.94524 1.2392 0
2.94524 0.926161 0
3.14159 0.926161 0
2.94524 1.2392 0
3.14159 1.2392 0
1.5708 1.2392 0
1.76715 1.2392 0
1.5708 1.55222 0
1.76715 1.55222 0
1.76715 1.2392 0
1.9635 1.2392 0
1.76715 1.55222 0
1.9635 1.55222 0
1.5708 1.55222 0
1.76715 1.55222 0
1.5708 1.86522 0
1.76715 1.86522 0
1.76715 1.55222 0
1.9635 1.55222 0
1.76715 1.86522 0
1.9635 1.86522 0
1.9635 1.2392 0
2.15984 1.2392 0
1.9635 1.55222 0
2.15984 1.55222 0
2.15984 1.2392 0
2.35619 1.2392 0
2.15984 1.55222 0
2.35619 1.55222 0
1.9635 1.55222 0
2.15984 1.55222 0
1.9635 1.86522 0
2.15984 1.86522 0
2.15984 1.55222 0
2.35619 1.55222 0
2.15984 1.86522 0
2.35619 1.86522 0
1.5708 1.86522 0
1.76715 1.86522 0
1.5708 2.17821 0
1.76715 2.17821 0
1.76715 1.86522 0
1.9635 1.86522 0
1.76715 2.17821 0
1.9635 2.17821 0
1.5708 2.17821 0
1.76715 2.17821 0
1.5708 2.49119 0
1.76715 2.49119 0
1.76715 2.17821 0
1.9635 2.17821 0
1.76715 2.49119 0
1.9635 2.49119 0
1.9635 1.86522 0
2.15984 1.86522 0
1.9635 2.17821 0
2.15984 2.17821 0
2.15984 1.86522 0
2.35619 1.86522 0
2.15984 2.17821 0
2.35619 2.17821 0
1.9635 2.17821 0
2.15984 2.17821 0
1.9635 2.49119 0
2.15984 2.49119 0
2.15984 2.17821 0
2.35619 2.17821 0
2.15984 2.49119 0
2.35619 2.49119 0
2.35619 1.2392 0
2.55254 1.2392 0
2.35619 1.55222 0
2.55254 1.55222 0
2.55254 1.2392 0
2.74889 1.2392 0
2.55254 1.55222 0
2.74889 1.55222 0
2.35619 1.55222 0
2.55254 1.55222 0
2.35619 1.86522 0
2.55254 1.86522 0
2.55254 1.55222 0
2.74889 1.55222 0
2.55254 1.86522 0
2.74889 1.86522 0
2.74889 1.2392 0
2.94524 1.2392 0
2.74889 1.55222 0
2.94524 1.55222 0
2.94524 1.2392 0
3.14159 1.2392 0
2.94524 1.55222 0
3.14159 1.55222 0
2.74889 1.55222 0
2.94524 1.55222 0
2.74889 1.86522 0
2.94524 1.86522 0
2.94524 1.55222 0
3.14159 1.55222 0
2.94524 1.86522 0
3.14159 1.86522 0
2.35619 1.86522 0
2.55254 1.86522 0
2.35619 2.17821 0
2.55254 2.17821 0
2.55254 1.86522 0
2.74889 1.86522 0
2.55254 2.17821 0
2.74889 2.17821 0
2.35619 2.17821 0
2.55254 2.17821 0
2.35619 2.49119 0
2.55254 2.49119 0
2.55254 2.17821 0
2.74889 2.17821 0
2.55254 2.49119 0
2.74889 2.49119 0
2.74889 1.86522 0
2.94524 1.86522 0
2.74889 2.17821 0
2.94524 2.17821 0
2.94524 1.86522 0
3.14159 1.86522 0
2.94524 2.17821 0
3.14159 2.17821 0
2.74889 2.17821 0
2.94524 2.17821 0
2.74889 2.49119 0
2.94524 2.49119 0
2.94524 2.17821 0
3.14159 2.17821 0
2.94524 2.49119 0
3.14159 2.49119 0
0 2.49119 0
0.19635 2.49119 0
0 2.80415 0
0.19635 2.80415 0
0.19635 2.49119 0
0.392699 2.49119 0
0.19635 2.80415 0
0.392699 2.80415 0
0 2.80415 0
0.19635 2.80415 0
0 3.11709 0
0.19635 3.11709 0
0.19635 2.80415 0
0.392699 2.80415 0
0.19635 3.11709 0
0.392699 3.11709 0
0.392699 2.49119 0
0.589049 2.49119 0
0.392699 2.80415 0
0.589049 2.80415 0
0.589049 2.49119 0
0.785398 2.49119 0
0.589049 2.80415 0
0.785398 2.80415 0
0.392699 2.80415 0
0.589049 2.80415 0
0.392699 3.11709 0
0.589049 3.11709 0
0.589049 2.80415 0
0.785398 2.80415 0
0.589049 3.11709 0
0.785398 3.11709 0
0 3.11709 0
0.19635 3.11709 0
0 3.43002 0
0.19635 3.43002 0
0.19635 3.11709 0
0.392699 3.11709 0
0.19635 3.43002 0
0.392699 3.43002 0
0 3.43002 0
0.19635 3.43002 0
0 3.74294 0
[...]
POINT_DATA 20480
VECTORS uf double
0 1 0
-2.01754e-13 1 0
0 1.49048 0
3.04357e-13 1.49048 0
-2.01754e-13 1 0
-4.02386e-14 1 0
3.04357e-13 1.49048 0
8.14488e-14 1.49048 0
0 1.49048 0
2.35751e-13 1.49048 0
0 1.457 0
-2.81354e-14 1.457 0
2.35751e-13 1.49048 0
-1.27318e-13 1.49048 0
-2.81354e-14 1.457 0
1.9206e-13 1.457 0
-4.02386e-14 1 0
1.23313e-13 1 0
8.14488e-14 1.49048 0
-2.33622e-13 1.49048 0
1.23313e-13 1 0
-1.76898e-13 1 0
-2.33622e-13 1.49048 0
3.11325e-13 1.49048 0
-1.27318e-13 1.49048 0
-5.46217e-13 1.49048 0
1.9206e-13 1.457 0
5.98863e-13 1.457 0
-5.46217e-13 1.49048 0
1.97439e-13 1.49048 0
5.98863e-13 1.457 0
1.17384e-13 1.457 0
0 1.457 0
2.41183e-13 1.457 0
0 1.44174 0
-2.35541e-13 1.44174 0
2.41183e-13 1.457 0
1.73369e-13 1.457 0
-2.35541e-13 1.44174 0
-1.6671e-13 1.44174 0
0 1.44174 0
-1.56321e-13 1.44174 0
0 1.41821 0
1.03134e-14 1.41821 0
-1.56321e-13 1.44174 0
-6.0736e-14 1.44174 0
1.03134e-14 1.41821 0
2.57438e-13 1.41821 0
1.73369e-13 1.457 0
5.34139e-13 1.457 0
-1.6671e-13 1.44174 0
-2.88006e-13 1.44174 0
5.34139e-13 1.457 0
3.1675e-14 1.457 0
-2.88006e-13 1.44174 0
1.92028e-13 1.44174 0
-6.0736e-14 1.44174 0
1.91052e-13 1.44174 0
2.57438e-13 1.41821 0
-4.52863e-13 1.41821 0
1.91052e-13 1.44174 0
2.77372e-13 1.44174 0
-4.52863e-13 1.41821 0
1.39057e-13 1.41821 0
-1.76898e-13 1 0
-2.36572e-13 1 0
3.11325e-13 1.49048 0
3.05955e-13 1.49048 0
-2.36572e-13 1 0
9.03794e-14 1 0
3.05955e-13 1.49048 0
-1.74648e-13 1.49048 0
1.97439e-13 1.49048 0
5.85156e-13 1.49048 0
1.17384e-13 1.457 0
-4.73428e-13 1.457 0
5.85156e-13 1.49048 0
4.41624e-13 1.49048 0
-4.73428e-13 1.457 0
-5.38806e-13 1.457 0
9.03794e-14 1 0
6.93678e-13 1 0
-1.74648e-13 1.49048 0
-1.14188e-12 1.49048 0
6.93678e-13 1 0
3.99365e-13 1 0
-1.14188e-12 1.49048 0
-6.75956e-13 1.49048 0
4.41624e-13 1.49048 0
-1.21657e-12 1.49048 0
-5.38806e-13 1.457 0
3.46056e-13 1.457 0
-1.21657e-12 1.49048 0
-4.85638e-13 1.49048 0
3.46056e-13 1.457 0
2.59171e-13 1.457 0
3.1675e-14 1.457 0
-3.98818e-13 1.457 0
1.92028e-13 1.44174 0
2.287e-13 1.44174 0
-3.98818e-13 1.457 0
-3.47102e-13 1.457 0
2.287e-13 1.44174 0
8.90312e-14 1.44174 0
2.77372e-13 1.44174 0
7.66614e-14 1.44174 0
1.39057e-13 1.41821 0
-1.57084e-13 1.41821 0
7.66614e-14 1.44174 0
-2.74666e-13 1.44174 0
-1.57084e-13 1.41821 0
1.36276e-13 1.41821 0
-3.47102e-13 1.457 0
-2.52698e-13 1.457 0
8.90312e-14 1.44174 0
1.36086e-14 1.44174 0
-2.52698e-13 1.457 0
1.23848e-13 1.457 0
1.36086e-14 1.44174 0
-3.35733e-13 1.44174 0
-2.74666e-13 1.44174 0
-1.25705e-13 1.44174 0
1.36276e-13 1.41821 0
1.91649e-14 1.41821 0
-1.25705e-13 1.44174 0
2.67071e-14 1.44174 0
1.91649e-14 1.41821 0
-2.29911e-13 1.41821 0
0 1.41821 0
-7.1303e-14 1.41821 0
0 1.39819 0
1.84442e-13 1.39819 0
-7.1303e-14 1.41821 0
4.6966e-13 1.41821 0
1.84442e-13 1.39819 0
-5.43718e-13 1.39819 0
0 1.39819 0
2.79249e-13 1.39819 0
0 1.37845 0
-2.57554e-13 1.37845 0
2.79249e-13 1.39819 0
-4.36619e-13 1.39819 0
-2.57554e-13 1.37845 0
1.70302e-13 1.37845 0
4.6966e-13 1.41821 0
-4.10148e-13 1.41821 0
-5.43718e-13 1.39819 0
3.57889e-13 1.39819 0
-4.10148e-13 1.41821 0
7.37318e-14 1.41821 0
3.57889e-13 1.39819 0
1.39255e-13 1.39819 0
-4.36619e-13 1.39819 0
1.80558e-13 1.39819 0
1.70302e-13 1.37845 0
-1.13944e-13 1.37845 0
1.80558e-13 1.39819 0
6.97654e-14 1.39819 0
-1.13944e-13 1.37845 0
1.7494e-13 1.37845 0
0 1.37845 0
-1.83391e-13 1.37845 0
0 1.3599 0
-3.38633e-14 1.3599 0
-1.83391e-13 1.37845 0
-2.32836e-14 1.37845 0
-3.38633e-14 1.3599 0
-1.15535e-14 1.3599 0
0 1.3599 0
-1.66255e-13 1.3599 0
0 1.34223 0
6.91926e-14 1.34223 0
-1.66255e-13 1.3599 0
-4.88796e-14 1.3599 0
6.91926e-14 1.34223 0
1.55658e-13 1.34223 0
-2.32836e-14 1.37845 0
1.22286e-14 1.37845 0
-1.15535e-14 1.3599 0
-1.75773e-14 1.3599 0
1.22286e-14 1.37845 0
3.41806e-13 1.37845 0
-1.75773e-14 1.3599 0
-2.29723e-13 1.3599 0
-4.88796e-14 1.3599 0
9.01765e-14 1.3599 0
1.55658e-13 1.34223 0
-3.83033e-13 1.34223 0
9.01765e-14 1.3599 0
-2.5622e-13 1.3599 0
-3.83033e-13 1.34223 0
2.4344e-13 1.34223 0
7.37318e-14 1.41821 0
2.71283e-14 1.41821 0
1.39255e-13 1.39819 0
-1.68444e-13 1.39819 0
2.71283e-14 1.41821 0
6.10871e-14 1.41821 0
-1.68444e-13 1.39819 0
-9.19933e-14 1.39819 0
6.97654e-14 1.39819 0
-2.6071e-13 1.39819 0
1.7494e-13 1.37845 0
2.0239e-13 1.37845 0
-2.6071e-13 1.39819 0
6.30463e-14 1.39819 0
2.0239e-13 1.37845 0
-2.17357e-13 1.37845 0
6.10871e-14 1.41821 0
-3.49103e-13 1.41821 0
-9.19933e-14 1.39819 0
1.71673e-13 1.39819 0
-3.49103e-13 1.41821 0
-3.62002e-13 1.41821 0
1.71673e-13 1.39819 0
2.49731e-13 1.39819 0
6.30463e-14 1.39819 0
2.37084e-14 1.39819 0
-2.17357e-13 1.37845 0
3.02106e-14 1.37845 0
2.37084e-14 1.39819 0
2.21992e-13 1.39819 0
3.02106e-14 1.37845 0
-3.52151e-13 1.37845 0
3.41806e-13 1.37845 0
1.16074e-13 1.37845 0
-2.29723e-13 1.3599 0
-1.92738e-13 1.3599 0
1.16074e-13 1.37845 0
-2.25859e-13 1.37845 0
-1.92738e-13 1.3599 0
3.39097e-15 1.3599 0
-2.5622e-13 1.3599 0
-1.86619e-13 1.3599 0
2.4344e-13 1.34223 0
3.50185e-13 1.34223 0
-1.86619e-13 1.3599 0
-4.94529e-14 1.3599 0
3.50185e-13 1.34223 0
-2.00438e-13 1.34223 0
-2.25859e-13 1.37845 0
-4.37026e-13 1.37845 0
3.39097e-15 1.3599 0
4.88299e-13 1.3599 0
-4.37026e-13 1.37845 0
8.27638e-14 1.37845 0
4.88299e-13 1.3599 0
4.09369e-14 1.3599 0
-4.94529e-14 1.3599 0
2.07077e-13 1.3599 0
-2.00438e-13 1.34223 0
-2.07455e-13 1.34223 0
2.07077e-13 1.3599 0
3.1361e-13 1.3599 0
-2.07455e-13 1.34223 0
-9.70298e-14 1.34223 0
3.99365e-13 1 0
-3.31542e-13 1 0
-6.75956e-13 1.49048 0
6.47589e-13 1.49048 0
-3.31542e-13 1 0
-2.1332e-13 1 0
6.47589e-13 1.49048 0
2.87844e-13 1.49048 0
-4.85638e-13 1.49048 0
7.6817e-13 1.49048 0
2.59171e-13 1.457 0
-4.63274e-13 1.457 0
7.6817e-13 1.49048 0
3.98625e-13 1.49048 0
-4.63274e-13 1.457 0
-3.68731e-13 1.457 0
-2.1332e-13 1 0
-2.42021e-13 1 0
2.87844e-13 1.49048 0
2.30049e-13 1.49048 0
-2.42021e-13 1 0
3.14909e-13 1 0
2.30049e-13 1.49048 0
1.14406e-14 1.49048 0
3.98625e-13 1.49048 0
-3.07289e-13 1.49048 0
-3.68731e-13 1.457 0
3.60363e-13 1.457 0
-3.07289e-13 1.49048 0
4.0047e-13 1.49048 0
3.60363e-13 1.457 0
-3.24032e-13 1.457 0
1.23848e-13 1.457 0
-2.03446e-13 1.457 0
-3.35733e-13 1.44174 0
1.4379e-13 1.44174 0
-2.03446e-13 1.457 0
-1.32068e-14 1.457 0
1.4379e-13 1.44174 0
1.0994e-13 1.44174 0
2.67071e-14 1.44174 0
-1.05598e-13 1.44174 0
-2.29911e-13 1.41821 0
1.89358e-13 1.41821 0
-1.05598e-13 1.44174 0
1.11114e-14 1.44174 0
1.89358e-13 1.41821 0
-2.72779e-13 1.41821 0
-1.32068e-14 1.457 0
3.64634e-13 1.457 0
1.0994e-13 1.44174 0
-2.37879e-13 1.44174 0
3.64634e-13 1.457 0
-4.91717e-13 1.457 0
-2.37879e-13 1.44174 0
3.32544e-13 1.44174 0
1.11114e-14 1.44174 0
-4.6408e-13 1.44174 0
-2.72779e-13 1.41821 0
5.80714e-13 1.41821 0
-4.6408e-13 1.44174 0
-2.7106e-14 1.44174 0
5.80714e-13 1.41821 0
9.11453e-14 1.41821 0
3.14909e-13 1 0
1.74019e-13 1 0
1.14406e-14 1.49048 0
-2.10149e-13 1.49048 0
1.74019e-13 1 0
-9.06853e-14 1 0
-2.10149e-13 1.49048 0
-5.46648e-15 1.49048 0
4.0047e-13 1.49048 0
-2.25122e-13 1.49048 0
-3.24032e-13 1.457 0
2.12256e-13 1.457 0
-2.25122e-13 1.49048 0
-2.65911e-13 1.49048 0
2.12256e-13 1.457 0
1.80452e-13 1.457 0
-9.06853e-14 1 0
-1.90502e-13 1 0
-5.46648e-15 1.49048 0
2.26272e-13 1.49048 0
-1.90502e-13 1 0
1.36282e-13 1 0
2.26272e-13 1.49048 0
-1.03792e-13 1.49048 0
-2.65911e-13 1.49048 0
1.73375e-13 1.49048 0
1.80452e-13 1.457 0
-4.98517e-14 1.457 0
1.73375e-13 1.49048 0
3.86054e-13 1.49048 0
-4.98517e-14 1.457 0
-9.24109e-14 1.457 0
-4.91717e-13 1.457 0
-1.23397e-14 1.457 0
3.32544e-13 1.44174 0
3.18032e-14 1.44174 0
-1.23397e-14 1.457 0
-2.63544e-13 1.457 0
3.18032e-14 1.44174 0
2.74218e-13 1.44174 0
-2.7106e-14 1.44174 0
6.5903e-13 1.44174 0
9.11453e-14 1.41821 0
-5.54619e-13 1.41821 0
6.5903e-13 1.44174 0
9.5783e-15 1.44174 0
-5.54619e-13 1.41821 0
2.29114e-13 1.41821 0
-2.63544e-13 1.457 0
4.21655e-14 1.457 0
2.74218e-13 1.44174 0
-4.28098e-14 1.44174 0
4.21655e-14 1.457 0
1.88806e-13 1.457 0
-4.28098e-14 1.44174 0
-1.8907e-13 1.44174 0
9.5783e-15 1.44174 0
-2.36034e-13 1.44174 0
2.29114e-13 1.41821 0
-3.00451e-13 1.41821 0
-2.36034e-13 1.44174 0
1.77572e-13 1.44174 0
-3.00451e-13 1.41821 0
1.30511e-13 1.41821 0
-3.62002e-13 1.41821 0
5.63222e-13 1.41821 0
2.49731e-13 1.39819 0
-5.91142e-13 1.39819 0
5.63222e-13 1.41821 0
-1.41817e-13 1.41821 0
-5.91142e-13 1.39819 0
1.81802e-13 1.39819 0
2.21992e-13 1.39819 0
-1.09062e-13 1.39819 0
-3.52151e-13 1.37845 0
3.58895e-13 1.37845 0
-1.09062e-13 1.39819 0
-1.75879e-13 1.39819 0
3.58895e-13 1.37845 0
7.23126e-14 1.37845 0
-1.41817e-13 1.41821 0
-6.66608e-14 1.41821 0
1.81802e-13 1.39819 0
-1.67875e-13 1.39819 0
-6.66608e-14 1.41821 0
-6.34374e-14 1.41821 0
-1.67875e-13 1.39819 0
-9.45124e-14 1.39819 0
-1.75879e-13 1.39819 0
7.00092e-14 1.39819 0
7.23126e-14 1.37845 0
-1.42256e-13 1.37845 0
7.00092e-14 1.39819 0
-2.62868e-13 1.39819 0
-1.42256e-13 1.37845 0
4.85032e-14 1.37845 0
8.27638e-14 1.37845 0
2.29364e-13 1.37845 0
4.09369e-14 1.3599 0
-1.64908e-13 1.3599 0
2.29364e-13 1.37845 0
8.29018e-14 1.37845 0
-1.64908e-13 1.3599 0
-1.61626e-13 1.3599 0
3.1361e-13 1.3599 0
-1.14194e-13 1.3599 0
-9.70298e-14 1.34223 0
2.57197e-14 1.34223 0
-1.14194e-13 1.3599 0
1.14147e-13 1.3599 0
2.57197e-14 1.34223 0
5.47832e-14 1.34223 0
8.29018e-14 1.37845 0
-1.71269e-13 1.37845 0
-1.61626e-13 1.3599 0
2.80493e-13 1.3599 0
-1.71269e-13 1.37845 0
2.82856e-13 1.37845 0
2.80493e-13 1.3599 0
-2.12944e-13 1.3599 0
1.14147e-13 1.3599 0
1.82261e-14 1.3599 0
5.47832e-14 1.34223 0
-1.35241e-13 1.34223 0
1.82261e-14 1.3599 0
3.81562e-13 1.3599 0
-1.35241e-13 1.34223 0
-3.26686e-13 1.34223 0
-6.34374e-14 1.41821 0
3.6853e-13 1.41821 0
-9.45124e-14 1.39819 0
1.09092e-13 1.39819 0
3.6853e-13 1.41821 0
-3.91138e-13 1.41821 0
1.09092e-13 1.39819 0
2.30912e-13 1.39819 0
-2.62868e-13 1.39819 0
-7.7035e-14 1.39819 0
4.85032e-14 1.37845 0
1.91268e-13 1.37845 0
-7.7035e-14 1.39819 0
8.93706e-14 1.39819 0
1.91268e-13 1.37845 0
-1.40094e-13 1.37845 0
-3.91138e-13 1.41821 0
4.66417e-13 1.41821 0
2.30912e-13 1.39819 0
-4.63967e-13 1.39819 0
4.66417e-13 1.41821 0
-5.47612e-13 1.41821 0
-4.63967e-13 1.39819 0
4.59957e-13 1.39819 0
8.93706e-14 1.39819 0
-1.97719e-13 1.39819 0
-1.40094e-13 1.37845 0
3.70228e-13 1.37845 0
-1.97719e-13 1.39819 0
2.04575e-13 1.39819 0
3.70228e-13 1.37845 0
-1.76624e-13 1.37845 0
2.82856e-13 1.37845 0
-4.06768e-13 1.37845 0
-2.12944e-13 1.3599 0
5.71756e-13 1.3599 0
-4.06768e-13 1.37845 0
-6.55824e-14 1.37845 0
5.71756e-13 1.3599 0
-1.37975e-13 1.3599 0
3.81562e-13 1.3599 0
-7.27096e-13 1.3599 0
-3.26686e-13 1.34223 0
4.56688e-13 1.34223 0
-7.27096e-13 1.3599 0
9.96543e-14 1.3599 0
4.56688e-13 1.34223 0
8.94721e-14 1.34223 0
-6.55824e-14 1.37845 0
4.57106e-13 1.37845 0
-1.37975e-13 1.3599 0
-4.77087e-13 1.3599 0
4.57106e-13 1.37845 0
-5.68806e-14 1.37845 0
-4.77087e-13 1.3599 0
9.27306e-14 1.3599 0
9.96543e-14 1.3599 0
1.53933e-14 1.3599 0
8.94721e-14 1.34223 0
-1.05388e-15 1.34223 0
1.53933e-14 1.3599 0
1.83581e-13 1.3599 0
-1.05388e-15 1.34223 0
9.89555e-15 1.34223 0
0 1.34223 0
-1.02976e-14 1.34223 0
0 1.32546 0
4.11475e-14 1.32546 0
-1.02976e-14 1.34223 0
3.79006e-13 1.34223 0
4.11475e-14 1.32546 0
-3.61684e-13 1.32546 0
0 1.32546 0
2.124e-13 1.32546 0
0 1.30953 0
-2.39295e-13 1.30953 0
2.124e-13 1.32546 0
-4.91411e-13 1.32546 0
-2.39295e-13 1.30953 0
2.83554e-13 1.30953 0
3.79006e-13 1.34223 0
-5.3467e-13 1.34223 0
-3.61684e-13 1.32546 0
6.79867e-13 1.32546 0
-5.3467e-13 1.34223 0
1.68314e-13 1.34223 0
6.79867e-13 1.32546 0
-3.50161e-14 1.32546 0
-4.91411e-13 1.32546 0
5.84934e-13 1.32546 0
2.83554e-13 1.30953 0
-3.72088e-13 1.30953 0
5.84934e-13 1.32546 0
1.51751e-13 1.32546 0
-3.72088e-13 1.30953 0
-4.98566e-15 1.30953 0
0 1.30953 0
-1.79777e-13 1.30953 0
0 1.2944 0
-8.76411e-14 1.2944 0
-1.79777e-13 1.30953 0
5.94814e-14 1.30953 0
-8.76411e-14 1.2944 0
1.19288e-13 1.2944 0
0 1.2944 0
2.17112e-14 1.2944 0
0 1.28002 0
-2.3313e-14 1.28002 0
2.17112e-14 1.2944 0
2.18827e-13 1.2944 0
-2.3313e-14 1.28002 0
-1.52454e-13 1.28002 0
5.94814e-14 1.30953 0
-2.62689e-13 1.30953 0
1.19288e-13 1.2944 0
1.71765e-13 1.2944 0
-2.62689e-13 1.30953 0
-6.05685e-14 1.30953 0
1.71765e-13 1.2944 0
-5.78395e-14 1.2944 0
2.18827e-13 1.2944 0
5.33879e-14 1.2944 0
-1.52454e-13 1.28002 0
-1.74954e-14 1.28002 0
5.33879e-14 1.2944 0
-3.59137e-14 1.2944 0
-1.74954e-14 1.28002 0
1.13207e-13 1.28002 0
1.68314e-13 1.34223 0
3.71024e-13 1.34223 0
-3.50161e-14 1.32546 0
-2.87425e-13 1.32546 0
3.71024e-13 1.34223 0
-4.01416e-13 1.34223 0
-2.87425e-13 1.32546 0
4.55707e-13 1.32546 0
1.51751e-13 1.32546 0
-2.8807e-13 1.32546 0
-4.98566e-15 1.30953 0
3.38694e-13 1.30953 0
-2.8807e-13 1.32546 0
7.53751e-14 1.32546 0
3.38694e-13 1.30953 0
2.65009e-14 1.30953 0
-4.01416e-13 1.34223 0
-1.35427e-13 1.34223 0
4.55707e-13 1.32546 0
-9.43511e-14 1.32546 0
-1.35427e-13 1.34223 0
9.05204e-14 1.34223 0
-9.43511e-14 1.32546 0
1.24208e-14 1.32546 0
7.53751e-14 1.32546 0
2.57803e-14 1.32546 0
2.65009e-14 1.30953 0
3.40729e-14 1.30953 0
2.57803e-14 1.32546 0
9.08142e-14 1.32546 0
3.40729e-14 1.30953 0
-2.32031e-13 1.30953 0
-6.05685e-14 1.30953 0
3.45348e-13 1.30953 0
-5.78395e-14 1.2944 0
-3.09896e-13 1.2944 0
3.45348e-13 1.30953 0
-1.56841e-14 1.30953 0
-3.09896e-13 1.2944 0
-4.402e-14 1.2944 0
-3.59137e-14 1.2944 0
-3.12178e-13 1.2944 0
1.13207e-13 1.28002 0
3.26158e-13 1.28002 0
-3.12178e-13 1.2944 0
1.32542e-13 1.2944 0
3.26158e-13 1.28002 0
-1.79969e-13 1.28002 0
-1.56841e-14 1.30953 0
1.1432e-13 1.30953 0
-4.402e-14 1.2944 0
2.10537e-14 1.2944 0
1.1432e-13 1.30953 0
-5.50167e-14 1.30953 0
2.10537e-14 1.2944 0
-2.87787e-13 1.2944 0
1.32542e-13 1.2944 0
1.94772e-13 1.2944 0
-1.79969e-13 1.28002 0
-2.51477e-13 1.28002 0
1.94772e-13 1.2944 0
-4.41308e-13 1.2944 0
-2.51477e-13 1.28002 0
5.11487e-13 1.28002 0
0 1.28002 0
-2.52565e-13 1.28002 0
0 1.26636 0
2.48107e-13 1.26636 0
-2.52565e-13 1.28002 0
-1.43239e-13 1.28002 0
2.48107e-13 1.26636 0
1.82494e-13 1.26636 0
0 1.26636 0
9.98681e-15 1.26636 0
0 1.25338 0
1.41403e-13 1.25338 0
9.98681e-15 1.26636 0
9.61548e-14 1.26636 0
1.41403e-13 1.25338 0
-4.86346e-14 1.25338 0
-1.43239e-13 1.28002 0
1.52202e-13 1.28002 0
1.82494e-13 1.26636 0
-2.08603e-13 1.26636 0
1.52202e-13 1.28002 0
7.73304e-14 1.28002 0
-2.08603e-13 1.26636 0
2.3472e-14 1.26636 0
9.61548e-14 1.26636 0
-1.36215e-13 1.26636 0
-4.86346e-14 1.25338 0
-4.71789e-14 1.25338 0
-1.36215e-13 1.26636 0
9.99703e-14 1.26636 0
-4.71789e-14 1.25338 0
-7.03908e-14 1.25338 0
0 1.25338 0
2.25264e-13 1.25338 0
0 1.24104 0
-7.07129e-14 1.24104 0
2.25264e-13 1.25338 0
1.85602e-13 1.25338 0
-7.07129e-14 1.24104 0
-3.53945e-13 1.24104 0
0 1.24104 0
-5.49986e-14 1.24104 0
0 1.22932 0
8.02668e-14 1.22932 0
-5.49986e-14 1.24104 0
-4.16836e-13 1.24104 0
8.02668e-14 1.22932 0
1.84324e-13 1.22932 0
1.85602e-13 1.25338 0
-3.14925e-13 1.25338 0
-3.53945e-13 1.24104 0
2.52313e-13 1.24104 0
-3.14925e-13 1.25338 0
-1.23724e-14 1.25338 0
2.52313e-13 1.24104 0
1.14695e-13 1.24104 0
-4.16836e-13 1.24104 0
2.33274e-13 1.24104 0
1.84324e-13 1.22932 0
-2.41914e-13 1.22932 0
2.33274e-13 1.24104 0
6.23545e-14 1.24104 0
-2.41914e-13 1.22932 0
-1.46797e-13 1.22932 0
7.73304e-14 1.28002 0
3.01444e-13 1.28002 0
2.3472e-14 1.26636 0
-4.57899e-13 1.26636 0
3.01444e-13 1.28002 0
-3.47202e-13 1.28002 0
-4.57899e-13 1.26636 0
5.1923e-13 1.26636 0
9.99703e-14 1.26636 0
-2.21717e-13 1.26636 0
-7.03908e-14 1.25338 0
1.06957e-14 1.25338 0
-2.21717e-13 1.26636 0
5.26917e-13 1.26636 0
1.06957e-14 1.25338 0
-1.66217e-13 1.25338 0
-3.47202e-13 1.28002 0
8.23862e-14 1.28002 0
5.1923e-13 1.26636 0
-8.16733e-14 1.26636 0
8.23862e-14 1.28002 0
3.32156e-13 1.28002 0
-8.16733e-14 1.26636 0
-1.42067e-13 1.26636 0
5.26917e-13 1.26636 0
-2.47268e-13 1.26636 0
-1.66217e-13 1.25338 0
4.00008e-14 1.25338 0
-2.47268e-13 1.26636 0
-3.88927e-13 1.26636 0
4.00008e-14 1.25338 0
2.10509e-13 1.25338 0
-1.23724e-14 1.25338 0
-4.50512e-14 1.25338 0
1.14695e-13 1.24104 0
-5.37054e-14 1.24104 0
-4.50512e-14 1.25338 0
-2.48404e-13 1.25338 0
-5.37054e-14 1.24104 0
-1.14102e-13 1.24104 0
6.23545e-14 1.24104 0
-3.80164e-14 1.24104 0
-1.46797e-13 1.22932 0
-1.82062e-13 1.22932 0
-3.80164e-14 1.24104 0
-4.74798e-14 1.24104 0
-1.82062e-13 1.22932 0
-8.29359e-15 1.22932 0
-2.48404e-13 1.25338 0
2.77667e-14 1.25338 0
-1.14102e-13 1.24104 0
1.77784e-14 1.24104 0
2.77667e-14 1.25338 0
4.52839e-13 1.25338 0
1.77784e-14 1.24104 0
-2.5706e-13 1.24104 0
-4.74798e-14 1.24104 0
1.91025e-13 1.24104 0
-8.29359e-15 1.22932 0
4.14136e-14 1.22932 0
1.91025e-13 1.24104 0
-7.36404e-15 1.24104 0
4.14136e-14 1.22932 0
1.50678e-13 1.22932 0
9.05204e-14 1.34223 0
-8.34707e-14 1.34223 0
1.24208e-14 1.32546 0
-8.16347e-14 1.32546 0
-8.34707e-14 1.34223 0
3.13545e-13 1.34223 0
-8.16347e-14 1.32546 0
-4.37129e-13 1.32546 0
9.08142e-14 1.32546 0
7.88464e-14 1.32546 0
-2.32031e-13 1.30953 0
1.32981e-13 1.30953 0
7.88464e-14 1.32546 0
-6.34432e-13 1.32546 0
1.32981e-13 1.30953 0
4.06043e-13 1.30953 0
3.13545e-13 1.34223 0
-2.37384e-13 1.34223 0
-4.37129e-13 1.32546 0
1.96643e-13 1.32546 0
-2.37384e-13 1.34223 0
-4.87884e-13 1.34223 0
1.96643e-13 1.32546 0
4.12594e-13 1.32546 0
-6.34432e-13 1.32546 0
3.27559e-13 1.32546 0
4.06043e-13 1.30953 0
-4.10443e-13 1.30953 0
3.27559e-13 1.32546 0
3.49551e-13 1.32546 0
-4.10443e-13 1.30953 0
-2.65896e-13 1.30953 0
-5.50167e-14 1.30953 0
2.80178e-16 1.30953 0
-2.87787e-13 1.2944 0
-2.43576e-14 1.2944 0
2.80178e-16 1.30953 0
-7.78986e-14 1.30953 0
-2.43576e-14 1.2944 0
-6.2346e-14 1.2944 0
-4.41308e-13 1.2944 0
-2.38561e-13 1.2944 0
5.11487e-13 1.28002 0
3.31531e-13 1.28002 0
-2.38561e-13 1.2944 0
2.92498e-13 1.2944 0
3.31531e-13 1.28002 0
-2.50024e-13 1.28002 0
-7.78986e-14 1.30953 0
-1.97538e-13 1.30953 0
-6.2346e-14 1.2944 0
1.76215e-13 1.2944 0
-1.97538e-13 1.30953 0
2.68968e-14 1.30953 0
1.76215e-13 1.2944 0
2.94522e-14 1.2944 0
2.92498e-13 1.2944 0
-1.70391e-14 1.2944 0
-2.50024e-13 1.28002 0
1.50184e-13 1.28002 0
-1.70391e-14 1.2944 0
2.37292e-14 1.2944 0
1.50184e-13 1.28002 0
-1.8255e-13 1.28002 0
-4.87884e-13 1.34223 0
6.70955e-13 1.34223 0
4.12594e-13 1.32546 0
-6.60323e-13 1.32546 0
6.70955e-13 1.34223 0
-2.12903e-13 1.34223 0
-6.60323e-13 1.32546 0
2.51361e-13 1.32546 0
3.49551e-13 1.32546 0
7.0321e-14 1.32546 0
-2.65896e-13 1.30953 0
8.20272e-14 1.30953 0
7.0321e-14 1.32546 0
-1.84851e-13 1.32546 0
8.20272e-14 1.30953 0
-8.22889e-15 1.30953 0
-2.12903e-13 1.34223 0
-2.2152e-13 1.34223 0
2.51361e-13 1.32546 0
8.36909e-14 1.32546 0
-2.2152e-13 1.34223 0
5.46323e-13 1.34223 0
8.36909e-14 1.32546 0
-3.97063e-13 1.32546 0
-1.84851e-13 1.32546 0
-4.83926e-14 1.32546 0
-8.22889e-15 1.30953 0
-3.24135e-14 1.30953 0
-4.83926e-14 1.32546 0
-2.88121e-13 1.32546 0
-3.24135e-14 1.30953 0
2.3959e-13 1.30953 0
2.68968e-14 1.30953 0
-1.20094e-13 1.30953 0
2.94522e-14 1.2944 0
3.51191e-13 1.2944 0
-1.20094e-13 1.30953 0
2.32342e-13 1.30953 0
3.51191e-13 1.2944 0
-4.70874e-13 1.2944 0
2.37292e-14 1.2944 0
-9.43915e-14 1.2944 0
-1.8255e-13 1.28002 0
-7.04039e-14 1.28002 0
-9.43915e-14 1.2944 0
6.31224e-14 1.2944 0
-7.04039e-14 1.28002 0
2.59732e-13 1.28002 0
2.32342e-13 1.30953 0
2.04036e-13 1.30953 0
-4.70874e-13 1.2944 0
2.08239e-14 1.2944 0
2.04036e-13 1.30953 0
-3.97317e-14 1.30953 0
2.08239e-14 1.2944 0
6.56371e-14 1.2944 0
6.31224e-14 1.2944 0
-1.14049e-13 1.2944 0
2.59732e-13 1.28002 0
-2.49479e-13 1.28002 0
-1.14049e-13 1.2944 0
1.7631e-13 1.2944 0
-2.49479e-13 1.28002 0
-3.1913e-14 1.28002 0
3.32156e-13 1.28002 0
1.81255e-14 1.28002 0
-1.42067e-13 1.26636 0
-4.31919e-14 1.26636 0
1.81255e-14 1.28002 0
-3.19666e-13 1.28002 0
-4.31919e-14 1.26636 0
5.51636e-14 1.26636 0
-3.88927e-13 1.26636 0
1.21554e-13 1.26636 0
2.10509e-13 1.25338 0
-1.43517e-13 1.25338 0
1.21554e-13 1.26636 0
2.52152e-13 1.26636 0
-1.43517e-13 1.25338 0
-2.47899e-13 1.25338 0
-3.19666e-13 1.28002 0
4.58119e-14 1.28002 0
5.51636e-14 1.26636 0
-9.85392e-14 1.26636 0
4.58119e-14 1.28002 0
-4.16051e-14 1.28002 0
-9.85392e-14 1.26636 0
1.19547e-13 1.26636 0
2.52152e-13 1.26636 0
1.08178e-13 1.26636 0
-2.47899e-13 1.25338 0
1.43171e-13 1.25338 0
1.08178e-13 1.26636 0
-8.46715e-14 1.26636 0