# vtk DataFile Version 3.0
#This file was generated by the deal.II library on 2018/10/16 at 6:56:35
ASCII
DATASET UNSTRUCTURED_GRID

POINTS 20480 double
0 0 0
0.19635 0 0
0 0.287357 0
0.19635 0.287357 0
0.19635 0 0
0.392699 0 0
0.19635 0.287357 0
0.392699 0.287357 0
0 0.287357 0
0.19635 0.287357 0
0 0.598394 0
0.19635 0.598394 0
0.19635 0.287357 0
0.392699 0.287357 0
0.19635 0.598394 0
0.392699 0.598394 0
0.392699 0 0
0.589049 0 0
0.392699 0.287357 0
0.589049 0.287357 0
0.589049 0 0
0.785398 0 0
0.589049 0.287357 0
0.785398 0.287357 0
0.392699 0.287357 0
0.589049 0.287357 0
0.392699 0.598394 0
0.589049 0.598394 0
0.589049 0.287357 0
0.785398 0.287357 0
0.589049 0.598394 0
0.785398 0.598394 0
0 0.598394 0
0.19635 0.598394 0
0 0.911431 0
0.19635 0.911431 0
0.19635 0.598394 0
0.392699 0.598394 0
0.19635 0.911431 0
0.392699 0.911431 0
0 0.911431 0
0.19635 0.911431 0
0 1.22526 0
0.19635 1.22526 0
0.19635 0.911431 0
0.392699 0.911431 0
0.19635 1.22526 0
0.392699 1.22526 0
0.392699 0.598394 0
0.589049 0.598394 0
0.392699 0.911431 0
0.589049 0.911431 0
0.589049 0.598394 0
0.785398 0.598394 0
0.589049 0.911431 0
0.785398 0.911431 0
0.392699 0.911431 0
0.589049 0.911431 0
0.392699 1.22526 0
0.589049 1.22526 0
0.589049 0.911431 0
0.785398 0.911431 0
0.589049 1.22526 0
0.785398 1.22526 0
0.785398 0 0
0.981748 0 0
0.785398 0.287357 0
0.981748 0.287357 0
0.981748 0 0
1.1781 0 0
0.981748 0.287357 0
1.1781 0.287357 0
0.785398 0.287357 0
0.981748 0.287357 0
0.785398 0.598394 0
0.981748 0.598394 0
0.981748 0.287357 0
1.1781 0.287357 0
0.981748 0.598394 0
1.1781 0.598394 0
1.1781 0 0
1.37445 0 0
1.1781 0.287357 0
1.37445 0.287357 0
1.37445 0 0
1.5708 0 0
1.37445 0.287357 0
1.5708 0.287357 0
1.1781 0.287357 0
1.37445 0.287357 0
1.1781 0.598394 0
1.37445 0.598394 0
1.37445 0.287357 0
1.5708 0.287357 0
1.37445 0.598394 0
1.5708 0.598394 0
0.785398 0.598394 0
0.981748 0.598394 0
0.785398 0.911431 0
0.981748 0.911431 0
0.981748 0.598394 0
1.1781 0.598394 0
0.981748 0.911431 0
1.1781 0.911431 0
0.785398 0.911431 0
0.981748 0.911431 0
0.785398 1.22526 0
0.981748 1.22526 0
0.981748 0.911431 0
1.1781 0.911431 0
0.981748 1.22526 0
1.1781 1.22526 0
1.1781 0.598394 0
1.37445 0.598394 0
1.1781 0.911431 0
1.37445 0.911431 0
1.37445 0.598394 0
1.5708 0.598394 0
1.37445 0.911431 0
1.5708 0.911431 0
1.1781 0.911431 0
1.37445 0.911431 0
1.1781 1.22526 0
1.37445 1.22526 0
1.37445 0.911431 0
1.5708 0.911431 0
1.37445 1.22526 0
1.5708 1.22526 0
0 1.22526 0
0.19635 1.22526 0
0 1.53897 0
0.19635 1.53897 0
0.19635 1.22526 0
0.392699 1.22526 0
0.19635 1.53897 0
0.392699 1.53897 0
0 1.53897 0
0.19635 1.53897 0
0 1.85268 0
0.19635 1.85268 0
0.19635 1.53897 0
0.392699 1.53897 0
0.19635 1.85268 0
0.392699 1.85268 0
0.392699 1.22526 0
0.589049 1.22526 0
0.392699 1.53897 0
0.589049 1.53897 0
0.589049 1.22526 0
0.785398 1.22526 0
0.589049 1.53897 0
0.785398 1.53897 0
0.392699 1.53897 0
0.589049 1.53897 0
0.392699 1.85268 0
0.589049 1.85268 0
0.589049 1.53897 0
0.785398 1.53897 0
0.589049 1.85268 0
0.785398 1.85268 0
0 1.85268 0
0.19635 1.85268 0
0 2.16634 0
0.19635 2.16634 0
0.19635 1.85268 0
0.392699 1.85268 0
0.19635 2.16634 0
0.392699 2.16634 0
0 2.16634 0
0.19635 2.16634 0
0 2.47997 0
0.19635 2.47997 0
0.19635 2.16634 0
0.392699 2.16634 0
0.19635 2.47997 0
0.392699 2.47997 0
0.392699 1.85268 0
0.589049 1.85268 0
0.392699 2.16634 0
0.589049 2.16634 0
0.589049 1.85268 0
0.785398 1.85268 0
0.589049 2.16634 0
0.785398 2.16634 0
0.392699 2.16634 0
0.589049 2.16634 0
0.392699 2.47997 0
0.589049 2.47997 0
0.589049 2.16634 0
0.785398 2.16634 0
0.589049 2.47997 0
0.785398 2.47997 0
0.785398 1.22526 0
0.981748 1.22526 0
0.785398 1.53897 0
0.981748 1.53897 0
0.981748 1.22526 0
1.1781 1.22526 0
0.981748 1.53897 0
1.1781 1.53897 0
0.785398 1.53897 0
0.981748 1.53897 0
0.785398 1.85268 0
0.981748 1.85268 0
0.981748 1.53897 0
1.1781 1.53897 0
0.981748 1.85268 0
1.1781 1.85268 0
1.1781 1.22526 0
1.37445 1.22526 0
1.1781 1.53897 0
1.37445 1.53897 0
1.37445 1.22526 0
1.5708 1.22526 0
1.37445 1.53897 0
1.5708 1.53897 0
1.1781 1.53897 0
1.37445 1.53897 0
1.1781 1.85268 0
1.37445 1.85268 0
1.37445 1.53897 0
1.5708 1.53897 0
1.37445 1.85268 0
1.5708 1.85268 0
0.785398 1.85268 0
0.981748 1.85268 0
0.785398 2.16634 0
0.981748 2.16634 0
0.981748 1.85268 0
1.1781 1.85268 0
0.981748 2.16634 0
1.1781 2.16634 0
0.785398 2.16634 0
0.981748 2.16634 0
0.785398 2.47997 0
0.981748 2.47997 0
0.981748 2.16634 0
1.1781 2.16634 0
0.981748 2.47997 0
1.1781 2.47997 0
1.1781 1.85268 0
1.37445 1.85268 0
1.1781 2.16634 0
1.37445 2.16634 0
1.37445 1.85268 0
1.5708 1.85268 0
1.37445 2.16634 0
1.5708 2.16634 0
1.1781 2.16634 0
1.37445 2.16634 0
1.1781 2.47997 0
1.37445 2.47997 0
1.37445 2.16634 0
1.5708 2.16634 0
1.37445 2.47997 0
1.5708 2.47997 0
1.5708 0 0
1.76715 0 0
1.5708 0.287357 0
1.76715 0.287357 0
1.76715 0 0
1.9635 0 0
1.76715 0.287357 0
1.9635 0.287357 0
1.5708 0.287357 0
1.76715 0.287357 0
1.5708 0.598394 0
1.76715 0.598394 0
1.76715 0.287357 0
1.9635 0.287357 0
1.76715 0.598394 0
1.9635 0.598394 0
1.9635 0 0
2.15984 0 0
1.9635 0.287357 0
2.15984 0.287357 0
2.15984 0 0
2.35619 0 0
2.15984 0.287357 0
2.35619 0.287357 0
1.9635 0.287357 0
2.15984 0.287357 0
1.9635 0.598394 0
2.15984 0.598394 0
2.15984 0.287357 0
2.35619 0.287357 0
2.15984 0.598394 0
2.35619 0.598394 0
1.5708 0.598394 0
1.76715 0.598394 0
1.5708 0.911431 0
1.76715 0.911431 0
1.76715 0.598394 0
1.9635 0.598394 0
1.76715 0.911431 0
1.9635 0.911431 0
1.5708 0.911431 0
1.76715 0.911431 0
1.5708 1.22526 0
1.76715 1.22526 0
1.76715 0.911431 0
1.9635 0.911431 0
1.76715 1.22526 0
1.9635 1.22526 0
1.9635 0.598394 0
2.15984 0.598394 0
1.9635 0.911431 0
2.15984 0.911431 0
2.15984 0.598394 0
2.35619 0.598394 0
2.15984 0.911431 0
2.35619 0.911431 0
1.9635 0.911431 0
2.15984 0.911431 0
1.9635 1.22526 0
2.15984 1.22526 0
2.15984 0.911431 0
2.35619 0.911431 0
2.15984 1.22526 0
2.35619 1.22526 0
2.35619 0 0
2.55254 0 0
2.35619 0.287357 0
2.55254 0.287357 0
2.55254 0 0
2.74889 0 0
2.55254 0.287357 0
2.74889 0.287357 0
2.35619 0.287357 0
2.55254 0.287357 0
2.35619 0.598394 0
2.55254 0.598394 0
2.55254 0.287357 0
2.74889 0.287357 0
2.55254 0.598394 0
2.74889 0.598394 0
2.74889 0 0
2.94524 0 0
2.74889 0.287357 0
2.94524 0.287357 0
2.94524 0 0
3.14159 0 0
2.94524 0.287357 0
3.14159 0.287357 0
2.74889 0.287357 0
2.94524 0.287357 0
2.74889 0.598394 0
2.94524 0.598394 0
2.94524 0.287357 0
3.14159 0.287357 0
2.94524 0.598394 0
3.14159 0.598394 0
2.35619 0.598394 0
2.55254 0.598394 0
2.35619 0.911431 0
2.55254 0.911431 0
2.55254 0.598394 0
2.74889 0.598394 0
2.55254 0.911431 0
2.74889 0.911431 0
2.35619 0.911431 0
2.55254 0.911431 0
2.35619 1.22526 0
2.55254 1.22526 0
2.55254 0.911431 0
2.74889 0.911431 0
2.55254 1.22526 0
2.74889 1.22526 0
2.74889 0.598394 0
2.94524 0.598394 0
2.74889 0.911431 0
2.94524 0.911431 0
2.94524 0.598394 0
3.14159 0.598394 0
2.94524 0.911431 0
3.14159 0.911431 0
2.74889 0.911431 0
2.94524 0.911431 0
2.74889 1.22526 0
2.94524 1.22526 0
2.94524 0.911431 0
3.14159 0.911431 0
2.94524 1.22526 0
3.14159 1.22526 0
1.5708 1.22526 0
1.76715 1.22526 0
1.5708 1.53897 0
1.76715 1.53897 0
1.76715 1.22526 0
1.9635 1.22526 0
1.76715 1.53897 0
1.9635 1.53897 0
1.5708 1.53897 0
1.76715 1.53897 0
1.5708 1.85268 0
1.76715 1.85268 0
1.76715 1.53897 0
1.9635 1.53897 0
1.76715 1.85268 0
1.9635 1.85268 0
1.9635 1.22526 0
2.15984 1.22526 0
1.9635 1.53897 0
2.15984 1.53897 0
2.15984 1.22526 0
2.35619 1.22526 0
2.15984 1.53897 0
2.35619 1.53897 0
1.9635 1.53897 0
2.15984 1.53897 0
1.9635 1.85268 0
2.15984 1.85268 0
2.15984 1.53897 0
2.35619 1.53897 0
2.15984 1.85268 0
2.35619 1.85268 0
1.5708 1.85268 0
1.76715 1.85268 0
1.5708 2.16634 0
1.76715 2.16634 0
1.76715 1.85268 0
1.9635 1.85268 0
1.76715 2.16634 0
1.9635 2.16634 0
1.5708 2.16634 0
1.76715 2.16634 0
1.5708 2.47997 0
1.76715 2.47997 0
1.76715 2.16634 0
1.9635 2.16634 0
1.76715 2.47997 0
1.9635 2.47997 0
1.9635 1.85268 0
2.15984 1.85268 0
1.9635 2.16634 0
2.15984 2.16634 0
2.15984 1.85268 0
2.35619 1.85268 0
2.15984 2.16634 0
2.35619 2.16634 0
1.9635 2.16634 0
2.15984 2.16634 0
1.9635 2.47997 0
2.15984 2.47997 0
2.15984 2.16634 0
2.35619 2.16634 0
2.15984 2.47997 0
2.35619 2.47997 0
2.35619 1.22526 0
2.55254 1.22526 0
2.35619 1.53897 0
2.55254 1.53897 0
2.55254 1.22526 0
2.74889 1.22526 0
2.55254 1.53897 0
2.74889 1.53897 0
2.35619 1.53897 0
2.55254 1.53897 0
2.35619 1.85268 0
2.55254 1.85268 0
2.55254 1.53897 0
2.74889 1.53897 0
2.55254 1.85268 0
2.74889 1.85268 0
2.74889 1.22526 0
2.94524 1.22526 0
2.74889 1.53897 0
2.94524 1.53897 0
2.94524 1.22526 0
3.14159 1.22526 0
2.94524 1.53897 0
3.14159 1.53897 0
2.74889 1.53897 0
2.94524 1.53897 0
2.74889 1.85268 0
2.94524 1.85268 0
2.94524 1.53897 0
3.14159 1.53897 0
2.94524 1.85268 0
3.14159 1.85268 0
2.35619 1.85268 0
2.55254 1.85268 0
2.35619 2.16634 0
2.55254 2.16634 0
2.55254 1.85268 0
2.74889 1.85268 0
2.55254 2.16634 0
2.74889 2.16634 0
2.35619 2.16634 0
2.55254 2.16634 0
2.35619 2.47997 0
2.55254 2.47997 0
2.55254 2.16634 0
2.74889 2.16634 0
2.55254 2.47997 0
2.74889 2.47997 0
2.74889 1.85268 0
2.94524 1.85268 0
2.74889 2.16634 0
2.94524 2.16634 0
2.94524 1.85268 0
3.14159 1.85268 0
2.94524 2.16634 0
3.14159 2.16634 0
2.74889 2.16634 0
2.94524 2.16634 0
2.74889 2.47997 0
2.94524 2.47997 0
2.94524 2.16634 0
3.14159 2.16634 0
2.94524 2.47997 0
3.14159 2.47997 0
0 2.47997 0
0.19635 2.47997 0
0 2.79355 0
0.19635 2.79355 0
0.19635 2.47997 0
0.392699 2.47997 0
0.19635 2.79355 0
0.392699 2.79355 0
0 2.79355 0
0.19635 2.79355 0
0 3.1071 0
0.19635 3.1071 0
0.19635 2.79355 0
0.392699 2.79355 0
0.19635 3.1071 0
0.392699 3.1071 0
0.392699 2.47997 0
0.589049 2.47997 0
0.392699 2.79355 0
0.589049 2.79355 0
0.589049 2.47997 0
0.785398 2.47997 0
0.589049 2.79355 0
0.785398 2.79355 0
0.392699 2.79355 0
0.589049 2.79355 0
0.392699 3.1071 0
0.589049 3.1071 0
0.589049 2.79355 0
0.785398 2.79355 0
0.589049 3.1071 0
0.785398 3.1071 0
0 3.1071 0
0.19635 3.1071 0
0 3.4206 0
0.19635 3.4206 0
0.19635 3.1071 0
0.392699 3.1071 0
0.19635 3.4206 0
0.392699 3.4206 0
[...]
POINT_DATA 20480
VECTORS uf double
0 1 0
-2.09413e-13 1 0
0 1.57198 0
2.96611e-13 1.57198 0
-2.09413e-13 1 0
-8.7999e-14 1 0
2.96611e-13 1.57198 0
1.84241e-13 1.57198 0
0 1.57198 0
1.59977e-13 1.57198 0
0 1.54166 0
-5.81981e-15 1.54166 0
1.59977e-13 1.57198 0
-1.16471e-14 1.57198 0
-5.81981e-15 1.54166 0
1.50499e-13 1.54166 0
-8.7999e-14 1 0
2.07643e-13 1 0
1.84241e-13 1.57198 0
-4.22909e-13 1.57198 0
2.07643e-13 1 0
-1.82891e-13 1 0
-4.22909e-13 1.57198 0
3.22178e-13 1.57198 0
-1.16471e-14 1.57198 0
-7.28959e-13 1.57198 0
1.50499e-13 1.54166 0
7.83604e-13 1.54166 0
-7.28959e-13 1.57198 0
2.18097e-14 1.57198 0
7.83604e-13 1.54166 0
1.71291e-13 1.54166 0
0 1.54166 0
9.75155e-14 1.54166 0
0 1.52868 0
8.12405e-14 1.52868 0
9.75155e-14 1.54166 0
3.47399e-13 1.54166 0
8.12405e-14 1.52868 0
-4.1954e-13 1.52868 0
0 1.52868 0
2.38407e-13 1.52868 0
0 1.49744 0
-1.87147e-13 1.49744 0
2.38407e-13 1.52868 0
-3.84759e-13 1.52868 0
-1.87147e-13 1.49744 0
3.46015e-13 1.49744 0
3.47399e-13 1.54166 0
6.89231e-13 1.54166 0
-4.1954e-13 1.52868 0
-3.77148e-13 1.52868 0
6.89231e-13 1.54166 0
1.19383e-13 1.54166 0
-3.77148e-13 1.52868 0
2.87896e-13 1.52868 0
-3.84759e-13 1.52868 0
2.2047e-13 1.52868 0
3.46015e-13 1.49744 0
-4.50034e-13 1.49744 0
2.2047e-13 1.52868 0
2.65465e-13 1.52868 0
-4.50034e-13 1.49744 0
2.10338e-13 1.49744 0
-1.82891e-13 1 0
-2.34018e-13 1 0
3.22178e-13 1.57198 0
4.38652e-13 1.57198 0
-2.34018e-13 1 0
1.10415e-13 1 0
4.38652e-13 1.57198 0
-1.55555e-13 1.57198 0
2.18097e-14 1.57198 0
5.46497e-13 1.57198 0
1.71291e-13 1.54166 0
-4.37669e-13 1.54166 0
5.46497e-13 1.57198 0
3.71674e-13 1.57198 0
-4.37669e-13 1.54166 0
-5.74306e-13 1.54166 0
1.10415e-13 1 0
7.03007e-13 1 0
-1.55555e-13 1.57198 0
-1.26567e-12 1.57198 0
7.03007e-13 1 0
4.62589e-13 1 0
-1.26567e-12 1.57198 0
-6.44749e-13 1.57198 0
3.71674e-13 1.57198 0
-8.39695e-13 1.57198 0
-5.74306e-13 1.54166 0
3.75837e-13 1.54166 0
-8.39695e-13 1.57198 0
-5.47434e-13 1.57198 0
3.75837e-13 1.54166 0
1.07892e-13 1.54166 0
1.19383e-13 1.54166 0
-2.93311e-13 1.54166 0
2.87896e-13 1.52868 0
1.2135e-13 1.52868 0
-2.93311e-13 1.54166 0
-5.59773e-13 1.54166 0
1.2135e-13 1.52868 0
2.42092e-13 1.52868 0
2.65465e-13 1.52868 0
-6.46887e-14 1.52868 0
2.10338e-13 1.49744 0
-1.30996e-13 1.49744 0
-6.46887e-14 1.52868 0
-2.13071e-13 1.52868 0
-1.30996e-13 1.49744 0
2.45569e-13 1.49744 0
-5.59773e-13 1.54166 0
-9.17572e-14 1.54166 0
2.42092e-13 1.52868 0
-1.43056e-13 1.52868 0
-9.17572e-14 1.54166 0
1.95695e-14 1.54166 0
-1.43056e-13 1.52868 0
-3.18884e-13 1.52868 0
-2.13071e-13 1.52868 0
-4.55502e-14 1.52868 0
2.45569e-13 1.49744 0
2.52447e-14 1.49744 0
-4.55502e-14 1.52868 0
1.03306e-13 1.52868 0
2.52447e-14 1.49744 0
-3.64868e-13 1.49744 0
0 1.49744 0
-3.14827e-13 1.49744 0
0 1.47307 0
3.70981e-13 1.47307 0
-3.14827e-13 1.49744 0
5.49324e-13 1.49744 0
3.70981e-13 1.47307 0
-6.79629e-13 1.47307 0
0 1.47307 0
5.8968e-13 1.47307 0
0 1.44834 0
-4.35152e-13 1.44834 0
5.8968e-13 1.47307 0
-7.67532e-13 1.47307 0
-4.35152e-13 1.44834 0
3.63531e-13 1.44834 0
5.49324e-13 1.49744 0
-3.52877e-13 1.49744 0
-6.79629e-13 1.47307 0
4.1387e-13 1.47307 0
-3.52877e-13 1.49744 0
1.47765e-13 1.49744 0
4.1387e-13 1.47307 0
1.62918e-13 1.47307 0
-7.67532e-13 1.47307 0
1.80533e-13 1.47307 0
3.63531e-13 1.44834 0
2.75687e-14 1.44834 0
1.80533e-13 1.47307 0
2.30654e-13 1.47307 0
2.75687e-14 1.44834 0
-2.2647e-14 1.44834 0
0 1.44834 0
-2.60423e-13 1.44834 0
0 1.42552 0
-1.15671e-13 1.42552 0
-2.60423e-13 1.44834 0
2.38449e-13 1.44834 0
-1.15671e-13 1.42552 0
-6.24861e-14 1.42552 0
0 1.42552 0
-3.81547e-13 1.42552 0
0 1.40383 0
2.6819e-13 1.40383 0
-3.81547e-13 1.42552 0
-1.81894e-13 1.42552 0
2.6819e-13 1.40383 0
8.92833e-14 1.40383 0
2.38449e-13 1.44834 0
2.0725e-13 1.44834 0
-6.24861e-14 1.42552 0
-1.50442e-13 1.42552 0
2.0725e-13 1.44834 0
8.33776e-14 1.44834 0
-1.50442e-13 1.42552 0
1.82903e-14 1.42552 0
-1.81894e-13 1.42552 0
9.92257e-14 1.42552 0
8.92833e-14 1.40383 0
-4.56311e-13 1.40383 0
9.92257e-14 1.42552 0
-3.94036e-14 1.42552 0
-4.56311e-13 1.40383 0
2.61093e-13 1.40383 0
1.47765e-13 1.49744 0
3.20343e-14 1.49744 0
1.62918e-13 1.47307 0
-1.55305e-13 1.47307 0
3.20343e-14 1.49744 0
9.30503e-14 1.49744 0
-1.55305e-13 1.47307 0
-1.39885e-13 1.47307 0
2.30654e-13 1.47307 0
-4.31264e-13 1.47307 0
-2.2647e-14 1.44834 0
3.77724e-13 1.44834 0
-4.31264e-13 1.47307 0
2.86776e-14 1.47307 0
3.77724e-13 1.44834 0
-1.91655e-13 1.44834 0
9.30503e-14 1.49744 0
-2.91544e-13 1.49744 0
-1.39885e-13 1.47307 0
1.98992e-13 1.47307 0
-2.91544e-13 1.49744 0
-5.5086e-13 1.49744 0
1.98992e-13 1.47307 0
3.71783e-13 1.47307 0
2.86776e-14 1.47307 0
1.07686e-13 1.47307 0
-1.91655e-13 1.44834 0
-1.59629e-13 1.44834 0
1.07686e-13 1.47307 0
2.34807e-13 1.47307 0
-1.59629e-13 1.44834 0
-3.27556e-13 1.44834 0
8.33776e-14 1.44834 0
3.01957e-13 1.44834 0
1.82903e-14 1.42552 0
-1.89902e-13 1.42552 0
3.01957e-13 1.44834 0
-2.22597e-13 1.44834 0
-1.89902e-13 1.42552 0
-4.85269e-14 1.42552 0
-3.94036e-14 1.42552 0
-2.02527e-13 1.42552 0
2.61093e-13 1.40383 0
3.78871e-13 1.40383 0
-2.02527e-13 1.42552 0
-1.13498e-13 1.42552 0
3.78871e-13 1.40383 0
-7.92003e-14 1.40383 0
-2.22597e-13 1.44834 0
-6.61373e-13 1.44834 0
-4.85269e-14 1.42552 0
7.31858e-13 1.42552 0
-6.61373e-13 1.44834 0
2.3721e-13 1.44834 0
7.31858e-13 1.42552 0
-1.53337e-13 1.42552 0
-1.13498e-13 1.42552 0
4.21316e-13 1.42552 0
-7.92003e-14 1.40383 0
-3.06217e-13 1.40383 0
4.21316e-13 1.42552 0
1.77326e-13 1.42552 0
-3.06217e-13 1.40383 0
-7.99603e-14 1.40383 0
4.62589e-13 1 0
-4.14809e-13 1 0
-6.44749e-13 1.57198 0
8.35687e-13 1.57198 0
-4.14809e-13 1 0
-2.78508e-13 1 0
8.35687e-13 1.57198 0
3.26847e-13 1.57198 0
-5.47434e-13 1.57198 0
7.35382e-13 1.57198 0
1.07892e-13 1.54166 0
-4.79309e-13 1.54166 0
7.35382e-13 1.57198 0
4.07414e-13 1.57198 0
-4.79309e-13 1.54166 0
-3.39753e-13 1.54166 0
-2.78508e-13 1 0
-1.81606e-13 1 0
3.26847e-13 1.57198 0
9.04272e-14 1.57198 0
-1.81606e-13 1 0
3.01563e-13 1 0
9.04272e-14 1.57198 0
7.60546e-14 1.57198 0
4.07414e-13 1.57198 0
-3.99778e-13 1.57198 0
-3.39753e-13 1.54166 0
4.85552e-13 1.54166 0
-3.99778e-13 1.57198 0
5.15963e-13 1.57198 0
4.85552e-13 1.54166 0
-4.36915e-13 1.54166 0
1.95695e-14 1.54166 0
-2.02425e-13 1.54166 0
-3.18884e-13 1.52868 0
2.17337e-13 1.52868 0
-2.02425e-13 1.54166 0
3.16215e-13 1.54166 0
2.17337e-13 1.52868 0
3.37173e-14 1.52868 0
1.03306e-13 1.52868 0
-2.20031e-13 1.52868 0
-3.64868e-13 1.49744 0
4.11924e-13 1.49744 0
-2.20031e-13 1.52868 0
-6.00919e-14 1.52868 0
4.11924e-13 1.49744 0
-3.33724e-13 1.49744 0
3.16215e-13 1.54166 0
1.1442e-13 1.54166 0
3.37173e-14 1.52868 0
-1.27208e-13 1.52868 0
1.1442e-13 1.54166 0
-5.41962e-13 1.54166 0
-1.27208e-13 1.52868 0
3.89066e-13 1.52868 0
-6.00919e-14 1.52868 0
-3.25466e-13 1.52868 0
-3.33724e-13 1.49744 0
6.36729e-13 1.49744 0
-3.25466e-13 1.52868 0
3.44471e-14 1.52868 0
6.36729e-13 1.49744 0
2.33569e-13 1.49744 0
3.01563e-13 1 0
2.29485e-13 1 0
7.60546e-14 1.57198 0
-3.09335e-13 1.57198 0
2.29485e-13 1 0
-1.5169e-13 1 0
-3.09335e-13 1.57198 0
1.13081e-13 1.57198 0
5.15963e-13 1.57198 0
-2.88926e-13 1.57198 0
-4.36915e-13 1.54166 0
2.40417e-13 1.54166 0
-2.88926e-13 1.57198 0
-1.33008e-13 1.57198 0
2.40417e-13 1.54166 0
1.73476e-13 1.54166 0
-1.5169e-13 1 0
-1.91066e-13 1 0
1.13081e-13 1.57198 0
2.59113e-13 1.57198 0
-1.91066e-13 1 0
1.01628e-13 1 0
2.59113e-13 1.57198 0
-1.58286e-14 1.57198 0
-1.33008e-13 1.57198 0
2.61106e-13 1.57198 0
1.73476e-13 1.54166 0
-1.88377e-13 1.54166 0
2.61106e-13 1.57198 0
4.41816e-13 1.57198 0
-1.88377e-13 1.54166 0
-8.46817e-14 1.54166 0
-5.41962e-13 1.54166 0
-2.56329e-15 1.54166 0
3.89066e-13 1.52868 0
3.18127e-14 1.52868 0
-2.56329e-15 1.54166 0
-2.03649e-13 1.54166 0
3.18127e-14 1.52868 0
2.25534e-13 1.52868 0
3.44471e-14 1.52868 0
7.47599e-13 1.52868 0
2.33569e-13 1.49744 0
-7.65716e-13 1.49744 0
7.47599e-13 1.52868 0
-6.26744e-14 1.52868 0
-7.65716e-13 1.49744 0
4.27802e-13 1.49744 0
-2.03649e-13 1.54166 0
-1.34725e-13 1.54166 0
2.25534e-13 1.52868 0
1.01036e-13 1.52868 0
-1.34725e-13 1.54166 0
2.1123e-13 1.54166 0
1.01036e-13 1.52868 0
-6.1428e-14 1.52868 0
-6.26744e-14 1.52868 0
-1.57244e-13 1.52868 0
4.27802e-13 1.49744 0
-3.40507e-13 1.49744 0
-1.57244e-13 1.52868 0
3.54439e-13 1.52868 0
-3.40507e-13 1.49744 0
-9.58833e-15 1.49744 0
-5.5086e-13 1.49744 0
8.23767e-13 1.49744 0
3.71783e-13 1.47307 0
-7.24807e-13 1.47307 0
8.23767e-13 1.49744 0
-2.41025e-13 1.49744 0
-7.24807e-13 1.47307 0
2.67979e-13 1.47307 0
2.34807e-13 1.47307 0
-1.20144e-13 1.47307 0
-3.27556e-13 1.44834 0
3.46362e-13 1.44834 0
-1.20144e-13 1.47307 0
-2.31448e-13 1.47307 0
3.46362e-13 1.44834 0
2.11027e-13 1.44834 0
-2.41025e-13 1.49744 0
1.4766e-14 1.49744 0
2.67979e-13 1.47307 0
-3.72693e-13 1.47307 0
1.4766e-14 1.49744 0
2.61934e-14 1.49744 0
-3.72693e-13 1.47307 0
-1.96356e-14 1.47307 0
-2.31448e-13 1.47307 0
-7.14507e-14 1.47307 0
2.11027e-13 1.44834 0
-8.04539e-14 1.44834 0
-7.14507e-14 1.47307 0
-8.06695e-14 1.47307 0
-8.04539e-14 1.44834 0
-1.16735e-13 1.44834 0
2.3721e-13 1.44834 0
2.32799e-13 1.44834 0
-1.53337e-13 1.42552 0
-2.34106e-13 1.42552 0
2.32799e-13 1.44834 0
1.28186e-13 1.44834 0
-2.34106e-13 1.42552 0
4.88031e-14 1.42552 0
1.77326e-13 1.42552 0
-2.01551e-13 1.42552 0
-7.99603e-14 1.40383 0
1.19519e-13 1.40383 0
-2.01551e-13 1.42552 0
3.64588e-13 1.42552 0
1.19519e-13 1.40383 0
-1.81602e-13 1.40383 0
1.28186e-13 1.44834 0
-1.75783e-13 1.44834 0
4.88031e-14 1.42552 0
3.39106e-13 1.42552 0
-1.75783e-13 1.44834 0
2.09554e-13 1.44834 0
3.39106e-13 1.42552 0
-1.7086e-13 1.42552 0
3.64588e-13 1.42552 0
-4.05962e-14 1.42552 0
-1.81602e-13 1.40383 0
-5.07267e-14 1.40383 0
-4.05962e-14 1.42552 0
4.47538e-13 1.42552 0
-5.07267e-14 1.40383 0
-4.16655e-13 1.40383 0
2.61934e-14 1.49744 0
7.80291e-14 1.49744 0
-1.96356e-14 1.47307 0
3.50029e-13 1.47307 0
7.80291e-14 1.49744 0
-2.12581e-13 1.49744 0
3.50029e-13 1.47307 0
1.20086e-13 1.47307 0
-8.06695e-14 1.47307 0
3.80739e-14 1.47307 0
-1.16735e-13 1.44834 0
2.77952e-13 1.44834 0
3.80739e-14 1.47307 0
4.42143e-14 1.47307 0
2.77952e-13 1.44834 0
-1.58151e-13 1.44834 0
-2.12581e-13 1.49744 0
5.47421e-13 1.49744 0
1.20086e-13 1.47307 0
-5.67689e-13 1.47307 0
5.47421e-13 1.49744 0
-6.71803e-13 1.49744 0
-5.67689e-13 1.47307 0
6.51093e-13 1.47307 0
4.42143e-14 1.47307 0
-3.06592e-13 1.47307 0
-1.58151e-13 1.44834 0
4.68591e-13 1.44834 0
-3.06592e-13 1.47307 0
3.29219e-13 1.47307 0
4.68591e-13 1.44834 0
-2.42765e-13 1.44834 0
2.09554e-13 1.44834 0
-2.33603e-13 1.44834 0
-1.7086e-13 1.42552 0
3.66494e-13 1.42552 0
-2.33603e-13 1.44834 0
-1.4611e-13 1.44834 0
3.66494e-13 1.42552 0
-1.91737e-14 1.42552 0
4.47538e-13 1.42552 0
-9.03178e-13 1.42552 0
-4.16655e-13 1.40383 0
8.37015e-13 1.40383 0
-9.03178e-13 1.42552 0
2.71312e-13 1.42552 0
8.37015e-13 1.40383 0
-2.43658e-14 1.40383 0
-1.4611e-13 1.44834 0
4.65757e-13 1.44834 0
-1.91737e-14 1.42552 0
-4.66903e-13 1.42552 0
4.65757e-13 1.44834 0
-1.79888e-14 1.44834 0
-4.66903e-13 1.42552 0
1.62977e-13 1.42552 0
2.71312e-13 1.42552 0
9.89458e-14 1.42552 0
-2.43658e-14 1.40383 0
-1.88018e-13 1.40383 0
9.89458e-14 1.42552 0
1.03179e-13 1.42552 0
-1.88018e-13 1.40383 0
2.76594e-13 1.40383 0
0 1.40383 0
2.12924e-13 1.40383 0
0 1.38342 0
-1.00097e-13 1.38342 0
2.12924e-13 1.40383 0
1.85237e-13 1.40383 0
-1.00097e-13 1.38342 0
-1.65739e-13 1.38342 0
0 1.38342 0
1.5384e-13 1.38342 0
0 1.36414 0
-2.96371e-13 1.36414 0
1.5384e-13 1.38342 0
-1.49438e-13 1.38342 0
-2.96371e-13 1.36414 0
9.1936e-14 1.36414 0
1.85237e-13 1.40383 0
-7.0523e-13 1.40383 0
-1.65739e-13 1.38342 0
6.66364e-13 1.38342 0
-7.0523e-13 1.40383 0
2.75804e-13 1.40383 0
6.66364e-13 1.38342 0
-1.35217e-13 1.38342 0
-1.49438e-13 1.38342 0
4.95848e-13 1.38342 0
9.1936e-14 1.36414 0
-2.38063e-13 1.36414 0
4.95848e-13 1.38342 0
-4.59984e-14 1.38342 0
-2.38063e-13 1.36414 0
2.73341e-14 1.36414 0
0 1.36414 0
-3.74465e-13 1.36414 0
0 1.34596 0
3.45519e-14 1.34596 0
-3.74465e-13 1.36414 0
-1.37928e-13 1.36414 0
3.45519e-14 1.34596 0
1.76337e-13 1.34596 0
0 1.34596 0
1.95602e-13 1.34596 0
0 1.3288 0
-9.44233e-14 1.3288 0
1.95602e-13 1.34596 0
2.69392e-13 1.34596 0
-9.44233e-14 1.3288 0
-2.63242e-13 1.3288 0
-1.37928e-13 1.36414 0
-1.82891e-13 1.36414 0
1.76337e-13 1.34596 0
2.39795e-13 1.34596 0
-1.82891e-13 1.36414 0
6.28674e-15 1.36414 0
2.39795e-13 1.34596 0
2.9167e-15 1.34596 0
2.69392e-13 1.34596 0
9.90275e-14 1.34596 0
-2.63242e-13 1.3288 0
7.01012e-14 1.3288 0
9.90275e-14 1.34596 0
-9.1189e-14 1.34596 0
7.01012e-14 1.3288 0
1.41672e-13 1.3288 0
2.75804e-13 1.40383 0
5.33056e-13 1.40383 0
-1.35217e-13 1.38342 0
-4.71352e-13 1.38342 0
5.33056e-13 1.40383 0
-5.00168e-13 1.40383 0
-4.71352e-13 1.38342 0
6.00897e-13 1.38342 0
-4.59984e-14 1.38342 0
-5.30292e-13 1.38342 0
2.73341e-14 1.36414 0
3.79393e-13 1.36414 0
-5.30292e-13 1.38342 0
1.46742e-13 1.38342 0
3.79393e-13 1.36414 0
-6.63877e-15 1.36414 0
-5.00168e-13 1.40383 0
-3.39827e-13 1.40383 0
6.00897e-13 1.38342 0
2.17725e-13 1.38342 0
-3.39827e-13 1.40383 0
9.03407e-14 1.40383 0
2.17725e-13 1.38342 0
-2.10055e-13 1.38342 0
1.46742e-13 1.38342 0
3.12918e-13 1.38342 0
-6.63877e-15 1.36414 0
-2.26099e-13 1.36414 0
3.12918e-13 1.38342 0
-8.1226e-14 1.38342 0
-2.26099e-13 1.36414 0
-8.00594e-14 1.36414 0
6.28674e-15 1.36414 0
5.01633e-13 1.36414 0
2.9167e-15 1.34596 0
-4.99592e-13 1.34596 0
5.01633e-13 1.36414 0
7.92927e-14 1.36414 0
-4.99592e-13 1.34596 0
1.04295e-13 1.34596 0
-9.1189e-14 1.34596 0
-5.64468e-13 1.34596 0
1.41672e-13 1.3288 0
3.51063e-13 1.3288 0
-5.64468e-13 1.34596 0
2.48972e-13 1.34596 0
3.51063e-13 1.3288 0
-1.69588e-13 1.3288 0
7.92927e-14 1.36414 0
-9.21142e-14 1.36414 0
1.04295e-13 1.34596 0
2.41699e-13 1.34596 0
-9.21142e-14 1.36414 0
1.72601e-14 1.36414 0
2.41699e-13 1.34596 0
-3.81325e-13 1.34596 0
2.48972e-13 1.34596 0
5.90896e-13 1.34596 0
-1.69588e-13 1.3288 0
-6.48725e-13 1.3288 0
5.90896e-13 1.34596 0
-6.95539e-13 1.34596 0
-6.48725e-13 1.3288 0
8.36071e-13 1.3288 0
0 1.3288 0
-5.00098e-13 1.3288 0
0 1.3126 0
4.3936e-13 1.3126 0
-5.00098e-13 1.3288 0
-2.53509e-13 1.3288 0
4.3936e-13 1.3126 0
2.4193e-13 1.3126 0
0 1.3126 0
2.13599e-13 1.3126 0
0 1.29731 0
1.94699e-13 1.29731 0
2.13599e-13 1.3126 0
9.1555e-14 1.3126 0
1.94699e-13 1.29731 0
1.07291e-13 1.29731 0
-2.53509e-13 1.3288 0
4.37679e-13 1.3288 0
2.4193e-13 1.3126 0
-3.37319e-13 1.3126 0
4.37679e-13 1.3288 0
1.48876e-13 1.3288 0
-3.37319e-13 1.3126 0
1.73324e-14 1.3126 0
9.1555e-14 1.3126 0
-1.98996e-13 1.3126 0
1.07291e-13 1.29731 0
-2.08744e-13 1.29731 0
-1.98996e-13 1.3126 0
1.71962e-13 1.3126 0
-2.08744e-13 1.29731 0
-4.96476e-14 1.29731 0
0 1.29731 0
3.40026e-13 1.29731 0
0 1.28287 0
-8.82825e-14 1.28287 0
3.40026e-13 1.29731 0
4.30558e-13 1.29731 0
-8.82825e-14 1.28287 0
-5.42703e-13 1.28287 0
0 1.28287 0
-1.17554e-13 1.28287 0
0 1.26925 0
8.9513e-14 1.26925 0
-1.17554e-13 1.28287 0
-7.34983e-13 1.28287 0
8.9513e-14 1.26925 0
2.46203e-13 1.26925 0
4.30558e-13 1.29731 0
-5.52379e-13 1.29731 0
-5.42703e-13 1.28287 0
4.97247e-13 1.28287 0
-5.52379e-13 1.29731 0
-6.98307e-14 1.29731 0
4.97247e-13 1.28287 0
1.70358e-13 1.28287 0
-7.34983e-13 1.28287 0
5.50556e-13 1.28287 0
2.46203e-13 1.26925 0
-4.23913e-13 1.26925 0
5.50556e-13 1.28287 0
2.39212e-13 1.28287 0
-4.23913e-13 1.26925 0
-3.13612e-13 1.26925 0
1.48876e-13 1.3288 0
4.00999e-13 1.3288 0
1.73324e-14 1.3126 0
-4.61217e-13 1.3126 0
4.00999e-13 1.3288 0
-3.18999e-13 1.3288 0
-4.61217e-13 1.3126 0
3.35904e-13 1.3126 0
1.71962e-13 1.3126 0
-2.45761e-13 1.3126 0
-4.96476e-14 1.29731 0
2.65962e-15 1.29731 0
-2.45761e-13 1.3126 0
3.90126e-13 1.3126 0
2.65962e-15 1.29731 0
-1.55552e-13 1.29731 0
-3.18999e-13 1.3288 0
-4.50816e-13 1.3288 0
3.35904e-13 1.3126 0
2.82313e-13 1.3126 0
-4.50816e-13 1.3288 0
5.90214e-13 1.3288 0
2.82313e-13 1.3126 0
-3.2249e-13 1.3126 0
3.90126e-13 1.3126 0
-8.63865e-14 1.3126 0
-1.55552e-13 1.29731 0
2.54375e-13 1.29731 0
-8.63865e-14 1.3126 0
-4.27137e-13 1.3126 0
2.54375e-13 1.29731 0
2.54744e-13 1.29731 0
-6.98307e-14 1.29731 0
-8.14673e-14 1.29731 0
1.70358e-13 1.28287 0
-1.27839e-13 1.28287 0
-8.14673e-14 1.29731 0
-3.56465e-14 1.29731 0
-1.27839e-13 1.28287 0
7.04817e-14 1.28287 0
2.39212e-13 1.28287 0
-1.91891e-13 1.28287 0
-3.13612e-13 1.26925 0
2.81079e-14 1.26925 0
-1.91891e-13 1.28287 0
1.97332e-14 1.28287 0
2.81079e-14 1.26925 0
2.93149e-14 1.26925 0
-3.56465e-14 1.29731 0
1.97723e-13 1.29731 0
7.04817e-14 1.28287 0
4.83939e-15 1.28287 0
1.97723e-13 1.29731 0
3.46818e-13 1.29731 0
4.83939e-15 1.28287 0
-2.16254e-13 1.28287 0
1.97332e-14 1.28287 0
1.76013e-13 1.28287 0
2.93149e-14 1.26925 0
-1.23892e-13 1.26925 0
1.76013e-13 1.28287 0
-1.09643e-13 1.28287 0
-1.23892e-13 1.26925 0
9.74231e-14 1.26925 0
9.03407e-14 1.40383 0
5.82533e-14 1.40383 0
-2.10055e-13 1.38342 0
-4.11242e-14 1.38342 0
5.82533e-14 1.40383 0
1.73728e-13 1.40383 0
-4.11242e-14 1.38342 0
-1.77892e-13 1.38342 0
-8.1226e-14 1.38342 0
1.5482e-13 1.38342 0
-8.00594e-14 1.36414 0
1.12843e-13 1.36414 0
1.5482e-13 1.38342 0
-4.76711e-13 1.38342 0
1.12843e-13 1.36414 0
2.67157e-13 1.36414 0
1.73728e-13 1.40383 0
-1.45394e-13 1.40383 0
-1.77892e-13 1.38342 0
1.35017e-13 1.38342 0
-1.45394e-13 1.40383 0
-6.48849e-13 1.40383 0
1.35017e-13 1.38342 0
5.63469e-13 1.38342 0
-4.76711e-13 1.38342 0
1.39172e-13 1.38342 0
2.67157e-13 1.36414 0
-9.1362e-14 1.36414 0
1.39172e-13 1.38342 0
5.62104e-13 1.38342 0
-9.1362e-14 1.36414 0
-5.15733e-13 1.36414 0
1.72601e-14 1.36414 0
1.8984e-15 1.36414 0
-3.81325e-13 1.34596 0
-1.15565e-14 1.34596 0
1.8984e-15 1.36414 0
-1.64552e-13 1.36414 0
-1.15565e-14 1.34596 0
8.38071e-14 1.34596 0
-6.95539e-13 1.34596 0
-2.63738e-13 1.34596 0
8.36071e-13 1.3288 0
3.22084e-13 1.3288 0
-2.63738e-13 1.34596 0
4.16964e-13 1.34596 0
3.22084e-13 1.3288 0
-3.34063e-13 1.3288 0
-1.64552e-13 1.36414 0
1.89309e-13 1.36414 0
8.38071e-14 1.34596 0
1.3646e-14 1.34596 0
1.89309e-13 1.36414 0
-9.03992e-14 1.36414 0
1.3646e-14 1.34596 0
5.5173e-14 1.34596 0
4.16964e-13 1.34596 0
-2.73329e-13 1.34596 0
-3.34063e-13 1.3288 0
4.84707e-13 1.3288 0
-2.73329e-13 1.34596 0
8.97088e-14 1.34596 0
4.84707e-13 1.3288 0
-5.06498e-13 1.3288 0
-6.48849e-13 1.40383 0
9.90994e-13 1.40383 0
5.63469e-13 1.38342 0
-7.38567e-13 1.38342 0
9.90994e-13 1.40383 0
-2.76675e-13 1.40383 0
-7.38567e-13 1.38342 0
3.36329e-13 1.38342 0
5.62104e-13 1.38342 0
1.83059e-13 1.38342 0
-5.15733e-13 1.36414 0
-4.22862e-14 1.36414 0
1.83059e-13 1.38342 0
-2.5045e-13 1.38342 0
-4.22862e-14 1.36414 0
1.40925e-13 1.36414 0
-2.76675e-13 1.40383 0
-2.19193e-13 1.40383 0
3.36329e-13 1.38342 0
3.83833e-14 1.38342 0
-2.19193e-13 1.40383 0
8.62323e-13 1.40383 0
3.83833e-14 1.38342 0
-5.52481e-13 1.38342 0
-2.5045e-13 1.38342 0
-1.90596e-13 1.38342 0
1.40925e-13 1.36414 0
-2.16734e-14 1.36414 0
-1.90596e-13 1.38342 0
-3.96402e-13 1.38342 0
-2.16734e-14 1.36414 0
5.50256e-13 1.36414 0
-9.03992e-14 1.36414 0
-3.06338e-13 1.36414 0
5.5173e-14 1.34596 0
6.16305e-13 1.34596 0
-3.06338e-13 1.36414 0
4.05034e-13 1.36414 0
6.16305e-13 1.34596 0
-5.63159e-13 1.34596 0
8.97088e-14 1.34596 0
5.36349e-14 1.34596 0
-5.06498e-13 1.3288 0
-6.78757e-14 1.3288 0
5.36349e-14 1.34596 0
-9.90332e-14 1.34596 0
-6.78757e-14 1.3288 0
5.33327e-13 1.3288 0
4.05034e-13 1.36414 0
1.79688e-13 1.36414 0
-5.63159e-13 1.34596 0
5.49502e-14 1.34596 0
1.79688e-13 1.36414 0
1.44694e-13 1.36414 0
5.49502e-14 1.34596 0
-3.22778e-15 1.34596 0
-9.90332e-14 1.34596 0
4.81064e-14 1.34596 0
5.33327e-13 1.3288 0
-5.61747e-13 1.3288 0
4.81064e-14 1.34596 0
2.45404e-13 1.34596 0
-5.61747e-13 1.3288 0
4.24039e-14 1.3288 0
5.90214e-13 1.3288 0
-2.14336e-14 1.3288 0
-3.2249e-13 1.3126 0
4.75419e-16 1.3126 0
-2.14336e-14 1.3288 0
-1.65601e-13 1.3288 0
4.75419e-16 1.3126 0
-2.31877e-14 1.3126 0
-4.27137e-13 1.3126 0
3.75585e-14 1.3126 0
2.54744e-13 1.29731 0
-1.85867e-13 1.29731 0
3.75585e-14 1.3126 0
3.16111e-13 1.3126 0
-1.85867e-13 1.29731 0
-1.82022e-13 1.29731 0
-1.65601e-13 1.3288 0
5.57597e-13 1.3288 0
-2.31877e-14 1.3126 0
-4.70102e-13 1.3126 0
5.57597e-13 1.3288 0
-5.89821e-13 1.3288 0
-4.70102e-13 1.3126 0