# vtk DataFile Version 3.0
#This file was generated by the deal.II library on 2018/10/15 at 10:57:29
ASCII
DATASET UNSTRUCTURED_GRID

POINTS 20480 double
0 0 0
0.19635 0 0
0 0.304261 0
0.19635 0.304261 0
0.19635 0 0
0.392699 0 0
0.19635 0.304261 0
0.392699 0.304261 0
0 0.304261 0
0.19635 0.304261 0
0 0.616386 0
0.19635 0.616386 0
0.19635 0.304261 0
0.392699 0.304261 0
0.19635 0.616386 0
0.392699 0.616386 0
0.392699 0 0
0.589049 0 0
0.392699 0.304261 0
0.589049 0.304261 0
0.589049 0 0
0.785398 0 0
0.589049 0.304261 0
0.785398 0.304261 0
0.392699 0.304261 0
0.589049 0.304261 0
0.392699 0.616386 0
0.589049 0.616386 0
0.589049 0.304261 0
0.785398 0.304261 0
0.589049 0.616386 0
0.785398 0.616386 0
0 0.616386 0
0.19635 0.616386 0
0 0.929138 0
0.19635 0.929138 0
0.19635 0.616386 0
0.392699 0.616386 0
0.19635 0.929138 0
0.392699 0.929138 0
0 0.929138 0
0.19635 0.929138 0
0 1.24203 0
0.19635 1.24203 0
0.19635 0.929138 0
0.392699 0.929138 0
0.19635 1.24203 0
0.392699 1.24203 0
0.392699 0.616386 0
0.589049 0.616386 0
0.392699 0.929138 0
0.589049 0.929138 0
0.589049 0.616386 0
0.785398 0.616386 0
0.589049 0.929138 0
0.785398 0.929138 0
0.392699 0.929138 0
0.589049 0.929138 0
0.392699 1.24203 0
0.589049 1.24203 0
0.589049 0.929138 0
0.785398 0.929138 0
0.589049 1.24203 0
0.785398 1.24203 0
0.785398 0 0
0.981748 0 0
0.785398 0.304261 0
0.981748 0.304261 0
0.981748 0 0
1.1781 0 0
0.981748 0.304261 0
1.1781 0.304261 0
0.785398 0.304261 0
0.981748 0.304261 0
0.785398 0.616386 0
0.981748 0.616386 0
0.981748 0.304261 0
1.1781 0.304261 0
0.981748 0.616386 0
1.1781 0.616386 0
1.1781 0 0
1.37445 0 0
1.1781 0.304261 0
1.37445 0.304261 0
1.37445 0 0
1.5708 0 0
1.37445 0.304261 0
1.5708 0.304261 0
1.1781 0.304261 0
1.37445 0.304261 0
1.1781 0.616386 0
1.37445 0.616386 0
1.37445 0.304261 0
1.5708 0.304261 0
1.37445 0.616386 0
1.5708 0.616386 0
0.785398 0.616386 0
0.981748 0.616386 0
0.785398 0.929138 0
0.981748 0.929138 0
0.981748 0.616386 0
1.1781 0.616386 0
0.981748 0.929138 0
1.1781 0.929138 0
0.785398 0.929138 0
0.981748 0.929138 0
0.785398 1.24203 0
0.981748 1.24203 0
0.981748 0.929138 0
1.1781 0.929138 0
0.981748 1.24203 0
1.1781 1.24203 0
1.1781 0.616386 0
1.37445 0.616386 0
1.1781 0.929138 0
1.37445 0.929138 0
1.37445 0.616386 0
1.5708 0.616386 0
1.37445 0.929138 0
1.5708 0.929138 0
1.1781 0.929138 0
1.37445 0.929138 0
1.1781 1.24203 0
1.37445 1.24203 0
1.37445 0.929138 0
1.5708 0.929138 0
1.37445 1.24203 0
1.5708 1.24203 0
0 1.24203 0
0.19635 1.24203 0
0 1.5549 0
0.19635 1.5549 0
0.19635 1.24203 0
0.392699 1.24203 0
0.19635 1.5549 0
0.392699 1.5549 0
0 1.5549 0
0.19635 1.5549 0
0 1.86777 0
0.19635 1.86777 0
0.19635 1.5549 0
0.392699 1.5549 0
0.19635 1.86777 0
0.392699 1.86777 0
0.392699 1.24203 0
0.589049 1.24203 0
0.392699 1.5549 0
0.589049 1.5549 0
0.589049 1.24203 0
0.785398 1.24203 0
0.589049 1.5549 0
0.785398 1.5549 0
0.392699 1.5549 0
0.589049 1.5549 0
0.392699 1.86777 0
0.589049 1.86777 0
0.589049 1.5549 0
0.785398 1.5549 0
0.589049 1.86777 0
0.785398 1.86777 0
0 1.86777 0
0.19635 1.86777 0
0 2.18063 0
0.19635 2.18063 0
0.19635 1.86777 0
0.392699 1.86777 0
0.19635 2.18063 0
0.392699 2.18063 0
0 2.18063 0
0.19635 2.18063 0
0 2.49347 0
0.19635 2.49347 0
0.19635 2.18063 0
0.392699 2.18063 0
0.19635 2.49347 0
0.392699 2.49347 0
0.392699 1.86777 0
0.589049 1.86777 0
0.392699 2.18063 0
0.589049 2.18063 0
0.589049 1.86777 0
0.785398 1.86777 0
0.589049 2.18063 0
0.785398 2.18063 0
0.392699 2.18063 0
0.589049 2.18063 0
0.392699 2.49347 0
0.589049 2.49347 0
0.589049 2.18063 0
0.785398 2.18063 0
0.589049 2.49347 0
0.785398 2.49347 0
0.785398 1.24203 0
0.981748 1.24203 0
0.785398 1.5549 0
0.981748 1.5549 0
0.981748 1.24203 0
1.1781 1.24203 0
0.981748 1.5549 0
1.1781 1.5549 0
0.785398 1.5549 0
0.981748 1.5549 0
0.785398 1.86777 0
0.981748 1.86777 0
0.981748 1.5549 0
1.1781 1.5549 0
0.981748 1.86777 0
1.1781 1.86777 0
1.1781 1.24203 0
1.37445 1.24203 0
1.1781 1.5549 0
1.37445 1.5549 0
1.37445 1.24203 0
1.5708 1.24203 0
1.37445 1.5549 0
1.5708 1.5549 0
1.1781 1.5549 0
1.37445 1.5549 0
1.1781 1.86777 0
1.37445 1.86777 0
1.37445 1.5549 0
1.5708 1.5549 0
1.37445 1.86777 0
1.5708 1.86777 0
0.785398 1.86777 0
0.981748 1.86777 0
0.785398 2.18063 0
0.981748 2.18063 0
0.981748 1.86777 0
1.1781 1.86777 0
0.981748 2.18063 0
1.1781 2.18063 0
0.785398 2.18063 0
0.981748 2.18063 0
0.785398 2.49347 0
0.981748 2.49347 0
0.981748 2.18063 0
1.1781 2.18063 0
0.981748 2.49347 0
1.1781 2.49347 0
1.1781 1.86777 0
1.37445 1.86777 0
1.1781 2.18063 0
1.37445 2.18063 0
1.37445 1.86777 0
1.5708 1.86777 0
1.37445 2.18063 0
1.5708 2.18063 0
1.1781 2.18063 0
1.37445 2.18063 0
1.1781 2.49347 0
1.37445 2.49347 0
1.37445 2.18063 0
1.5708 2.18063 0
1.37445 2.49347 0
1.5708 2.49347 0
1.5708 0 0
1.76715 0 0
1.5708 0.304261 0
1.76715 0.304261 0
1.76715 0 0
1.9635 0 0
1.76715 0.304261 0
1.9635 0.304261 0
1.5708 0.304261 0
1.76715 0.304261 0
1.5708 0.616386 0
1.76715 0.616386 0
1.76715 0.304261 0
1.9635 0.304261 0
1.76715 0.616386 0
1.9635 0.616386 0
1.9635 0 0
2.15984 0 0
1.9635 0.304261 0
2.15984 0.304261 0
2.15984 0 0
2.35619 0 0
2.15984 0.304261 0
2.35619 0.304261 0
1.9635 0.304261 0
2.15984 0.304261 0
1.9635 0.616386 0
2.15984 0.616386 0
2.15984 0.304261 0
2.35619 0.304261 0
2.15984 0.616386 0
2.35619 0.616386 0
1.5708 0.616386 0
1.76715 0.616386 0
1.5708 0.929138 0
1.76715 0.929138 0
1.76715 0.616386 0
1.9635 0.616386 0
1.76715 0.929138 0
1.9635 0.929138 0
1.5708 0.929138 0
1.76715 0.929138 0
1.5708 1.24203 0
1.76715 1.24203 0
1.76715 0.929138 0
1.9635 0.929138 0
1.76715 1.24203 0
1.9635 1.24203 0
1.9635 0.616386 0
2.15984 0.616386 0
1.9635 0.929138 0
2.15984 0.929138 0
2.15984 0.616386 0
2.35619 0.616386 0
2.15984 0.929138 0
2.35619 0.929138 0
1.9635 0.929138 0
2.15984 0.929138 0
1.9635 1.24203 0
2.15984 1.24203 0
2.15984 0.929138 0
2.35619 0.929138 0
2.15984 1.24203 0
2.35619 1.24203 0
2.35619 0 0
2.55254 0 0
2.35619 0.304261 0
2.55254 0.304261 0
2.55254 0 0
2.74889 0 0
2.55254 0.304261 0
2.74889 0.304261 0
2.35619 0.304261 0
2.55254 0.304261 0
2.35619 0.616386 0
2.55254 0.616386 0
2.55254 0.304261 0
2.74889 0.304261 0
2.55254 0.616386 0
2.74889 0.616386 0
2.74889 0 0
2.94524 0 0
2.74889 0.304261 0
2.94524 0.304261 0
2.94524 0 0
3.14159 0 0
2.94524 0.304261 0
3.14159 0.304261 0
2.74889 0.304261 0
2.94524 0.304261 0
2.74889 0.616386 0
2.94524 0.616386 0
2.94524 0.304261 0
3.14159 0.304261 0
2.94524 0.616386 0
3.14159 0.616386 0
2.35619 0.616386 0
2.55254 0.616386 0
2.35619 0.929138 0
2.55254 0.929138 0
2.55254 0.616386 0
2.74889 0.616386 0
2.55254 0.929138 0
2.74889 0.929138 0
2.35619 0.929138 0
2.55254 0.929138 0
2.35619 1.24203 0
2.55254 1.24203 0
2.55254 0.929138 0
2.74889 0.929138 0
2.55254 1.24203 0
2.74889 1.24203 0
2.74889 0.616386 0
2.94524 0.616386 0
2.74889 0.929138 0
2.94524 0.929138 0
2.94524 0.616386 0
3.14159 0.616386 0
2.94524 0.929138 0
3.14159 0.929138 0
2.74889 0.929138 0
2.94524 0.929138 0
2.74889 1.24203 0
2.94524 1.24203 0
2.94524 0.929138 0
3.14159 0.929138 0
2.94524 1.24203 0
3.14159 1.24203 0
1.5708 1.24203 0
1.76715 1.24203 0
1.5708 1.5549 0
1.76715 1.5549 0
1.76715 1.24203 0
1.9635 1.24203 0
1.76715 1.5549 0
1.9635 1.5549 0
1.5708 1.5549 0
1.76715 1.5549 0
1.5708 1.86777 0
1.76715 1.86777 0
1.76715 1.5549 0
1.9635 1.5549 0
1.76715 1.86777 0
1.9635 1.86777 0
1.9635 1.24203 0
2.15984 1.24203 0
1.9635 1.5549 0
2.15984 1.5549 0
2.15984 1.24203 0
2.35619 1.24203 0
2.15984 1.5549 0
2.35619 1.5549 0
1.9635 1.5549 0
2.15984 1.5549 0
1.9635 1.86777 0
2.15984 1.86777 0
2.15984 1.5549 0
2.35619 1.5549 0
2.15984 1.86777 0
2.35619 1.86777 0
1.5708 1.86777 0
1.76715 1.86777 0
1.5708 2.18063 0
1.76715 2.18063 0
1.76715 1.86777 0
1.9635 1.86777 0
1.76715 2.18063 0
1.9635 2.18063 0
1.5708 2.18063 0
1.76715 2.18063 0
1.5708 2.49347 0
1.76715 2.49347 0
1.76715 2.18063 0
1.9635 2.18063 0
1.76715 2.49347 0
1.9635 2.49347 0
1.9635 1.86777 0
2.15984 1.86777 0
1.9635 2.18063 0
2.15984 2.18063 0
2.15984 1.86777 0
2.35619 1.86777 0
2.15984 2.18063 0
2.35619 2.18063 0
1.9635 2.18063 0
2.15984 2.18063 0
1.9635 2.49347 0
2.15984 2.49347 0
2.15984 2.18063 0
2.35619 2.18063 0
2.15984 2.49347 0
2.35619 2.49347 0
2.35619 1.24203 0
2.55254 1.24203 0
2.35619 1.5549 0
2.55254 1.5549 0
2.55254 1.24203 0
2.74889 1.24203 0
2.55254 1.5549 0
2.74889 1.5549 0
2.35619 1.5549 0
2.55254 1.5549 0
2.35619 1.86777 0
2.55254 1.86777 0
2.55254 1.5549 0
2.74889 1.5549 0
2.55254 1.86777 0
2.74889 1.86777 0
2.74889 1.24203 0
2.94524 1.24203 0
2.74889 1.5549 0
2.94524 1.5549 0
2.94524 1.24203 0
3.14159 1.24203 0
2.94524 1.5549 0
3.14159 1.5549 0
2.74889 1.5549 0
2.94524 1.5549 0
2.74889 1.86777 0
2.94524 1.86777 0
2.94524 1.5549 0
3.14159 1.5549 0
2.94524 1.86777 0
3.14159 1.86777 0
2.35619 1.86777 0
2.55254 1.86777 0
2.35619 2.18063 0
2.55254 2.18063 0
2.55254 1.86777 0
2.74889 1.86777 0
2.55254 2.18063 0
2.74889 2.18063 0
2.35619 2.18063 0
2.55254 2.18063 0
2.35619 2.49347 0
2.55254 2.49347 0
2.55254 2.18063 0
2.74889 2.18063 0
2.55254 2.49347 0
2.74889 2.49347 0
2.74889 1.86777 0
2.94524 1.86777 0
2.74889 2.18063 0
2.94524 2.18063 0
2.94524 1.86777 0
3.14159 1.86777 0
2.94524 2.18063 0
3.14159 2.18063 0
2.74889 2.18063 0
2.94524 2.18063 0
2.74889 2.49347 0
2.94524 2.49347 0
2.94524 2.18063 0
3.14159 2.18063 0
2.94524 2.49347 0
3.14159 2.49347 0
0 2.49347 0
0.19635 2.49347 0
0 2.80631 0
0.19635 2.80631 0
0.19635 2.49347 0
0.392699 2.49347 0
0.19635 2.80631 0
0.392699 2.80631 0
0 2.80631 0
0.19635 2.80631 0
0 3.11914 0
0.19635 3.11914 0
0.19635 2.80631 0
0.392699 2.80631 0
0.19635 3.11914 0
0.392699 3.11914 0
0.392699 2.49347 0
0.589049 2.49347 0
0.392699 2.80631 0
0.589049 2.80631 0
0.589049 2.49347 0
0.785398 2.49347 0
0.589049 2.80631 0
0.785398 2.80631 0
0.392699 2.80631 0
0.589049 2.80631 0
0.392699 3.11914 0
0.589049 3.11914 0
0.589049 2.80631 0
0.785398 2.80631 0
0.589049 3.11914 0
0.785398 3.11914 0
0 3.11914 0
0.19635 3.11914 0
0 3.43195 0
0.19635 3.43195 0
0.19635 3.11914 0
0.392699 3.11914 0
0.19635 3.43195 0
0.392699 3.43195 0
0 3.43195 0
0.19635 3.43195 0
0 3.74476 0
[...]
POINT_DATA 20480
VECTORS uf double
0 1 0
-2.02799e-13 1 0
0 1.46018 0
3.51699e-13 1.46018 0
-2.02799e-13 1 0
-2.83824e-14 1 0
3.51699e-13 1.46018 0
2.12438e-14 1.46018 0
0 1.46018 0
2.90736e-13 1.46018 0
0 1.42822 0
-1.16886e-13 1.42822 0
2.90736e-13 1.46018 0
-2.14625e-13 1.46018 0
-1.16886e-13 1.42822 0
3.00774e-13 1.42822 0
-2.83824e-14 1 0
7.86341e-14 1 0
2.12438e-14 1.46018 0
-1.63368e-13 1.46018 0
7.86341e-14 1 0
-1.56671e-13 1 0
-1.63368e-13 1.46018 0
3.03254e-13 1.46018 0
-2.14625e-13 1.46018 0
-4.46054e-13 1.46018 0
3.00774e-13 1.42822 0
5.37465e-13 1.42822 0
-4.46054e-13 1.46018 0
2.46052e-13 1.46018 0
5.37465e-13 1.42822 0
4.07352e-14 1.42822 0
0 1.42822 0
8.36946e-14 1.42822 0
0 1.41307 0
-1.60808e-13 1.41307 0
8.36946e-14 1.42822 0
2.83912e-13 1.42822 0
-1.60808e-13 1.41307 0
-2.06522e-13 1.41307 0
0 1.41307 0
-1.30735e-13 1.41307 0
0 1.39176 0
-2.37078e-14 1.39176 0
-1.30735e-13 1.41307 0
-1.03978e-13 1.41307 0
-2.37078e-14 1.39176 0
3.4529e-13 1.39176 0
2.83912e-13 1.42822 0
4.7038e-13 1.42822 0
-2.06522e-13 1.41307 0
-2.7896e-13 1.41307 0
4.7038e-13 1.42822 0
4.68318e-15 1.42822 0
-2.7896e-13 1.41307 0
2.55279e-13 1.41307 0
-1.03978e-13 1.41307 0
1.86789e-13 1.41307 0
3.4529e-13 1.39176 0
-4.34875e-13 1.39176 0
1.86789e-13 1.41307 0
2.99732e-13 1.41307 0
-4.34875e-13 1.39176 0
1.71239e-14 1.39176 0
-1.56671e-13 1 0
-2.67949e-13 1 0
3.03254e-13 1.46018 0
3.5217e-13 1.46018 0
-2.67949e-13 1 0
7.40965e-14 1 0
3.5217e-13 1.46018 0
-1.3731e-13 1.46018 0
2.46052e-13 1.46018 0
4.24734e-13 1.46018 0
4.07352e-14 1.42822 0
-3.98219e-13 1.42822 0
4.24734e-13 1.46018 0
4.6321e-13 1.46018 0
-3.98219e-13 1.42822 0
-5.48369e-13 1.42822 0
7.40965e-14 1 0
7.25626e-13 1 0
-1.3731e-13 1.46018 0
-1.29084e-12 1.46018 0
7.25626e-13 1 0
3.08051e-13 1 0
-1.29084e-12 1.46018 0
-5.84651e-13 1.46018 0
4.6321e-13 1.46018 0
-1.17656e-12 1.46018 0
-5.48369e-13 1.42822 0
3.47595e-13 1.42822 0
-1.17656e-12 1.46018 0
-5.28644e-13 1.46018 0
3.47595e-13 1.42822 0
2.7777e-13 1.42822 0
4.68318e-15 1.42822 0
-3.3917e-13 1.42822 0
2.55279e-13 1.41307 0
1.69673e-13 1.41307 0
-3.3917e-13 1.42822 0
-3.73562e-13 1.42822 0
1.69673e-13 1.41307 0
4.67285e-14 1.41307 0
2.99732e-13 1.41307 0
1.04608e-14 1.41307 0
1.71239e-14 1.39176 0
-7.16125e-14 1.39176 0
1.04608e-14 1.41307 0
-3.01296e-13 1.41307 0
-7.16125e-14 1.39176 0
1.56487e-13 1.39176 0
-3.73562e-13 1.42822 0
-2.76096e-13 1.42822 0
4.67285e-14 1.41307 0
2.29156e-14 1.41307 0
-2.76096e-13 1.42822 0
1.21755e-14 1.42822 0
2.29156e-14 1.41307 0
-2.89009e-13 1.41307 0
-3.01296e-13 1.41307 0
-1.48831e-13 1.41307 0
1.56487e-13 1.39176 0
5.88108e-14 1.39176 0
-1.48831e-13 1.41307 0
7.65521e-14 1.41307 0
5.88108e-14 1.39176 0
-2.73e-13 1.39176 0
0 1.39176 0
-8.37248e-14 1.39176 0
0 1.37321 0
1.48102e-13 1.37321 0
-8.37248e-14 1.39176 0
5.04975e-13 1.39176 0
1.48102e-13 1.37321 0
-5.01645e-13 1.37321 0
0 1.37321 0
2.09399e-13 1.37321 0
0 1.35502 0
-1.91892e-13 1.35502 0
2.09399e-13 1.37321 0
-3.40329e-13 1.37321 0
-1.91892e-13 1.35502 0
9.57159e-14 1.35502 0
5.04975e-13 1.39176 0
-3.88775e-13 1.39176 0
-5.01645e-13 1.37321 0
2.78151e-13 1.37321 0
-3.88775e-13 1.39176 0
-5.36956e-14 1.39176 0
2.78151e-13 1.37321 0
2.24701e-13 1.37321 0
-3.40329e-13 1.37321 0
1.18635e-13 1.37321 0
9.57159e-14 1.35502 0
-1.26402e-13 1.35502 0
1.18635e-13 1.37321 0
1.17023e-13 1.37321 0
-1.26402e-13 1.35502 0
1.19072e-13 1.35502 0
0 1.35502 0
-1.47393e-13 1.35502 0
0 1.33786 0
-4.87583e-14 1.33786 0
-1.47393e-13 1.35502 0
-1.23562e-13 1.35502 0
-4.87583e-14 1.33786 0
4.42992e-14 1.33786 0
0 1.33786 0
-1.49494e-13 1.33786 0
0 1.32147 0
1.47103e-13 1.32147 0
-1.49494e-13 1.33786 0
5.56191e-14 1.33786 0
1.47103e-13 1.32147 0
9.76534e-14 1.32147 0
-1.23562e-13 1.35502 0
-1.9578e-14 1.35502 0
4.42992e-14 1.33786 0
4.5115e-14 1.33786 0
-1.9578e-14 1.35502 0
2.95634e-13 1.35502 0
4.5115e-14 1.33786 0
-2.33458e-13 1.33786 0
5.56191e-14 1.33786 0
1.00151e-13 1.33786 0
9.76534e-14 1.32147 0
-3.06436e-13 1.32147 0
1.00151e-13 1.33786 0
-2.45697e-13 1.33786 0
-3.06436e-13 1.32147 0
2.46822e-13 1.32147 0
-5.36956e-14 1.39176 0
3.64836e-14 1.39176 0
2.24701e-13 1.37321 0
-1.51167e-13 1.37321 0
3.64836e-14 1.39176 0
-1.99694e-15 1.39176 0
-1.51167e-13 1.37321 0
-1.04352e-13 1.37321 0
1.17023e-13 1.37321 0
-2.7429e-13 1.37321 0
1.19072e-13 1.35502 0
1.75418e-13 1.35502 0
-2.7429e-13 1.37321 0
5.33383e-15 1.37321 0
1.75418e-13 1.35502 0
-1.38645e-13 1.35502 0
-1.99694e-15 1.39176 0
-2.69214e-13 1.39176 0
-1.04352e-13 1.37321 0
1.56238e-13 1.37321 0
-2.69214e-13 1.39176 0
-3.37555e-13 1.39176 0
1.56238e-13 1.37321 0
2.01439e-13 1.37321 0
5.33383e-15 1.37321 0
-1.24141e-14 1.37321 0
-1.38645e-13 1.35502 0
3.92924e-14 1.35502 0
-1.24141e-14 1.37321 0
1.82161e-13 1.37321 0
3.92924e-14 1.35502 0
-4.08229e-13 1.35502 0
2.95634e-13 1.35502 0
1.08562e-13 1.35502 0
-2.33458e-13 1.33786 0
-2.31866e-13 1.33786 0
1.08562e-13 1.35502 0
-1.909e-13 1.35502 0
-2.31866e-13 1.33786 0
-7.06627e-18 1.33786 0
-2.45697e-13 1.33786 0
-2.01615e-13 1.33786 0
2.46822e-13 1.32147 0
3.17715e-13 1.32147 0
-2.01615e-13 1.33786 0
-1.29766e-14 1.33786 0
3.17715e-13 1.32147 0
-2.29096e-13 1.32147 0
-1.909e-13 1.35502 0
-3.91783e-13 1.35502 0
-7.06627e-18 1.33786 0
4.84909e-13 1.33786 0
-3.91783e-13 1.35502 0
2.55743e-14 1.35502 0
4.84909e-13 1.33786 0
1.36675e-13 1.33786 0
-1.29766e-14 1.33786 0
1.28701e-13 1.33786 0
-2.29096e-13 1.32147 0
-2.20696e-13 1.32147 0
1.28701e-13 1.33786 0
3.16013e-13 1.33786 0
-2.20696e-13 1.32147 0
-1.18176e-13 1.32147 0
3.08051e-13 1 0
-3.21906e-13 1 0
-5.84651e-13 1.46018 0
5.80481e-13 1.46018 0
-3.21906e-13 1 0
-2.26575e-13 1 0
5.80481e-13 1.46018 0
2.11439e-13 1.46018 0
-5.28644e-13 1.46018 0
6.75801e-13 1.46018 0
2.7777e-13 1.42822 0
-4.77133e-13 1.42822 0
6.75801e-13 1.46018 0
3.94308e-13 1.46018 0
-4.77133e-13 1.42822 0
-2.78128e-13 1.42822 0
-2.26575e-13 1 0
-3.0906e-13 1 0
2.11439e-13 1.46018 0
2.84515e-13 1.46018 0
-3.0906e-13 1 0
3.25075e-13 1 0
2.84515e-13 1.46018 0
-6.13849e-14 1.46018 0
3.94308e-13 1.46018 0
-2.4622e-13 1.46018 0
-2.78128e-13 1.42822 0
2.10793e-13 1.42822 0
-2.4622e-13 1.46018 0
2.97628e-13 1.46018 0
2.10793e-13 1.42822 0
-2.92875e-13 1.42822 0
1.21755e-14 1.42822 0
-1.5983e-13 1.42822 0
-2.89009e-13 1.41307 0
1.25872e-13 1.41307 0
-1.5983e-13 1.42822 0
-1.20155e-13 1.42822 0
1.25872e-13 1.41307 0
8.30101e-14 1.41307 0
7.65521e-14 1.41307 0
-7.57453e-14 1.41307 0
-2.73e-13 1.39176 0
9.536e-14 1.39176 0
-7.57453e-14 1.41307 0
4.17081e-14 1.41307 0
9.536e-14 1.39176 0
-2.68767e-13 1.39176 0
-1.20155e-13 1.42822 0
4.41338e-13 1.42822 0
8.30101e-14 1.41307 0
-2.69433e-13 1.41307 0
4.41338e-13 1.42822 0
-4.61781e-13 1.42822 0
-2.69433e-13 1.41307 0
2.66005e-13 1.41307 0
4.17081e-14 1.41307 0
-5.1136e-13 1.41307 0
-2.68767e-13 1.39176 0
5.8666e-13 1.39176 0
-5.1136e-13 1.41307 0
-1.18124e-13 1.41307 0
5.8666e-13 1.39176 0
1.38314e-13 1.39176 0
3.25075e-13 1 0
1.42811e-13 1 0
-6.13849e-14 1.46018 0
-1.99238e-13 1.46018 0
1.42811e-13 1 0
-9.78664e-14 1 0
-1.99238e-13 1.46018 0
-5.05071e-14 1.46018 0
2.97628e-13 1.46018 0
-1.97608e-13 1.46018 0
-2.92875e-13 1.42822 0
1.71969e-13 1.42822 0
-1.97608e-13 1.46018 0
-3.35506e-13 1.46018 0
1.71969e-13 1.42822 0
2.28206e-13 1.42822 0
-9.78664e-14 1 0
-2.10541e-13 1 0
-5.05071e-14 1.46018 0
2.19122e-13 1.46018 0
-2.10541e-13 1 0
1.45465e-13 1 0
2.19122e-13 1.46018 0
-1.62797e-13 1.46018 0
-3.35506e-13 1.46018 0
1.75826e-13 1.46018 0
2.28206e-13 1.42822 0
-8.03204e-14 1.42822 0
1.75826e-13 1.46018 0
3.52612e-13 1.46018 0
-8.03204e-14 1.42822 0
-1.10589e-13 1.42822 0
-4.61781e-13 1.42822 0
-3.60885e-14 1.42822 0
2.66005e-13 1.41307 0
5.56653e-14 1.41307 0
-3.60885e-14 1.42822 0
-2.52776e-13 1.42822 0
5.56653e-14 1.41307 0
2.28705e-13 1.41307 0
-1.18124e-13 1.41307 0
6.78072e-13 1.41307 0
1.38314e-13 1.39176 0
-6.31606e-13 1.39176 0
6.78072e-13 1.41307 0
-1.89568e-14 1.41307 0
-6.31606e-13 1.39176 0
2.14558e-13 1.39176 0
-2.52776e-13 1.42822 0
4.35484e-14 1.42822 0
2.28705e-13 1.41307 0
-6.43323e-14 1.41307 0
4.35484e-14 1.42822 0
1.59664e-13 1.42822 0
-6.43323e-14 1.41307 0
-2.04313e-13 1.41307 0
-1.89568e-14 1.41307 0
-2.68313e-13 1.41307 0
2.14558e-13 1.39176 0
-2.90234e-13 1.39176 0
-2.68313e-13 1.41307 0
1.44154e-13 1.41307 0
-2.90234e-13 1.39176 0
1.25747e-13 1.39176 0
-3.37555e-13 1.39176 0
4.46212e-13 1.39176 0
2.01439e-13 1.37321 0
-5.449e-13 1.37321 0
4.46212e-13 1.39176 0
-1.62923e-13 1.39176 0
-5.449e-13 1.37321 0
2.30886e-13 1.37321 0
1.82161e-13 1.37321 0
-1.21387e-13 1.37321 0
-4.08229e-13 1.35502 0
3.55278e-13 1.35502 0
-1.21387e-13 1.37321 0
-9.64604e-14 1.37321 0
3.55278e-13 1.35502 0
6.66188e-15 1.35502 0
-1.62923e-13 1.39176 0
-6.71284e-14 1.39176 0
2.30886e-13 1.37321 0
-2.23048e-13 1.37321 0
-6.71284e-14 1.39176 0
-3.76896e-14 1.39176 0
-2.23048e-13 1.37321 0
-1.1612e-13 1.37321 0
-9.64604e-14 1.37321 0
1.1835e-14 1.37321 0
6.66188e-15 1.35502 0
-1.37046e-13 1.35502 0
1.1835e-14 1.37321 0
-2.96851e-13 1.37321 0
-1.37046e-13 1.35502 0
5.19884e-14 1.35502 0
2.55743e-14 1.35502 0
2.43238e-13 1.35502 0
1.36675e-13 1.33786 0
-1.62541e-13 1.33786 0
2.43238e-13 1.35502 0
6.13802e-14 1.35502 0
-1.62541e-13 1.33786 0
-1.78772e-13 1.33786 0
3.16013e-13 1.33786 0
-1.08637e-13 1.33786 0
-1.18176e-13 1.32147 0
-3.79766e-15 1.32147 0
-1.08637e-13 1.33786 0
5.07237e-14 1.33786 0
-3.79766e-15 1.32147 0
5.66821e-14 1.32147 0
6.13802e-14 1.35502 0
-1.60479e-13 1.35502 0
-1.78772e-13 1.33786 0
2.51469e-13 1.33786 0
-1.60479e-13 1.35502 0
2.88577e-13 1.35502 0
2.51469e-13 1.33786 0
-2.27281e-13 1.33786 0
5.07237e-14 1.33786 0
-4.97399e-14 1.33786 0
5.66821e-14 1.32147 0
-1.45939e-13 1.32147 0
-4.97399e-14 1.33786 0
3.13944e-13 1.33786 0
-1.45939e-13 1.32147 0
-2.5618e-13 1.32147 0
-3.76896e-14 1.39176 0
2.81644e-13 1.39176 0
-1.1612e-13 1.37321 0
1.45333e-13 1.37321 0
2.81644e-13 1.39176 0
-3.9119e-13 1.39176 0
1.45333e-13 1.37321 0
1.44882e-13 1.37321 0
-2.96851e-13 1.37321 0
-6.49876e-14 1.37321 0
5.19884e-14 1.35502 0
1.43518e-13 1.35502 0
-6.49876e-14 1.37321 0
-1.95968e-14 1.37321 0
1.43518e-13 1.35502 0
-7.59736e-14 1.35502 0
-3.9119e-13 1.39176 0
4.1248e-13 1.39176 0
1.44882e-13 1.37321 0
-4.33007e-13 1.37321 0
4.1248e-13 1.39176 0
-5.61765e-13 1.39176 0
-4.33007e-13 1.37321 0
4.40592e-13 1.37321 0
-1.95968e-14 1.37321 0
-1.39408e-13 1.37321 0
-7.59736e-14 1.35502 0
3.74647e-13 1.35502 0
-1.39408e-13 1.37321 0
1.81297e-13 1.37321 0
3.74647e-13 1.35502 0
-2.06355e-13 1.35502 0
2.88577e-13 1.35502 0
-4.99783e-13 1.35502 0
-2.27281e-13 1.33786 0
6.35552e-13 1.33786 0
-4.99783e-13 1.35502 0
-3.9751e-15 1.35502 0
6.35552e-13 1.33786 0
-2.1497e-13 1.33786 0
3.13944e-13 1.33786 0
-6.03549e-13 1.33786 0
-2.5618e-13 1.32147 0
2.92035e-13 1.32147 0
-6.03549e-13 1.33786 0
2.46349e-14 1.33786 0
2.92035e-13 1.32147 0
1.637e-13 1.32147 0
-3.9751e-15 1.35502 0
4.49912e-13 1.35502 0
-2.1497e-13 1.33786 0
-5.15148e-13 1.33786 0
4.49912e-13 1.35502 0
-1.20665e-13 1.35502 0
-5.15148e-13 1.33786 0
1.46607e-13 1.33786 0
2.46349e-14 1.33786 0
-3.52147e-14 1.33786 0
1.637e-13 1.32147 0
2.20972e-14 1.32147 0
-3.52147e-14 1.33786 0
2.70657e-13 1.33786 0
2.20972e-14 1.32147 0
-1.82662e-13 1.32147 0
0 1.32147 0
-1.80847e-14 1.32147 0
0 1.30589 0
7.65075e-14 1.30589 0
-1.80847e-14 1.32147 0
3.10738e-13 1.32147 0
7.65075e-14 1.30589 0
-3.99087e-13 1.30589 0
0 1.30589 0
2.35074e-13 1.30589 0
0 1.29104 0
-2.23701e-13 1.29104 0
2.35074e-13 1.30589 0
-4.94021e-13 1.30589 0
-2.23701e-13 1.29104 0
2.96105e-13 1.29104 0
3.10738e-13 1.32147 0
-4.80156e-13 1.32147 0
-3.99087e-13 1.30589 0
5.80612e-13 1.30589 0
-4.80156e-13 1.32147 0
1.70545e-13 1.32147 0
5.80612e-13 1.30589 0
-6.74686e-14 1.30589 0
-4.94021e-13 1.30589 0
5.61463e-13 1.30589 0
2.96105e-13 1.29104 0
-3.23513e-13 1.29104 0
5.61463e-13 1.30589 0
1.22098e-13 1.30589 0
-3.23513e-13 1.29104 0
5.014e-16 1.29104 0
0 1.29104 0
-1.08303e-13 1.29104 0
0 1.27691 0
-6.02563e-14 1.27691 0
-1.08303e-13 1.29104 0
9.52812e-14 1.29104 0
-6.02563e-14 1.27691 0
4.50855e-14 1.27691 0
0 1.27691 0
3.6637e-16 1.27691 0
0 1.26345 0
-6.93804e-14 1.26345 0
3.6637e-16 1.27691 0
1.74667e-13 1.27691 0
-6.93804e-14 1.26345 0
-1.02925e-13 1.26345 0
9.52812e-14 1.29104 0
-2.68776e-13 1.29104 0
4.50855e-14 1.27691 0
1.00045e-13 1.27691 0
-2.68776e-13 1.29104 0
-9.01832e-14 1.29104 0
1.00045e-13 1.27691 0
-6.18564e-14 1.27691 0
1.74667e-13 1.27691 0
-3.34816e-14 1.27691 0
-1.02925e-13 1.26345 0
3.53712e-14 1.26345 0
-3.34816e-14 1.27691 0
-8.13912e-14 1.27691 0
3.53712e-14 1.26345 0
1.22385e-13 1.26345 0
1.70545e-13 1.32147 0
2.98693e-13 1.32147 0
-6.74686e-14 1.30589 0
-2.28326e-13 1.30589 0
2.98693e-13 1.32147 0
-3.89873e-13 1.32147 0
-2.28326e-13 1.30589 0
3.84637e-13 1.30589 0
1.22098e-13 1.30589 0
-2.93386e-13 1.30589 0
5.014e-16 1.29104 0
2.73844e-13 1.29104 0
-2.93386e-13 1.30589 0
3.44964e-14 1.30589 0
2.73844e-13 1.29104 0
5.69447e-14 1.29104 0
-3.89873e-13 1.32147 0
-1.07372e-13 1.32147 0
3.84637e-13 1.30589 0
-1.48182e-13 1.30589 0
-1.07372e-13 1.32147 0
1.15061e-13 1.32147 0
-1.48182e-13 1.30589 0
4.99446e-14 1.30589 0
3.44964e-14 1.30589 0
-3.20063e-14 1.30589 0
5.69447e-14 1.29104 0
8.02544e-14 1.29104 0
-3.20063e-14 1.30589 0
5.7545e-14 1.30589 0
8.02544e-14 1.29104 0
-3.02061e-13 1.29104 0
-9.01832e-14 1.29104 0
2.32313e-13 1.29104 0
-6.18564e-14 1.27691 0
-1.49572e-13 1.27691 0
2.32313e-13 1.29104 0
5.83236e-14 1.29104 0
-1.49572e-13 1.27691 0
-8.70537e-14 1.27691 0
-8.13912e-14 1.27691 0
-1.67805e-13 1.27691 0
1.22385e-13 1.26345 0
2.17211e-13 1.26345 0
-1.67805e-13 1.27691 0
1.20031e-13 1.27691 0
2.17211e-13 1.26345 0
-2.15626e-13 1.26345 0
5.83236e-14 1.29104 0
1.57203e-13 1.29104 0
-8.70537e-14 1.27691 0
-5.00328e-14 1.27691 0
1.57203e-13 1.29104 0
-7.89756e-14 1.29104 0
-5.00328e-14 1.27691 0
-2.07948e-13 1.27691 0
1.20031e-13 1.27691 0
8.64911e-14 1.27691 0
-2.15626e-13 1.26345 0
-1.13049e-13 1.26345 0
8.64911e-14 1.27691 0
-3.45162e-13 1.27691 0
-1.13049e-13 1.26345 0
3.28329e-13 1.26345 0
0 1.26345 0
-2.38418e-13 1.26345 0
0 1.25063 0
1.9903e-13 1.25063 0
-2.38418e-13 1.26345 0
-1.30676e-13 1.26345 0
1.9903e-13 1.25063 0
2.26316e-13 1.25063 0
0 1.25063 0
1.98433e-14 1.25063 0
0 1.23843 0
1.66046e-13 1.23843 0
1.98433e-14 1.25063 0
1.40745e-13 1.25063 0
1.66046e-13 1.23843 0
-1.28428e-13 1.23843 0
-1.30676e-13 1.26345 0
1.32749e-13 1.26345 0
2.26316e-13 1.25063 0
-2.8781e-13 1.25063 0
1.32749e-13 1.26345 0
1.48039e-13 1.26345 0
-2.8781e-13 1.25063 0
4.68551e-14 1.25063 0
1.40745e-13 1.25063 0
-1.80498e-13 1.25063 0
-1.28428e-13 1.23843 0
6.28188e-14 1.23843 0
-1.80498e-13 1.25063 0
1.38762e-13 1.25063 0
6.28188e-14 1.23843 0
-1.48286e-13 1.23843 0
0 1.23843 0
2.35646e-13 1.23843 0
0 1.2268 0
3.23655e-14 1.2268 0
2.35646e-13 1.23843 0
1.06124e-13 1.23843 0
3.23655e-14 1.2268 0
-3.43054e-13 1.2268 0
0 1.2268 0
2.59516e-14 1.2268 0
0 1.21574 0
-7.37587e-16 1.21574 0
2.59516e-14 1.2268 0
-3.31717e-13 1.2268 0
-7.37587e-16 1.21574 0
2.48768e-13 1.21574 0
1.06124e-13 1.23843 0
-2.12631e-13 1.23843 0
-3.43054e-13 1.2268 0
1.54647e-13 1.2268 0
-2.12631e-13 1.23843 0
-9.81238e-14 1.23843 0
1.54647e-13 1.2268 0
1.32167e-13 1.2268 0
-3.31717e-13 1.2268 0
2.07987e-13 1.2268 0
2.48768e-13 1.21574 0
-1.86907e-13 1.21574 0
2.07987e-13 1.2268 0
2.63903e-14 1.2268 0
-1.86907e-13 1.21574 0
-9.51443e-14 1.21574 0
1.48039e-13 1.26345 0
1.89811e-13 1.26345 0
4.68551e-14 1.25063 0
-3.05658e-13 1.25063 0
1.89811e-13 1.26345 0
-3.06072e-13 1.26345 0
-3.05658e-13 1.25063 0
4.43473e-13 1.25063 0
1.38762e-13 1.25063 0
-1.33501e-13 1.25063 0
-1.48286e-13 1.23843 0
5.04754e-14 1.23843 0
-1.33501e-13 1.25063 0
3.66895e-13 1.25063 0
5.04754e-14 1.23843 0
-1.38967e-13 1.23843 0
-3.06072e-13 1.26345 0
1.39946e-13 1.26345 0
4.43473e-13 1.25063 0
-2.15603e-13 1.25063 0
1.39946e-13 1.26345 0
1.36576e-13 1.26345 0
-2.15603e-13 1.25063 0
-1.567e-13 1.25063 0
3.66895e-13 1.25063 0
-1.34981e-13 1.25063 0
-1.38967e-13 1.23843 0
5.93366e-14 1.23843 0
-1.34981e-13 1.25063 0
-2.29121e-13 1.25063 0
5.93366e-14 1.23843 0
2.44813e-13 1.23843 0
-9.81238e-14 1.23843 0
4.3404e-14 1.23843 0
1.32167e-13 1.2268 0
-9.18484e-14 1.2268 0
4.3404e-14 1.23843 0
-2.40997e-13 1.23843 0
-9.18484e-14 1.2268 0
-1.4415e-13 1.2268 0
2.63903e-14 1.2268 0
-5.99266e-14 1.2268 0
-9.51443e-14 1.21574 0
-2.5625e-13 1.21574 0
-5.99266e-14 1.2268 0
-6.32164e-14 1.2268 0
-2.5625e-13 1.21574 0
-4.63158e-14 1.21574 0
-2.40997e-13 1.23843 0
-1.28901e-13 1.23843 0
-1.4415e-13 1.2268 0
-9.05575e-14 1.2268 0
-1.28901e-13 1.23843 0
3.84377e-13 1.23843 0
-9.05575e-14 1.2268 0
-2.7666e-13 1.2268 0
-6.32164e-14 1.2268 0
8.13005e-14 1.2268 0
-4.63158e-14 1.21574 0
1.75891e-13 1.21574 0
8.13005e-14 1.2268 0
7.07621e-15 1.2268 0
1.75891e-13 1.21574 0
1.26532e-13 1.21574 0
1.15061e-13 1.32147 0
-8.98495e-14 1.32147 0
4.99446e-14 1.30589 0
-8.81303e-14 1.30589 0
-8.98495e-14 1.32147 0
2.65034e-13 1.32147 0
-8.81303e-14 1.30589 0
-3.95824e-13 1.30589 0
5.7545e-14 1.30589 0
3.22557e-14 1.30589 0
-3.02061e-13 1.29104 0
1.14095e-13 1.29104 0
3.22557e-14 1.30589 0
-5.81488e-13 1.30589 0
1.14095e-13 1.29104 0
3.80339e-13 1.29104 0
2.65034e-13 1.32147 0
-2.84169e-13 1.32147 0
-3.95824e-13 1.30589 0
1.82307e-13 1.30589 0
-2.84169e-13 1.32147 0
-3.70656e-13 1.32147 0
1.82307e-13 1.30589 0
3.48058e-13 1.30589 0
-5.81488e-13 1.30589 0
3.10982e-13 1.30589 0
3.80339e-13 1.29104 0
-4.52832e-13 1.29104 0
3.10982e-13 1.30589 0
2.04943e-13 1.30589 0
-4.52832e-13 1.29104 0
-2.46271e-13 1.29104 0
-7.89756e-14 1.29104 0
-4.05974e-14 1.29104 0
-2.07948e-13 1.27691 0
-5.79961e-14 1.27691 0
-4.05974e-14 1.29104 0
-7.07369e-14 1.29104 0
-5.79961e-14 1.27691 0
-2.342e-14 1.27691 0
-3.45162e-13 1.27691 0
-2.70208e-13 1.27691 0
3.28329e-13 1.26345 0
3.80906e-13 1.26345 0
-2.70208e-13 1.27691 0
2.94361e-13 1.27691 0
3.80906e-13 1.26345 0
-3.106e-13 1.26345 0
-7.07369e-14 1.29104 0
-1.84979e-13 1.29104 0
-2.342e-14 1.27691 0
2.15954e-13 1.27691 0
-1.84979e-13 1.29104 0
5.3968e-14 1.29104 0
2.15954e-13 1.27691 0
3.21194e-14 1.27691 0
2.94361e-13 1.27691 0
3.88467e-14 1.27691 0
-3.106e-13 1.26345 0
6.23219e-15 1.26345 0
3.88467e-14 1.27691 0
-1.63016e-14 1.27691 0
6.23219e-15 1.26345 0
-7.42836e-14 1.26345 0
-3.70656e-13 1.32147 0
5.55143e-13 1.32147 0
3.48058e-13 1.30589 0
-5.69546e-13 1.30589 0
5.55143e-13 1.32147 0
-1.5057e-13 1.32147 0
-5.69546e-13 1.30589 0
1.82188e-13 1.30589 0
2.04943e-13 1.30589 0
7.71236e-14 1.30589 0
-2.46271e-13 1.29104 0
3.07646e-14 1.29104 0
7.71236e-14 1.30589 0
-3.1012e-13 1.30589 0
3.07646e-14 1.29104 0
4.8558e-14 1.29104 0
-1.5057e-13 1.32147 0
-2.07011e-13 1.32147 0
1.82188e-13 1.30589 0
2.85974e-14 1.30589 0
-2.07011e-13 1.32147 0
3.30242e-13 1.32147 0
2.85974e-14 1.30589 0
-2.74191e-13 1.30589 0
-3.1012e-13 1.30589 0
-4.23987e-14 1.30589 0
4.8558e-14 1.29104 0
-6.81468e-14 1.29104 0
-4.23987e-14 1.30589 0
-1.35194e-13 1.30589 0
-6.81468e-14 1.29104 0
1.06747e-13 1.29104 0
5.3968e-14 1.29104 0
-1.3217e-13 1.29104 0
3.21194e-14 1.27691 0
3.29671e-13 1.27691 0
-1.3217e-13 1.29104 0
2.7956e-13 1.29104 0
3.29671e-13 1.27691 0
-5.62364e-13 1.27691 0
-1.63016e-14 1.27691 0
-1.46893e-13 1.27691 0
-7.42836e-14 1.26345 0
5.24999e-15 1.26345 0
-1.46893e-13 1.27691 0
4.82337e-14 1.27691 0
5.24999e-15 1.26345 0
2.59416e-13 1.26345 0
2.7956e-13 1.29104 0
7.77024e-14 1.29104 0
-5.62364e-13 1.27691 0
6.80497e-14 1.27691 0
7.77024e-14 1.29104 0
-1.65687e-13 1.29104 0
6.80497e-14 1.27691 0
7.39432e-14 1.27691 0
4.82337e-14 1.27691 0
3.45376e-14 1.27691 0
2.59416e-13 1.26345 0
-3.246e-13 1.26345 0
3.45376e-14 1.27691 0
8.19676e-14 1.27691 0
-3.246e-13 1.26345 0
4.17217e-14 1.26345 0
1.36576e-13 1.26345 0
1.23237e-14 1.26345 0
-1.567e-13 1.25063 0
-1.07386e-14 1.25063 0
1.23237e-14 1.26345 0
-2.96884e-13 1.26345 0
-1.07386e-14 1.25063 0
1.13787e-13 1.25063 0
-2.29121e-13 1.25063 0
6.94185e-14 1.25063 0
2.44813e-13 1.23843 0
-1.9259e-13 1.23843 0
6.94185e-14 1.25063 0
1.08292e-13 1.25063 0
-1.9259e-13 1.23843 0
-2.84724e-13 1.23843 0
-2.96884e-13 1.26345 0
1.69604e-14 1.26345 0
1.13787e-13 1.25063 0
-1.8913e-14 1.25063 0
1.69604e-14 1.26345 0