# vtk DataFile Version 3.0
#This file was generated by the deal.II library on 2018/10/15 at 16:29:00
ASCII
DATASET UNSTRUCTURED_GRID

POINTS 20480 double
0 0 0
0.19635 0 0
0 0.299876 0
0.19635 0.299876 0
0.19635 0 0
0.392699 0 0
0.19635 0.299876 0
0.392699 0.299876 0
0 0.299876 0
0.19635 0.299876 0
0 0.611766 0
0.19635 0.611766 0
0.19635 0.299876 0
0.392699 0.299876 0
0.19635 0.611766 0
0.392699 0.611766 0
0.392699 0 0
0.589049 0 0
0.392699 0.299876 0
0.589049 0.299876 0
0.589049 0 0
0.785398 0 0
0.589049 0.299876 0
0.785398 0.299876 0
0.392699 0.299876 0
0.589049 0.299876 0
0.392699 0.611766 0
0.589049 0.611766 0
0.589049 0.299876 0
0.785398 0.299876 0
0.589049 0.611766 0
0.785398 0.611766 0
0 0.611766 0
0.19635 0.611766 0
0 0.924623 0
0.19635 0.924623 0
0.19635 0.611766 0
0.392699 0.611766 0
0.19635 0.924623 0
0.392699 0.924623 0
0 0.924623 0
0.19635 0.924623 0
0 1.23774 0
0.19635 1.23774 0
0.19635 0.924623 0
0.392699 0.924623 0
0.19635 1.23774 0
0.392699 1.23774 0
0.392699 0.611766 0
0.589049 0.611766 0
0.392699 0.924623 0
0.589049 0.924623 0
0.589049 0.611766 0
0.785398 0.611766 0
0.589049 0.924623 0
0.785398 0.924623 0
0.392699 0.924623 0
0.589049 0.924623 0
0.392699 1.23774 0
0.589049 1.23774 0
0.589049 0.924623 0
0.785398 0.924623 0
0.589049 1.23774 0
0.785398 1.23774 0
0.785398 0 0
0.981748 0 0
0.785398 0.299876 0
0.981748 0.299876 0
0.981748 0 0
1.1781 0 0
0.981748 0.299876 0
1.1781 0.299876 0
0.785398 0.299876 0
0.981748 0.299876 0
0.785398 0.611766 0
0.981748 0.611766 0
0.981748 0.299876 0
1.1781 0.299876 0
0.981748 0.611766 0
1.1781 0.611766 0
1.1781 0 0
1.37445 0 0
1.1781 0.299876 0
1.37445 0.299876 0
1.37445 0 0
1.5708 0 0
1.37445 0.299876 0
1.5708 0.299876 0
1.1781 0.299876 0
1.37445 0.299876 0
1.1781 0.611766 0
1.37445 0.611766 0
1.37445 0.299876 0
1.5708 0.299876 0
1.37445 0.611766 0
1.5708 0.611766 0
0.785398 0.611766 0
0.981748 0.611766 0
0.785398 0.924623 0
0.981748 0.924623 0
0.981748 0.611766 0
1.1781 0.611766 0
0.981748 0.924623 0
1.1781 0.924623 0
0.785398 0.924623 0
0.981748 0.924623 0
0.785398 1.23774 0
0.981748 1.23774 0
0.981748 0.924623 0
1.1781 0.924623 0
0.981748 1.23774 0
1.1781 1.23774 0
1.1781 0.611766 0
1.37445 0.611766 0
1.1781 0.924623 0
1.37445 0.924623 0
1.37445 0.611766 0
1.5708 0.611766 0
1.37445 0.924623 0
1.5708 0.924623 0
1.1781 0.924623 0
1.37445 0.924623 0
1.1781 1.23774 0
1.37445 1.23774 0
1.37445 0.924623 0
1.5708 0.924623 0
1.37445 1.23774 0
1.5708 1.23774 0
0 1.23774 0
0.19635 1.23774 0
0 1.55083 0
0.19635 1.55083 0
0.19635 1.23774 0
0.392699 1.23774 0
0.19635 1.55083 0
0.392699 1.55083 0
0 1.55083 0
0.19635 1.55083 0
0 1.86391 0
0.19635 1.86391 0
0.19635 1.55083 0
0.392699 1.55083 0
0.19635 1.86391 0
0.392699 1.86391 0
0.392699 1.23774 0
0.589049 1.23774 0
0.392699 1.55083 0
0.589049 1.55083 0
0.589049 1.23774 0
0.785398 1.23774 0
0.589049 1.55083 0
0.785398 1.55083 0
0.392699 1.55083 0
0.589049 1.55083 0
0.392699 1.86391 0
0.589049 1.86391 0
0.589049 1.55083 0
0.785398 1.55083 0
0.589049 1.86391 0
0.785398 1.86391 0
0 1.86391 0
0.19635 1.86391 0
0 2.17697 0
0.19635 2.17697 0
0.19635 1.86391 0
0.392699 1.86391 0
0.19635 2.17697 0
0.392699 2.17697 0
0 2.17697 0
0.19635 2.17697 0
0 2.49001 0
0.19635 2.49001 0
0.19635 2.17697 0
0.392699 2.17697 0
0.19635 2.49001 0
0.392699 2.49001 0
0.392699 1.86391 0
0.589049 1.86391 0
0.392699 2.17697 0
0.589049 2.17697 0
0.589049 1.86391 0
0.785398 1.86391 0
0.589049 2.17697 0
0.785398 2.17697 0
0.392699 2.17697 0
0.589049 2.17697 0
0.392699 2.49001 0
0.589049 2.49001 0
0.589049 2.17697 0
0.785398 2.17697 0
0.589049 2.49001 0
0.785398 2.49001 0
0.785398 1.23774 0
0.981748 1.23774 0
0.785398 1.55083 0
0.981748 1.55083 0
0.981748 1.23774 0
1.1781 1.23774 0
0.981748 1.55083 0
1.1781 1.55083 0
0.785398 1.55083 0
0.981748 1.55083 0
0.785398 1.86391 0
0.981748 1.86391 0
0.981748 1.55083 0
1.1781 1.55083 0
0.981748 1.86391 0
1.1781 1.86391 0
1.1781 1.23774 0
1.37445 1.23774 0
1.1781 1.55083 0
1.37445 1.55083 0
1.37445 1.23774 0
1.5708 1.23774 0
1.37445 1.55083 0
1.5708 1.55083 0
1.1781 1.55083 0
1.37445 1.55083 0
1.1781 1.86391 0
1.37445 1.86391 0
1.37445 1.55083 0
1.5708 1.55083 0
1.37445 1.86391 0
1.5708 1.86391 0
0.785398 1.86391 0
0.981748 1.86391 0
0.785398 2.17697 0
0.981748 2.17697 0
0.981748 1.86391 0
1.1781 1.86391 0
0.981748 2.17697 0
1.1781 2.17697 0
0.785398 2.17697 0
0.981748 2.17697 0
0.785398 2.49001 0
0.981748 2.49001 0
0.981748 2.17697 0
1.1781 2.17697 0
0.981748 2.49001 0
1.1781 2.49001 0
1.1781 1.86391 0
1.37445 1.86391 0
1.1781 2.17697 0
1.37445 2.17697 0
1.37445 1.86391 0
1.5708 1.86391 0
1.37445 2.17697 0
1.5708 2.17697 0
1.1781 2.17697 0
1.37445 2.17697 0
1.1781 2.49001 0
1.37445 2.49001 0
1.37445 2.17697 0
1.5708 2.17697 0
1.37445 2.49001 0
1.5708 2.49001 0
1.5708 0 0
1.76715 0 0
1.5708 0.299876 0
1.76715 0.299876 0
1.76715 0 0
1.9635 0 0
1.76715 0.299876 0
1.9635 0.299876 0
1.5708 0.299876 0
1.76715 0.299876 0
1.5708 0.611766 0
1.76715 0.611766 0
1.76715 0.299876 0
1.9635 0.299876 0
1.76715 0.611766 0
1.9635 0.611766 0
1.9635 0 0
2.15984 0 0
1.9635 0.299876 0
2.15984 0.299876 0
2.15984 0 0
2.35619 0 0
2.15984 0.299876 0
2.35619 0.299876 0
1.9635 0.299876 0
2.15984 0.299876 0
1.9635 0.611766 0
2.15984 0.611766 0
2.15984 0.299876 0
2.35619 0.299876 0
2.15984 0.611766 0
2.35619 0.611766 0
1.5708 0.611766 0
1.76715 0.611766 0
1.5708 0.924623 0
1.76715 0.924623 0
1.76715 0.611766 0
1.9635 0.611766 0
1.76715 0.924623 0
1.9635 0.924623 0
1.5708 0.924623 0
1.76715 0.924623 0
1.5708 1.23774 0
1.76715 1.23774 0
1.76715 0.924623 0
1.9635 0.924623 0
1.76715 1.23774 0
1.9635 1.23774 0
1.9635 0.611766 0
2.15984 0.611766 0
1.9635 0.924623 0
2.15984 0.924623 0
2.15984 0.611766 0
2.35619 0.611766 0
2.15984 0.924623 0
2.35619 0.924623 0
1.9635 0.924623 0
2.15984 0.924623 0
1.9635 1.23774 0
2.15984 1.23774 0
2.15984 0.924623 0
2.35619 0.924623 0
2.15984 1.23774 0
2.35619 1.23774 0
2.35619 0 0
2.55254 0 0
2.35619 0.299876 0
2.55254 0.299876 0
2.55254 0 0
2.74889 0 0
2.55254 0.299876 0
2.74889 0.299876 0
2.35619 0.299876 0
2.55254 0.299876 0
2.35619 0.611766 0
2.55254 0.611766 0
2.55254 0.299876 0
2.74889 0.299876 0
2.55254 0.611766 0
2.74889 0.611766 0
2.74889 0 0
2.94524 0 0
2.74889 0.299876 0
2.94524 0.299876 0
2.94524 0 0
3.14159 0 0
2.94524 0.299876 0
3.14159 0.299876 0
2.74889 0.299876 0
2.94524 0.299876 0
2.74889 0.611766 0
2.94524 0.611766 0
2.94524 0.299876 0
3.14159 0.299876 0
2.94524 0.611766 0
3.14159 0.611766 0
2.35619 0.611766 0
2.55254 0.611766 0
2.35619 0.924623 0
2.55254 0.924623 0
2.55254 0.611766 0
2.74889 0.611766 0
2.55254 0.924623 0
2.74889 0.924623 0
2.35619 0.924623 0
2.55254 0.924623 0
2.35619 1.23774 0
2.55254 1.23774 0
2.55254 0.924623 0
2.74889 0.924623 0
2.55254 1.23774 0
2.74889 1.23774 0
2.74889 0.611766 0
2.94524 0.611766 0
2.74889 0.924623 0
2.94524 0.924623 0
2.94524 0.611766 0
3.14159 0.611766 0
2.94524 0.924623 0
3.14159 0.924623 0
2.74889 0.924623 0
2.94524 0.924623 0
2.74889 1.23774 0
2.94524 1.23774 0
2.94524 0.924623 0
3.14159 0.924623 0
2.94524 1.23774 0
3.14159 1.23774 0
1.5708 1.23774 0
1.76715 1.23774 0
1.5708 1.55083 0
1.76715 1.55083 0
1.76715 1.23774 0
1.9635 1.23774 0
1.76715 1.55083 0
1.9635 1.55083 0
1.5708 1.55083 0
1.76715 1.55083 0
1.5708 1.86391 0
1.76715 1.86391 0
1.76715 1.55083 0
1.9635 1.55083 0
1.76715 1.86391 0
1.9635 1.86391 0
1.9635 1.23774 0
2.15984 1.23774 0
1.9635 1.55083 0
2.15984 1.55083 0
2.15984 1.23774 0
2.35619 1.23774 0
2.15984 1.55083 0
2.35619 1.55083 0
1.9635 1.55083 0
2.15984 1.55083 0
1.9635 1.86391 0
2.15984 1.86391 0
2.15984 1.55083 0
2.35619 1.55083 0
2.15984 1.86391 0
2.35619 1.86391 0
1.5708 1.86391 0
1.76715 1.86391 0
1.5708 2.17697 0
1.76715 2.17697 0
1.76715 1.86391 0
1.9635 1.86391 0
1.76715 2.17697 0
1.9635 2.17697 0
1.5708 2.17697 0
1.76715 2.17697 0
1.5708 2.49001 0
1.76715 2.49001 0
1.76715 2.17697 0
1.9635 2.17697 0
1.76715 2.49001 0
1.9635 2.49001 0
1.9635 1.86391 0
2.15984 1.86391 0
1.9635 2.17697 0
2.15984 2.17697 0
2.15984 1.86391 0
2.35619 1.86391 0
2.15984 2.17697 0
2.35619 2.17697 0
1.9635 2.17697 0
2.15984 2.17697 0
1.9635 2.49001 0
2.15984 2.49001 0
2.15984 2.17697 0
2.35619 2.17697 0
2.15984 2.49001 0
2.35619 2.49001 0
2.35619 1.23774 0
2.55254 1.23774 0
2.35619 1.55083 0
2.55254 1.55083 0
2.55254 1.23774 0
2.74889 1.23774 0
2.55254 1.55083 0
2.74889 1.55083 0
2.35619 1.55083 0
2.55254 1.55083 0
2.35619 1.86391 0
2.55254 1.86391 0
2.55254 1.55083 0
2.74889 1.55083 0
2.55254 1.86391 0
2.74889 1.86391 0
2.74889 1.23774 0
2.94524 1.23774 0
2.74889 1.55083 0
2.94524 1.55083 0
2.94524 1.23774 0
3.14159 1.23774 0
2.94524 1.55083 0
3.14159 1.55083 0
2.74889 1.55083 0
2.94524 1.55083 0
2.74889 1.86391 0
2.94524 1.86391 0
2.94524 1.55083 0
3.14159 1.55083 0
2.94524 1.86391 0
3.14159 1.86391 0
2.35619 1.86391 0
2.55254 1.86391 0
2.35619 2.17697 0
2.55254 2.17697 0
2.55254 1.86391 0
2.74889 1.86391 0
2.55254 2.17697 0
2.74889 2.17697 0
2.35619 2.17697 0
2.55254 2.17697 0
2.35619 2.49001 0
2.55254 2.49001 0
2.55254 2.17697 0
2.74889 2.17697 0
2.55254 2.49001 0
2.74889 2.49001 0
2.74889 1.86391 0
2.94524 1.86391 0
2.74889 2.17697 0
2.94524 2.17697 0
2.94524 1.86391 0
3.14159 1.86391 0
2.94524 2.17697 0
3.14159 2.17697 0
2.74889 2.17697 0
2.94524 2.17697 0
2.74889 2.49001 0
2.94524 2.49001 0
2.94524 2.17697 0
3.14159 2.17697 0
2.94524 2.49001 0
3.14159 2.49001 0
0 2.49001 0
0.19635 2.49001 0
0 2.80303 0
0.19635 2.80303 0
0.19635 2.49001 0
0.392699 2.49001 0
0.19635 2.80303 0
0.392699 2.80303 0
0 2.80303 0
0.19635 2.80303 0
0 3.11604 0
0.19635 3.11604 0
0.19635 2.80303 0
0.392699 2.80303 0
0.19635 3.11604 0
0.392699 3.11604 0
0.392699 2.49001 0
0.589049 2.49001 0
0.392699 2.80303 0
0.589049 2.80303 0
0.589049 2.49001 0
0.785398 2.49001 0
0.589049 2.80303 0
0.785398 2.80303 0
0.392699 2.80303 0
0.589049 2.80303 0
0.392699 3.11604 0
0.589049 3.11604 0
0.589049 2.80303 0
0.785398 2.80303 0
0.589049 3.11604 0
0.785398 3.11604 0
0 3.11604 0
0.19635 3.11604 0
0 3.42903 0
0.19635 3.42903 0
0.19635 3.11604 0
0.392699 3.11604 0
0.19635 3.42903 0
[...]
POINT_DATA 20480
VECTORS uf double
0 1 0
-2.03288e-13 1 0
0 1.50323 0
2.91259e-13 1.50323 0
-2.03288e-13 1 0
-5.00218e-14 1 0
2.91259e-13 1.50323 0
8.91948e-14 1.50323 0
0 1.50323 0
1.94475e-13 1.50323 0
0 1.46938 0
1.90819e-14 1.46938 0
1.94475e-13 1.50323 0
-7.54412e-14 1.50323 0
1.90819e-14 1.46938 0
1.35464e-13 1.46938 0
-5.00218e-14 1 0
1.33752e-13 1 0
8.91948e-14 1.50323 0
-2.71742e-13 1.50323 0
1.33752e-13 1 0
-1.85211e-13 1 0
-2.71742e-13 1.50323 0
3.29628e-13 1.50323 0
-7.54412e-14 1.50323 0
-5.72616e-13 1.50323 0
1.35464e-13 1.46938 0
6.05075e-13 1.46938 0
-5.72616e-13 1.50323 0
9.25648e-14 1.50323 0
6.05075e-13 1.46938 0
1.38694e-13 1.46938 0
0 1.46938 0
2.61566e-13 1.46938 0
0 1.45419 0
-2.31205e-13 1.45419 0
2.61566e-13 1.46938 0
1.48424e-13 1.46938 0
-2.31205e-13 1.45419 0
-1.73028e-13 1.45419 0
0 1.45419 0
-1.43502e-13 1.45419 0
0 1.42965 0
-6.95713e-15 1.42965 0
-1.43502e-13 1.45419 0
-6.73211e-14 1.45419 0
-6.95713e-15 1.42965 0
2.25287e-13 1.42965 0
1.48424e-13 1.46938 0
5.43555e-13 1.46938 0
-1.73028e-13 1.45419 0
-2.9858e-13 1.45419 0
5.43555e-13 1.46938 0
9.25408e-14 1.46938 0
-2.9858e-13 1.45419 0
1.81223e-13 1.45419 0
-6.73211e-14 1.45419 0
2.2289e-13 1.45419 0
2.25287e-13 1.42965 0
-4.93798e-13 1.42965 0
2.2289e-13 1.45419 0
2.14801e-13 1.45419 0
-4.93798e-13 1.42965 0
1.91536e-13 1.42965 0
-1.85211e-13 1 0
-2.45067e-13 1 0
3.29628e-13 1.50323 0
3.08954e-13 1.50323 0
-2.45067e-13 1 0
7.74526e-14 1 0
3.08954e-13 1.50323 0
-8.54946e-14 1.50323 0
9.25648e-14 1.50323 0
6.34103e-13 1.50323 0
1.38694e-13 1.46938 0
-4.77895e-13 1.46938 0
6.34103e-13 1.50323 0
3.51792e-13 1.50323 0
-4.77895e-13 1.46938 0
-5.54533e-13 1.46938 0
7.74526e-14 1 0
7.15533e-13 1 0
-8.54946e-14 1.50323 0
-1.23437e-12 1.50323 0
7.15533e-13 1 0
4.11066e-13 1 0
-1.23437e-12 1.50323 0
-6.68668e-13 1.50323 0
3.51792e-13 1.50323 0
-1.00681e-12 1.50323 0
-5.54533e-13 1.46938 0
3.3085e-13 1.46938 0
-1.00681e-12 1.50323 0
-5.23748e-13 1.50323 0
3.3085e-13 1.46938 0
2.69079e-13 1.46938 0
9.25408e-14 1.46938 0
-4.26517e-13 1.46938 0
1.81223e-13 1.45419 0
2.53766e-13 1.45419 0
-4.26517e-13 1.46938 0
-3.52636e-13 1.46938 0
2.53766e-13 1.45419 0
1.04897e-13 1.45419 0
2.14801e-13 1.45419 0
8.61807e-14 1.45419 0
1.91536e-13 1.42965 0
-1.8202e-13 1.42965 0
8.61807e-14 1.45419 0
-2.64837e-13 1.45419 0
-1.8202e-13 1.42965 0
1.80587e-13 1.42965 0
-3.52636e-13 1.46938 0
-2.3288e-13 1.46938 0
1.04897e-13 1.45419 0
-2.97407e-14 1.45419 0
-2.3288e-13 1.46938 0
9.17352e-14 1.46938 0
-2.97407e-14 1.45419 0
-3.16337e-13 1.45419 0
-2.64837e-13 1.45419 0
-8.00468e-14 1.45419 0
1.80587e-13 1.42965 0
-1.01779e-16 1.42965 0
-8.00468e-14 1.45419 0
6.31102e-14 1.45419 0
-1.01779e-16 1.42965 0
-2.5889e-13 1.42965 0
0 1.42965 0
-5.80152e-14 1.42965 0
0 1.40899 0
1.9458e-13 1.40899 0
-5.80152e-14 1.42965 0
4.68178e-13 1.42965 0
1.9458e-13 1.40899 0
-5.55128e-13 1.40899 0
0 1.40899 0
3.00054e-13 1.40899 0
0 1.38856 0
-2.78822e-13 1.38856 0
3.00054e-13 1.40899 0
-4.74244e-13 1.40899 0
-2.78822e-13 1.38856 0
2.05305e-13 1.38856 0
4.68178e-13 1.42965 0
-3.95619e-13 1.42965 0
-5.55128e-13 1.40899 0
3.67632e-13 1.40899 0
-3.95619e-13 1.42965 0
1.46416e-13 1.42965 0
3.67632e-13 1.40899 0
1.19555e-13 1.40899 0
-4.74244e-13 1.40899 0
2.18736e-13 1.40899 0
2.05305e-13 1.38856 0
-1.4071e-13 1.38856 0
2.18736e-13 1.40899 0
3.85978e-14 1.40899 0
-1.4071e-13 1.38856 0
1.69578e-13 1.38856 0
0 1.38856 0
-1.55308e-13 1.38856 0
0 1.36942 0
-5.95669e-14 1.36942 0
-1.55308e-13 1.38856 0
1.18713e-14 1.38856 0
-5.95669e-14 1.36942 0
1.18916e-14 1.36942 0
0 1.36942 0
-2.08509e-13 1.36942 0
0 1.35118 0
7.6494e-14 1.35118 0
-2.08509e-13 1.36942 0
-9.61011e-14 1.36942 0
7.6494e-14 1.35118 0
1.64097e-13 1.35118 0
1.18713e-14 1.38856 0
2.61256e-14 1.38856 0
1.18916e-14 1.36942 0
-6.43598e-15 1.36942 0
2.61256e-14 1.38856 0
3.43703e-13 1.38856 0
-6.43598e-15 1.36942 0
-2.29158e-13 1.36942 0
-9.61011e-14 1.36942 0
1.34695e-13 1.36942 0
1.64097e-13 1.35118 0
-4.0618e-13 1.35118 0
1.34695e-13 1.36942 0
-2.40103e-13 1.36942 0
-4.0618e-13 1.35118 0
2.52701e-13 1.35118 0
1.46416e-13 1.42965 0
-7.55477e-15 1.42965 0
1.19555e-13 1.40899 0
-1.42157e-13 1.40899 0
-7.55477e-15 1.42965 0
5.36135e-14 1.42965 0
-1.42157e-13 1.40899 0
-8.10549e-14 1.40899 0
3.85978e-14 1.40899 0
-2.59811e-13 1.40899 0
1.69578e-13 1.38856 0
2.06694e-13 1.38856 0
-2.59811e-13 1.40899 0
6.44189e-14 1.40899 0
2.06694e-13 1.38856 0
-2.49371e-13 1.38856 0
5.36135e-14 1.42965 0
-3.65759e-13 1.42965 0
-8.10549e-14 1.40899 0
1.69072e-13 1.40899 0
-3.65759e-13 1.42965 0
-4.09964e-13 1.42965 0
1.69072e-13 1.40899 0
3.08757e-13 1.40899 0
6.44189e-14 1.40899 0
2.18491e-14 1.40899 0
-2.49371e-13 1.38856 0
2.64786e-14 1.38856 0
2.18491e-14 1.40899 0
2.4438e-13 1.40899 0
2.64786e-14 1.38856 0
-3.45556e-13 1.38856 0
3.43703e-13 1.38856 0
1.24933e-13 1.38856 0
-2.29158e-13 1.36942 0
-1.80528e-13 1.36942 0
1.24933e-13 1.38856 0
-2.69321e-13 1.38856 0
-1.80528e-13 1.36942 0
3.72172e-14 1.36942 0
-2.40103e-13 1.36942 0
-1.87922e-13 1.36942 0
2.52701e-13 1.35118 0
3.35352e-13 1.35118 0
-1.87922e-13 1.36942 0
-6.6216e-14 1.36942 0
3.35352e-13 1.35118 0
-1.81979e-13 1.35118 0
-2.69321e-13 1.38856 0
-4.6195e-13 1.38856 0
3.72172e-14 1.36942 0
4.98024e-13 1.36942 0
-4.6195e-13 1.38856 0
1.18318e-13 1.38856 0
4.98024e-13 1.36942 0
-2.95248e-15 1.36942 0
-6.6216e-14 1.36942 0
2.42599e-13 1.36942 0
-1.81979e-13 1.35118 0
-2.01255e-13 1.35118 0
2.42599e-13 1.36942 0
3.31589e-13 1.36942 0
-2.01255e-13 1.35118 0
-1.18451e-13 1.35118 0
4.11066e-13 1 0
-3.61124e-13 1 0
-6.68668e-13 1.50323 0
6.81646e-13 1.50323 0
-3.61124e-13 1 0
-2.20022e-13 1 0
6.81646e-13 1.50323 0
2.81642e-13 1.50323 0
-5.23748e-13 1.50323 0
7.77975e-13 1.50323 0
2.69079e-13 1.46938 0
-4.63498e-13 1.46938 0
7.77975e-13 1.50323 0
3.79109e-13 1.50323 0
-4.63498e-13 1.46938 0
-3.65968e-13 1.46938 0
-2.20022e-13 1 0
-2.3363e-13 1 0
2.81642e-13 1.50323 0
2.02815e-13 1.50323 0
-2.3363e-13 1 0
2.87035e-13 1 0
2.02815e-13 1.50323 0
5.95328e-14 1.50323 0
3.79109e-13 1.50323 0
-3.3257e-13 1.50323 0
-3.65968e-13 1.46938 0
3.75427e-13 1.46938 0
-3.3257e-13 1.50323 0
4.58001e-13 1.50323 0
3.75427e-13 1.46938 0
-3.55366e-13 1.46938 0
9.17352e-14 1.46938 0
-1.76184e-13 1.46938 0
-3.16337e-13 1.45419 0
1.1714e-13 1.45419 0
-1.76184e-13 1.46938 0
5.16191e-14 1.46938 0
1.1714e-13 1.45419 0
1.1492e-13 1.45419 0
6.31102e-14 1.45419 0
-1.54775e-13 1.45419 0
-2.5889e-13 1.42965 0
2.45709e-13 1.42965 0
-1.54775e-13 1.45419 0
1.09688e-14 1.45419 0
2.45709e-13 1.42965 0
-2.87911e-13 1.42965 0
5.16191e-14 1.46938 0
3.38e-13 1.46938 0
1.1492e-13 1.45419 0
-2.24421e-13 1.45419 0
3.38e-13 1.46938 0
-5.14029e-13 1.46938 0
-2.24421e-13 1.45419 0
3.43943e-13 1.45419 0
1.09688e-14 1.45419 0
-4.36145e-13 1.45419 0
-2.87911e-13 1.42965 0
6.00293e-13 1.42965 0
-4.36145e-13 1.45419 0
-7.24992e-15 1.45419 0
6.00293e-13 1.42965 0
9.30469e-14 1.42965 0
2.87035e-13 1 0
1.8796e-13 1 0
5.95328e-14 1.50323 0
-2.32461e-13 1.50323 0
1.8796e-13 1 0
-8.88102e-14 1 0
-2.32461e-13 1.50323 0
-1.66778e-14 1.50323 0
4.58001e-13 1.50323 0
-2.5729e-13 1.50323 0
-3.55366e-13 1.46938 0
2.29149e-13 1.46938 0
-2.5729e-13 1.50323 0
-2.60526e-13 1.50323 0
2.29149e-13 1.46938 0
1.99614e-13 1.46938 0
-8.88102e-14 1 0
-1.90983e-13 1 0
-1.66778e-14 1.50323 0
2.41249e-13 1.50323 0
-1.90983e-13 1 0
1.29136e-13 1 0
2.41249e-13 1.50323 0
-9.61749e-14 1.50323 0
-2.60526e-13 1.50323 0
1.95778e-13 1.50323 0
1.99614e-13 1.46938 0
-7.95124e-14 1.46938 0
1.95778e-13 1.50323 0
3.98706e-13 1.50323 0
-7.95124e-14 1.46938 0
-8.20746e-14 1.46938 0
-5.14029e-13 1.46938 0
9.92172e-15 1.46938 0
3.43943e-13 1.45419 0
2.74487e-14 1.45419 0
9.92172e-15 1.46938 0
-2.4898e-13 1.46938 0
2.74487e-14 1.45419 0
2.74264e-13 1.45419 0
-7.24992e-15 1.45419 0
6.59261e-13 1.45419 0
9.30469e-14 1.42965 0
-5.64652e-13 1.42965 0
6.59261e-13 1.45419 0
4.27099e-15 1.45419 0
-5.64652e-13 1.42965 0
2.77054e-13 1.42965 0
-2.4898e-13 1.46938 0
3.18382e-14 1.46938 0
2.74264e-13 1.45419 0
-3.67818e-14 1.45419 0
3.18382e-14 1.46938 0
1.80005e-13 1.46938 0
-3.67818e-14 1.45419 0
-1.62699e-13 1.45419 0
4.27099e-15 1.45419 0
-2.32635e-13 1.45419 0
2.77054e-13 1.42965 0
-2.93925e-13 1.42965 0
-2.32635e-13 1.45419 0
2.33353e-13 1.45419 0
-2.93925e-13 1.42965 0
9.30276e-14 1.42965 0
-4.09964e-13 1.42965 0
6.25349e-13 1.42965 0
3.08757e-13 1.40899 0
-6.44585e-13 1.40899 0
6.25349e-13 1.42965 0
-1.32332e-13 1.42965 0
-6.44585e-13 1.40899 0
1.4505e-13 1.40899 0
2.4438e-13 1.40899 0
-1.0365e-13 1.40899 0
-3.45556e-13 1.38856 0
3.46342e-13 1.38856 0
-1.0365e-13 1.40899 0
-2.12356e-13 1.40899 0
3.46342e-13 1.38856 0
1.36558e-13 1.38856 0
-1.32332e-13 1.42965 0
-9.11702e-14 1.42965 0
1.4505e-13 1.40899 0
-1.40758e-13 1.40899 0
-9.11702e-14 1.42965 0
-5.82382e-14 1.42965 0
-1.40758e-13 1.40899 0
-8.21743e-14 1.40899 0
-2.12356e-13 1.40899 0
8.03905e-14 1.40899 0
1.36558e-13 1.38856 0
-1.46318e-13 1.38856 0
8.03905e-14 1.40899 0
-2.71498e-13 1.40899 0
-1.46318e-13 1.38856 0
3.52662e-14 1.38856 0
1.18318e-13 1.38856 0
2.13805e-13 1.38856 0
-2.95248e-15 1.36942 0
-1.62627e-13 1.36942 0
2.13805e-13 1.38856 0
1.16147e-13 1.38856 0
-1.62627e-13 1.36942 0
-1.36566e-13 1.36942 0
3.31589e-13 1.36942 0
-1.38809e-13 1.36942 0
-1.18451e-13 1.35118 0
4.66663e-14 1.35118 0
-1.38809e-13 1.36942 0
1.28315e-13 1.36942 0
4.66663e-14 1.35118 0
2.3562e-14 1.35118 0
1.16147e-13 1.38856 0
-1.57082e-13 1.38856 0
-1.36566e-13 1.36942 0
3.05752e-13 1.36942 0
-1.57082e-13 1.38856 0
3.11848e-13 1.38856 0
3.05752e-13 1.36942 0
-2.36752e-13 1.36942 0
1.28315e-13 1.36942 0
2.48928e-14 1.36942 0
2.3562e-14 1.35118 0
-1.13453e-13 1.35118 0
2.48928e-14 1.36942 0
3.87604e-13 1.36942 0
-1.13453e-13 1.35118 0
-3.53454e-13 1.35118 0
-5.82382e-14 1.42965 0
3.50665e-13 1.42965 0
-8.21743e-14 1.40899 0
1.30146e-13 1.40899 0
3.50665e-13 1.42965 0
-3.79483e-13 1.42965 0
1.30146e-13 1.40899 0
2.48932e-13 1.40899 0
-2.71498e-13 1.40899 0
-6.35359e-14 1.40899 0
3.52662e-14 1.38856 0
2.12687e-13 1.38856 0
-6.35359e-14 1.40899 0
1.22973e-13 1.40899 0
2.12687e-13 1.38856 0
-1.70522e-13 1.38856 0
-3.79483e-13 1.42965 0
4.90976e-13 1.42965 0
2.48932e-13 1.40899 0
-5.03153e-13 1.40899 0
4.90976e-13 1.42965 0
-5.80058e-13 1.42965 0
-5.03153e-13 1.40899 0
4.88636e-13 1.40899 0
1.22973e-13 1.40899 0
-2.29579e-13 1.40899 0
-1.70522e-13 1.38856 0
3.85354e-13 1.38856 0
-2.29579e-13 1.40899 0
2.31309e-13 1.40899 0
3.85354e-13 1.38856 0
-1.51772e-13 1.38856 0
3.11848e-13 1.38856 0
-3.95588e-13 1.38856 0
-2.36752e-13 1.36942 0
5.10276e-13 1.36942 0
-3.95588e-13 1.38856 0
-9.57003e-14 1.38856 0
5.10276e-13 1.36942 0
-1.15732e-13 1.36942 0
3.87604e-13 1.36942 0
-7.34862e-13 1.36942 0
-3.53454e-13 1.35118 0
5.41686e-13 1.35118 0
-7.34862e-13 1.36942 0
1.45478e-13 1.36942 0
5.41686e-13 1.35118 0
4.35997e-14 1.35118 0
-9.57003e-14 1.38856 0
4.4646e-13 1.38856 0
-1.15732e-13 1.36942 0
-4.81583e-13 1.36942 0
4.4646e-13 1.38856 0
-4.20501e-14 1.38856 0
-4.81583e-13 1.36942 0
7.12874e-14 1.36942 0
1.45478e-13 1.36942 0
3.78023e-14 1.36942 0
4.35997e-14 1.35118 0
-2.21641e-14 1.35118 0
3.78023e-14 1.36942 0
1.72483e-13 1.36942 0
-2.21641e-14 1.35118 0
8.66908e-14 1.35118 0
0 1.35118 0
1.48516e-14 1.35118 0
0 1.3339 0
3.09478e-14 1.3339 0
1.48516e-14 1.35118 0
3.66997e-13 1.35118 0
3.09478e-14 1.3339 0
-3.67996e-13 1.3339 0
0 1.3339 0
2.1093e-13 1.3339 0
0 1.31749 0
-2.57332e-13 1.31749 0
2.1093e-13 1.3339 0
-4.5719e-13 1.3339 0
-2.57332e-13 1.31749 0
2.70367e-13 1.31749 0
3.66997e-13 1.35118 0
-5.79521e-13 1.35118 0
-3.67996e-13 1.3339 0
6.87123e-13 1.3339 0
-5.79521e-13 1.35118 0
1.78681e-13 1.35118 0
6.87123e-13 1.3339 0
-3.64167e-14 1.3339 0
-4.5719e-13 1.3339 0
5.93975e-13 1.3339 0
2.70367e-13 1.31749 0
-3.53955e-13 1.31749 0
5.93975e-13 1.3339 0
1.36808e-13 1.3339 0
-3.53955e-13 1.31749 0
2.14146e-15 1.31749 0
0 1.31749 0
-2.02326e-13 1.31749 0
0 1.30192 0
-1.08654e-13 1.30192 0
-2.02326e-13 1.31749 0
2.93871e-14 1.31749 0
-1.08654e-13 1.30192 0
1.72963e-13 1.30192 0
0 1.30192 0
2.20807e-14 1.30192 0
0 1.28714 0
-2.13573e-14 1.28714 0
2.20807e-14 1.30192 0
2.61289e-13 1.30192 0
-2.13573e-14 1.28714 0
-1.84994e-13 1.28714 0
2.93871e-14 1.31749 0
-2.70164e-13 1.31749 0
1.72963e-13 1.30192 0
1.79515e-13 1.30192 0
-2.70164e-13 1.31749 0
-5.76533e-14 1.31749 0
1.79515e-13 1.30192 0
-4.46071e-14 1.30192 0
2.61289e-13 1.30192 0
7.30558e-14 1.30192 0
-1.84994e-13 1.28714 0
8.7648e-15 1.28714 0
7.30558e-14 1.30192 0
-3.08109e-14 1.30192 0
8.7648e-15 1.28714 0
9.56305e-14 1.28714 0
1.78681e-13 1.35118 0
3.77327e-13 1.35118 0
-3.64167e-14 1.3339 0
-3.12504e-13 1.3339 0
3.77327e-13 1.35118 0
-4.27394e-13 1.35118 0
-3.12504e-13 1.3339 0
5.09372e-13 1.3339 0
1.36808e-13 1.3339 0
-2.7101e-13 1.3339 0
2.14146e-15 1.31749 0
3.45826e-13 1.31749 0
-2.7101e-13 1.3339 0
8.70797e-14 1.3339 0
3.45826e-13 1.31749 0
3.53879e-14 1.31749 0
-4.27394e-13 1.35118 0
-1.55787e-13 1.35118 0
5.09372e-13 1.3339 0
-9.19166e-14 1.3339 0
-1.55787e-13 1.35118 0
4.76251e-14 1.35118 0
-9.19166e-14 1.3339 0
-2.59193e-14 1.3339 0
8.70797e-14 1.3339 0
6.37576e-14 1.3339 0
3.53879e-14 1.31749 0
7.23423e-15 1.31749 0
6.37576e-14 1.3339 0
1.10276e-13 1.3339 0
7.23423e-15 1.31749 0
-1.804e-13 1.31749 0
-5.76533e-14 1.31749 0
3.71343e-13 1.31749 0
-4.46071e-14 1.30192 0
-3.49416e-13 1.30192 0
3.71343e-13 1.31749 0
-8.27728e-15 1.31749 0
-3.49416e-13 1.30192 0
-2.34379e-14 1.30192 0
-3.08109e-14 1.30192 0
-3.72257e-13 1.30192 0
9.56305e-14 1.28714 0
3.59416e-13 1.28714 0
-3.72257e-13 1.30192 0
1.48046e-13 1.30192 0
3.59416e-13 1.28714 0
-1.71527e-13 1.28714 0
-8.27728e-15 1.31749 0
7.21444e-14 1.31749 0
-2.34379e-14 1.30192 0
2.33391e-14 1.30192 0
7.21444e-14 1.31749 0
-3.24223e-14 1.31749 0
2.33391e-14 1.30192 0
-2.99885e-13 1.30192 0
1.48046e-13 1.30192 0
2.3134e-13 1.30192 0
-1.71527e-13 1.28714 0
-2.8842e-13 1.28714 0
2.3134e-13 1.30192 0
-4.52746e-13 1.30192 0
-2.8842e-13 1.28714 0
5.71919e-13 1.28714 0
0 1.28714 0
-2.56474e-13 1.28714 0
0 1.27311 0
2.79793e-13 1.27311 0
-2.56474e-13 1.28714 0
-1.60254e-13 1.28714 0
2.79793e-13 1.27311 0
1.95972e-13 1.27311 0
0 1.27311 0
-5.08297e-14 1.27311 0
0 1.2598 0
1.15492e-13 1.2598 0
-5.08297e-14 1.27311 0
5.92866e-14 1.27311 0
1.15492e-13 1.2598 0
-6.40513e-14 1.2598 0
-1.60254e-13 1.28714 0
1.78157e-13 1.28714 0
1.95972e-13 1.27311 0
-1.97266e-13 1.27311 0
1.78157e-13 1.28714 0
7.04253e-14 1.28714 0
-1.97266e-13 1.27311 0
6.96935e-15 1.27311 0
5.92866e-14 1.27311 0
-9.84812e-14 1.27311 0
-6.40513e-14 1.2598 0
-6.91061e-14 1.2598 0
-9.84812e-14 1.27311 0
1.08252e-13 1.27311 0
-6.91061e-14 1.2598 0
-7.52651e-14 1.2598 0
0 1.2598 0
2.7486e-13 1.2598 0
0 1.24716 0
-4.96691e-14 1.24716 0
2.7486e-13 1.2598 0
1.85487e-13 1.2598 0
-4.96691e-14 1.24716 0
-3.73033e-13 1.24716 0
0 1.24716 0
-4.49269e-14 1.24716 0
0 1.23516 0
9.76272e-14 1.23516 0
-4.49269e-14 1.24716 0
-4.57862e-13 1.24716 0
9.76272e-14 1.23516 0
2.04476e-13 1.23516 0
1.85487e-13 1.2598 0
-3.953e-13 1.2598 0
-3.73033e-13 1.24716 0
2.53458e-13 1.24716 0
-3.953e-13 1.2598 0
-5.34463e-15 1.2598 0
2.53458e-13 1.24716 0
1.25179e-13 1.24716 0
-4.57862e-13 1.24716 0
2.95908e-13 1.24716 0
2.04476e-13 1.23516 0
-2.5834e-13 1.23516 0
2.95908e-13 1.24716 0
8.7229e-14 1.24716 0
-2.5834e-13 1.23516 0
-1.85733e-13 1.23516 0
7.04253e-14 1.28714 0
3.547e-13 1.28714 0
6.96935e-15 1.27311 0
-4.87008e-13 1.27311 0
3.547e-13 1.28714 0
-3.63684e-13 1.28714 0
-4.87008e-13 1.27311 0
5.07466e-13 1.27311 0
1.08252e-13 1.27311 0
-2.77998e-13 1.27311 0
-7.52651e-14 1.2598 0
1.77338e-14 1.2598 0
-2.77998e-13 1.27311 0
5.28047e-13 1.27311 0
1.77338e-14 1.2598 0
-2.04695e-13 1.2598 0
-3.63684e-13 1.28714 0
-2.88318e-15 1.28714 0
5.07466e-13 1.27311 0
-4.43253e-14 1.27311 0
-2.88318e-15 1.28714 0
4.15875e-13 1.28714 0
-4.43253e-14 1.27311 0
-1.66953e-13 1.27311 0
5.28047e-13 1.27311 0
-2.31764e-13 1.27311 0
-2.04695e-13 1.2598 0
1.17586e-13 1.2598 0
-2.31764e-13 1.27311 0
-4.09256e-13 1.27311 0
1.17586e-13 1.2598 0
2.11195e-13 1.2598 0
-5.34463e-15 1.2598 0
-4.02016e-14 1.2598 0
1.25179e-13 1.24716 0
-3.08803e-14 1.24716 0
-4.02016e-14 1.2598 0
-2.16318e-13 1.2598 0
-3.08803e-14 1.24716 0
-4.29005e-14 1.24716 0
8.7229e-14 1.24716 0
-8.50831e-14 1.24716 0
-1.85733e-13 1.23516 0
-1.23091e-13 1.23516 0
-8.50831e-14 1.24716 0
-4.91416e-14 1.24716 0
-1.23091e-13 1.23516 0
2.94556e-15 1.23516 0
-2.16318e-13 1.2598 0
7.9237e-14 1.2598 0
-4.29005e-14 1.24716 0
1.55716e-14 1.24716 0
7.9237e-14 1.2598 0
4.31943e-13 1.2598 0
1.55716e-14 1.24716 0
-2.78165e-13 1.24716 0
-4.91416e-14 1.24716 0
2.20506e-13 1.24716 0
2.94556e-15 1.23516 0
-1.63462e-14 1.23516 0
2.20506e-13 1.24716 0
-4.04108e-14 1.24716 0
-1.63462e-14 1.23516 0
1.25041e-13 1.23516 0
4.76251e-14 1.35118 0
-4.32976e-14 1.35118 0
-2.59193e-14 1.3339 0
-1.01822e-13 1.3339 0
-4.32976e-14 1.35118 0
3.13681e-13 1.35118 0
-1.01822e-13 1.3339 0
-4.11307e-13 1.3339 0
1.10276e-13 1.3339 0
7.28304e-14 1.3339 0
-1.804e-13 1.31749 0
1.64064e-13 1.31749 0
7.28304e-14 1.3339 0
-6.47208e-13 1.3339 0
1.64064e-13 1.31749 0
3.54934e-13 1.31749 0
3.13681e-13 1.35118 0
-2.12263e-13 1.35118 0
-4.11307e-13 1.3339 0
1.92735e-13 1.3339 0
-2.12263e-13 1.35118 0
-5.46079e-13 1.35118 0
1.92735e-13 1.3339 0
4.73427e-13 1.3339 0
-6.47208e-13 1.3339 0
2.94572e-13 1.3339 0
3.54934e-13 1.31749 0
-3.84765e-13 1.31749 0
2.94572e-13 1.3339 0
3.67214e-13 1.3339 0
-3.84765e-13 1.31749 0
-2.71813e-13 1.31749 0
-3.24223e-14 1.31749 0
6.10202e-14 1.31749 0
-2.99885e-13 1.30192 0
-2.31832e-14 1.30192 0
6.10202e-14 1.31749 0
-8.82908e-14 1.31749 0
-2.31832e-14 1.30192 0
-2.56266e-14 1.30192 0
-4.52746e-13 1.30192 0
-2.44159e-13 1.30192 0
5.71919e-13 1.28714 0
3.20852e-13 1.28714 0
-2.44159e-13 1.30192 0
3.11529e-13 1.30192 0
3.20852e-13 1.28714 0
-2.86486e-13 1.28714 0
-8.82908e-14 1.31749 0
-1.21178e-13 1.31749 0
-2.56266e-14 1.30192 0
1.47777e-13 1.30192 0
-1.21178e-13 1.31749 0
1.7714e-14 1.31749 0
1.47777e-13 1.30192 0
3.72342e-14 1.30192 0
3.11529e-13 1.30192 0
-6.70908e-14 1.30192 0
-2.86486e-13 1.28714 0
2.03735e-13 1.28714 0
-6.70908e-14 1.30192 0
7.90367e-14 1.30192 0
2.03735e-13 1.28714 0
-2.40438e-13 1.28714 0
-5.46079e-13 1.35118 0
7.07729e-13 1.35118 0
4.73427e-13 1.3339 0
-6.9213e-13 1.3339 0
7.07729e-13 1.35118 0
-2.30468e-13 1.35118 0
-6.9213e-13 1.3339 0
2.58999e-13 1.3339 0
3.67214e-13 1.3339 0
1.06209e-13 1.3339 0
-2.71813e-13 1.31749 0
1.06055e-13 1.31749 0
1.06209e-13 1.3339 0
-1.66275e-13 1.3339 0
1.06055e-13 1.31749 0
-2.1248e-14 1.31749 0
-2.30468e-13 1.35118 0
-2.08391e-13 1.35118 0
2.58999e-13 1.3339 0
8.03972e-14 1.3339 0
-2.08391e-13 1.35118 0
5.88272e-13 1.35118 0
8.03972e-14 1.3339 0
-4.1788e-13 1.3339 0
-1.66275e-13 1.3339 0
-6.56863e-14 1.3339 0
-2.1248e-14 1.31749 0
-3.05165e-14 1.31749 0
-6.56863e-14 1.3339 0
-3.21794e-13 1.3339 0
-3.05165e-14 1.31749 0
3.01874e-13 1.31749 0
1.7714e-14 1.31749 0
-1.37346e-13 1.31749 0
3.72342e-14 1.30192 0
3.80765e-13 1.30192 0
-1.37346e-13 1.31749 0
2.42256e-13 1.31749 0
3.80765e-13 1.30192 0
-4.71437e-13 1.30192 0
7.90367e-14 1.30192 0
-2.22133e-14 1.30192 0
-2.40438e-13 1.28714 0
-8.60076e-14 1.28714 0
-2.22133e-14 1.30192 0
2.75998e-14 1.30192 0
-8.60076e-14 1.28714 0
2.94562e-13 1.28714 0
2.42256e-13 1.31749 0
2.28547e-13 1.31749 0
-4.71437e-13 1.30192 0
-1.84018e-14 1.30192 0
2.28547e-13 1.31749 0
-1.35421e-14 1.31749 0
-1.84018e-14 1.30192 0
5.0228e-14 1.30192 0
2.75998e-14 1.30192 0
-1.11403e-13 1.30192 0
2.94562e-13 1.28714 0
-2.84851e-13 1.28714 0
-1.11403e-13 1.30192 0
2.03387e-13 1.30192 0
-2.84851e-13 1.28714 0
-1.99491e-14 1.28714 0
4.15875e-13 1.28714 0
2.64386e-14 1.28714 0
-1.66953e-13 1.27311 0
-6.70828e-14 1.27311 0
2.64386e-14 1.28714 0
-2.8261e-13 1.28714 0
-6.70828e-14 1.27311 0
8.45302e-14 1.27311 0
-4.09256e-13 1.27311 0
1.30711e-13 1.27311 0
2.11195e-13 1.2598 0
-1.5726e-13 1.2598 0
1.30711e-13 1.27311 0
2.55903e-13 1.27311 0
-1.5726e-13 1.2598 0
-2.59779e-13 1.2598 0
-2.8261e-13 1.28714 0
1.03828e-13 1.28714 0
8.45302e-14 1.27311 0
-1.40604e-13 1.27311 0
1.03828e-13 1.28714 0
-1.32563e-13 1.28714 0
-1.40604e-13 1.27311 0