# vtk DataFile Version 3.0
#This file was generated by the deal.II library on 2018/10/16 at 2:55:46
ASCII
DATASET UNSTRUCTURED_GRID

POINTS 20480 double
0 0 0
0.19635 0 0
0 0.290563 0
0.19635 0.290563 0
0.19635 0 0
0.392699 0 0
0.19635 0.290563 0
0.392699 0.290563 0
0 0.290563 0
0.19635 0.290563 0
0 0.601846 0
0.19635 0.601846 0
0.19635 0.290563 0
0.392699 0.290563 0
0.19635 0.601846 0
0.392699 0.601846 0
0.392699 0 0
0.589049 0 0
0.392699 0.290563 0
0.589049 0.290563 0
0.589049 0 0
0.785398 0 0
0.589049 0.290563 0
0.785398 0.290563 0
0.392699 0.290563 0
0.589049 0.290563 0
0.392699 0.601846 0
0.589049 0.601846 0
0.589049 0.290563 0
0.785398 0.290563 0
0.589049 0.601846 0
0.785398 0.601846 0
0 0.601846 0
0.19635 0.601846 0
0 0.914854 0
0.19635 0.914854 0
0.19635 0.601846 0
0.392699 0.601846 0
0.19635 0.914854 0
0.392699 0.914854 0
0 0.914854 0
0.19635 0.914854 0
0 1.22849 0
0.19635 1.22849 0
0.19635 0.914854 0
0.392699 0.914854 0
0.19635 1.22849 0
0.392699 1.22849 0
0.392699 0.601846 0
0.589049 0.601846 0
0.392699 0.914854 0
0.589049 0.914854 0
0.589049 0.601846 0
0.785398 0.601846 0
0.589049 0.914854 0
0.785398 0.914854 0
0.392699 0.914854 0
0.589049 0.914854 0
0.392699 1.22849 0
0.589049 1.22849 0
0.589049 0.914854 0
0.785398 0.914854 0
0.589049 1.22849 0
0.785398 1.22849 0
0.785398 0 0
0.981748 0 0
0.785398 0.290563 0
0.981748 0.290563 0
0.981748 0 0
1.1781 0 0
0.981748 0.290563 0
1.1781 0.290563 0
0.785398 0.290563 0
0.981748 0.290563 0
0.785398 0.601846 0
0.981748 0.601846 0
0.981748 0.290563 0
1.1781 0.290563 0
0.981748 0.601846 0
1.1781 0.601846 0
1.1781 0 0
1.37445 0 0
1.1781 0.290563 0
1.37445 0.290563 0
1.37445 0 0
1.5708 0 0
1.37445 0.290563 0
1.5708 0.290563 0
1.1781 0.290563 0
1.37445 0.290563 0
1.1781 0.601846 0
1.37445 0.601846 0
1.37445 0.290563 0
1.5708 0.290563 0
1.37445 0.601846 0
1.5708 0.601846 0
0.785398 0.601846 0
0.981748 0.601846 0
0.785398 0.914854 0
0.981748 0.914854 0
0.981748 0.601846 0
1.1781 0.601846 0
0.981748 0.914854 0
1.1781 0.914854 0
0.785398 0.914854 0
0.981748 0.914854 0
0.785398 1.22849 0
0.981748 1.22849 0
0.981748 0.914854 0
1.1781 0.914854 0
0.981748 1.22849 0
1.1781 1.22849 0
1.1781 0.601846 0
1.37445 0.601846 0
1.1781 0.914854 0
1.37445 0.914854 0
1.37445 0.601846 0
1.5708 0.601846 0
1.37445 0.914854 0
1.5708 0.914854 0
1.1781 0.914854 0
1.37445 0.914854 0
1.1781 1.22849 0
1.37445 1.22849 0
1.37445 0.914854 0
1.5708 0.914854 0
1.37445 1.22849 0
1.5708 1.22849 0
0 1.22849 0
0.19635 1.22849 0
0 1.54204 0
0.19635 1.54204 0
0.19635 1.22849 0
0.392699 1.22849 0
0.19635 1.54204 0
0.392699 1.54204 0
0 1.54204 0
0.19635 1.54204 0
0 1.85559 0
0.19635 1.85559 0
0.19635 1.54204 0
0.392699 1.54204 0
0.19635 1.85559 0
0.392699 1.85559 0
0.392699 1.22849 0
0.589049 1.22849 0
0.392699 1.54204 0
0.589049 1.54204 0
0.589049 1.22849 0
0.785398 1.22849 0
0.589049 1.54204 0
0.785398 1.54204 0
0.392699 1.54204 0
0.589049 1.54204 0
0.392699 1.85559 0
0.589049 1.85559 0
0.589049 1.54204 0
0.785398 1.54204 0
0.589049 1.85559 0
0.785398 1.85559 0
0 1.85559 0
0.19635 1.85559 0
0 2.16909 0
0.19635 2.16909 0
0.19635 1.85559 0
0.392699 1.85559 0
0.19635 2.16909 0
0.392699 2.16909 0
0 2.16909 0
0.19635 2.16909 0
0 2.48256 0
0.19635 2.48256 0
0.19635 2.16909 0
0.392699 2.16909 0
0.19635 2.48256 0
0.392699 2.48256 0
0.392699 1.85559 0
0.589049 1.85559 0
0.392699 2.16909 0
0.589049 2.16909 0
0.589049 1.85559 0
0.785398 1.85559 0
0.589049 2.16909 0
0.785398 2.16909 0
0.392699 2.16909 0
0.589049 2.16909 0
0.392699 2.48256 0
0.589049 2.48256 0
0.589049 2.16909 0
0.785398 2.16909 0
0.589049 2.48256 0
0.785398 2.48256 0
0.785398 1.22849 0
0.981748 1.22849 0
0.785398 1.54204 0
0.981748 1.54204 0
0.981748 1.22849 0
1.1781 1.22849 0
0.981748 1.54204 0
1.1781 1.54204 0
0.785398 1.54204 0
0.981748 1.54204 0
0.785398 1.85559 0
0.981748 1.85559 0
0.981748 1.54204 0
1.1781 1.54204 0
0.981748 1.85559 0
1.1781 1.85559 0
1.1781 1.22849 0
1.37445 1.22849 0
1.1781 1.54204 0
1.37445 1.54204 0
1.37445 1.22849 0
1.5708 1.22849 0
1.37445 1.54204 0
1.5708 1.54204 0
1.1781 1.54204 0
1.37445 1.54204 0
1.1781 1.85559 0
1.37445 1.85559 0
1.37445 1.54204 0
1.5708 1.54204 0
1.37445 1.85559 0
1.5708 1.85559 0
0.785398 1.85559 0
0.981748 1.85559 0
0.785398 2.16909 0
0.981748 2.16909 0
0.981748 1.85559 0
1.1781 1.85559 0
0.981748 2.16909 0
1.1781 2.16909 0
0.785398 2.16909 0
0.981748 2.16909 0
0.785398 2.48256 0
0.981748 2.48256 0
0.981748 2.16909 0
1.1781 2.16909 0
0.981748 2.48256 0
1.1781 2.48256 0
1.1781 1.85559 0
1.37445 1.85559 0
1.1781 2.16909 0
1.37445 2.16909 0
1.37445 1.85559 0
1.5708 1.85559 0
1.37445 2.16909 0
1.5708 2.16909 0
1.1781 2.16909 0
1.37445 2.16909 0
1.1781 2.48256 0
1.37445 2.48256 0
1.37445 2.16909 0
1.5708 2.16909 0
1.37445 2.48256 0
1.5708 2.48256 0
1.5708 0 0
1.76715 0 0
1.5708 0.290563 0
1.76715 0.290563 0
1.76715 0 0
1.9635 0 0
1.76715 0.290563 0
1.9635 0.290563 0
1.5708 0.290563 0
1.76715 0.290563 0
1.5708 0.601846 0
1.76715 0.601846 0
1.76715 0.290563 0
1.9635 0.290563 0
1.76715 0.601846 0
1.9635 0.601846 0
1.9635 0 0
2.15984 0 0
1.9635 0.290563 0
2.15984 0.290563 0
2.15984 0 0
2.35619 0 0
2.15984 0.290563 0
2.35619 0.290563 0
1.9635 0.290563 0
2.15984 0.290563 0
1.9635 0.601846 0
2.15984 0.601846 0
2.15984 0.290563 0
2.35619 0.290563 0
2.15984 0.601846 0
2.35619 0.601846 0
1.5708 0.601846 0
1.76715 0.601846 0
1.5708 0.914854 0
1.76715 0.914854 0
1.76715 0.601846 0
1.9635 0.601846 0
1.76715 0.914854 0
1.9635 0.914854 0
1.5708 0.914854 0
1.76715 0.914854 0
1.5708 1.22849 0
1.76715 1.22849 0
1.76715 0.914854 0
1.9635 0.914854 0
1.76715 1.22849 0
1.9635 1.22849 0
1.9635 0.601846 0
2.15984 0.601846 0
1.9635 0.914854 0
2.15984 0.914854 0
2.15984 0.601846 0
2.35619 0.601846 0
2.15984 0.914854 0
2.35619 0.914854 0
1.9635 0.914854 0
2.15984 0.914854 0
1.9635 1.22849 0
2.15984 1.22849 0
2.15984 0.914854 0
2.35619 0.914854 0
2.15984 1.22849 0
2.35619 1.22849 0
2.35619 0 0
2.55254 0 0
2.35619 0.290563 0
2.55254 0.290563 0
2.55254 0 0
2.74889 0 0
2.55254 0.290563 0
2.74889 0.290563 0
2.35619 0.290563 0
2.55254 0.290563 0
2.35619 0.601846 0
2.55254 0.601846 0
2.55254 0.290563 0
2.74889 0.290563 0
2.55254 0.601846 0
2.74889 0.601846 0
2.74889 0 0
2.94524 0 0
2.74889 0.290563 0
2.94524 0.290563 0
2.94524 0 0
3.14159 0 0
2.94524 0.290563 0
3.14159 0.290563 0
2.74889 0.290563 0
2.94524 0.290563 0
2.74889 0.601846 0
2.94524 0.601846 0
2.94524 0.290563 0
3.14159 0.290563 0
2.94524 0.601846 0
3.14159 0.601846 0
2.35619 0.601846 0
2.55254 0.601846 0
2.35619 0.914854 0
2.55254 0.914854 0
2.55254 0.601846 0
2.74889 0.601846 0
2.55254 0.914854 0
2.74889 0.914854 0
2.35619 0.914854 0
2.55254 0.914854 0
2.35619 1.22849 0
2.55254 1.22849 0
2.55254 0.914854 0
2.74889 0.914854 0
2.55254 1.22849 0
2.74889 1.22849 0
2.74889 0.601846 0
2.94524 0.601846 0
2.74889 0.914854 0
2.94524 0.914854 0
2.94524 0.601846 0
3.14159 0.601846 0
2.94524 0.914854 0
3.14159 0.914854 0
2.74889 0.914854 0
2.94524 0.914854 0
2.74889 1.22849 0
2.94524 1.22849 0
2.94524 0.914854 0
3.14159 0.914854 0
2.94524 1.22849 0
3.14159 1.22849 0
1.5708 1.22849 0
1.76715 1.22849 0
1.5708 1.54204 0
1.76715 1.54204 0
1.76715 1.22849 0
1.9635 1.22849 0
1.76715 1.54204 0
1.9635 1.54204 0
1.5708 1.54204 0
1.76715 1.54204 0
1.5708 1.85559 0
1.76715 1.85559 0
1.76715 1.54204 0
1.9635 1.54204 0
1.76715 1.85559 0
1.9635 1.85559 0
1.9635 1.22849 0
2.15984 1.22849 0
1.9635 1.54204 0
2.15984 1.54204 0
2.15984 1.22849 0
2.35619 1.22849 0
2.15984 1.54204 0
2.35619 1.54204 0
1.9635 1.54204 0
2.15984 1.54204 0
1.9635 1.85559 0
2.15984 1.85559 0
2.15984 1.54204 0
2.35619 1.54204 0
2.15984 1.85559 0
2.35619 1.85559 0
1.5708 1.85559 0
1.76715 1.85559 0
1.5708 2.16909 0
1.76715 2.16909 0
1.76715 1.85559 0
1.9635 1.85559 0
1.76715 2.16909 0
1.9635 2.16909 0
1.5708 2.16909 0
1.76715 2.16909 0
1.5708 2.48256 0
1.76715 2.48256 0
1.76715 2.16909 0
1.9635 2.16909 0
1.76715 2.48256 0
1.9635 2.48256 0
1.9635 1.85559 0
2.15984 1.85559 0
1.9635 2.16909 0
2.15984 2.16909 0
2.15984 1.85559 0
2.35619 1.85559 0
2.15984 2.16909 0
2.35619 2.16909 0
1.9635 2.16909 0
2.15984 2.16909 0
1.9635 2.48256 0
2.15984 2.48256 0
2.15984 2.16909 0
2.35619 2.16909 0
2.15984 2.48256 0
2.35619 2.48256 0
2.35619 1.22849 0
2.55254 1.22849 0
2.35619 1.54204 0
2.55254 1.54204 0
2.55254 1.22849 0
2.74889 1.22849 0
2.55254 1.54204 0
2.74889 1.54204 0
2.35619 1.54204 0
2.55254 1.54204 0
2.35619 1.85559 0
2.55254 1.85559 0
2.55254 1.54204 0
2.74889 1.54204 0
2.55254 1.85559 0
2.74889 1.85559 0
2.74889 1.22849 0
2.94524 1.22849 0
2.74889 1.54204 0
2.94524 1.54204 0
2.94524 1.22849 0
3.14159 1.22849 0
2.94524 1.54204 0
3.14159 1.54204 0
2.74889 1.54204 0
2.94524 1.54204 0
2.74889 1.85559 0
2.94524 1.85559 0
2.94524 1.54204 0
3.14159 1.54204 0
2.94524 1.85559 0
3.14159 1.85559 0
2.35619 1.85559 0
2.55254 1.85559 0
2.35619 2.16909 0
2.55254 2.16909 0
2.55254 1.85559 0
2.74889 1.85559 0
2.55254 2.16909 0
2.74889 2.16909 0
2.35619 2.16909 0
2.55254 2.16909 0
2.35619 2.48256 0
2.55254 2.48256 0
2.55254 2.16909 0
2.74889 2.16909 0
2.55254 2.48256 0
2.74889 2.48256 0
2.74889 1.85559 0
2.94524 1.85559 0
2.74889 2.16909 0
2.94524 2.16909 0
2.94524 1.85559 0
3.14159 1.85559 0
2.94524 2.16909 0
3.14159 2.16909 0
2.74889 2.16909 0
2.94524 2.16909 0
2.74889 2.48256 0
2.94524 2.48256 0
2.94524 2.16909 0
3.14159 2.16909 0
2.94524 2.48256 0
3.14159 2.48256 0
0 2.48256 0
0.19635 2.48256 0
0 2.796 0
0.19635 2.796 0
0.19635 2.48256 0
0.392699 2.48256 0
0.19635 2.796 0
0.392699 2.796 0
0 2.796 0
0.19635 2.796 0
0 3.1094 0
0.19635 3.1094 0
0.19635 2.796 0
0.392699 2.796 0
0.19635 3.1094 0
0.392699 3.1094 0
0.392699 2.48256 0
0.589049 2.48256 0
0.392699 2.796 0
0.589049 2.796 0
0.589049 2.48256 0
0.785398 2.48256 0
0.589049 2.796 0
0.785398 2.796 0
0.392699 2.796 0
0.589049 2.796 0
0.392699 3.1094 0
0.589049 3.1094 0
0.589049 2.796 0
0.785398 2.796 0
0.589049 3.1094 0
0.785398 3.1094 0
0 3.1094 0
0.19635 3.1094 0
0 3.42278 0
0.19635 3.42278 0
0.19635 3.1094 0
0.392699 3.1094 0
0.19635 3.42278 0
0.392699 3.42278 0
0 3.42278 0
0.19635 3.42278 0
[...]
POINT_DATA 20480
VECTORS uf double
0 1 0
-2.25263e-13 1 0
0 1.55884 0
3.2132e-13 1.55884 0
-2.25263e-13 1 0
-7.44532e-14 1 0
3.2132e-13 1.55884 0
1.46366e-13 1.55884 0
0 1.55884 0
1.7102e-13 1.55884 0
0 1.52678 0
-1.76558e-14 1.52678 0
1.7102e-13 1.55884 0
-7.21411e-14 1.55884 0
-1.76558e-14 1.52678 0
2.08047e-13 1.52678 0
-7.44532e-14 1 0
2.0518e-13 1 0
1.46366e-13 1.55884 0
-4.06427e-13 1.55884 0
2.0518e-13 1 0
-1.8771e-13 1 0
-4.06427e-13 1.55884 0
3.47829e-13 1.55884 0
-7.21411e-14 1.55884 0
-6.79942e-13 1.55884 0
2.08047e-13 1.52678 0
7.15611e-13 1.52678 0
-6.79942e-13 1.55884 0
6.57254e-14 1.55884 0
7.15611e-13 1.52678 0
1.2902e-13 1.52678 0
0 1.52678 0
1.70609e-13 1.52678 0
0 1.51304 0
-1.85656e-14 1.51304 0
1.70609e-13 1.52678 0
3.3167e-13 1.52678 0
-1.85656e-14 1.51304 0
-3.91416e-13 1.51304 0
0 1.51304 0
1.52299e-13 1.51304 0
0 1.48331 0
-1.52951e-13 1.48331 0
1.52299e-13 1.51304 0
-3.14277e-13 1.51304 0
-1.52951e-13 1.48331 0
3.29732e-13 1.48331 0
3.3167e-13 1.52678 0
6.1962e-13 1.52678 0
-3.91416e-13 1.51304 0
-3.27901e-13 1.51304 0
6.1962e-13 1.52678 0
1.10756e-13 1.52678 0
-3.27901e-13 1.51304 0
2.77171e-13 1.51304 0
-3.14277e-13 1.51304 0
2.54836e-13 1.51304 0
3.29732e-13 1.48331 0
-4.57076e-13 1.48331 0
2.54836e-13 1.51304 0
2.35243e-13 1.51304 0
-4.57076e-13 1.48331 0
2.50074e-13 1.48331 0
-1.8771e-13 1 0
-2.32626e-13 1 0
3.47829e-13 1.55884 0
4.30387e-13 1.55884 0
-2.32626e-13 1 0
1.23313e-13 1 0
4.30387e-13 1.55884 0
-1.83102e-13 1.55884 0
6.57254e-14 1.55884 0
5.40442e-13 1.55884 0
1.2902e-13 1.52678 0
-4.22881e-13 1.52678 0
5.40442e-13 1.55884 0
3.76656e-13 1.55884 0
-4.22881e-13 1.52678 0
-5.72854e-13 1.52678 0
1.23313e-13 1 0
6.99082e-13 1 0
-1.83102e-13 1.55884 0
-1.23201e-12 1.55884 0
6.99082e-13 1 0
4.49865e-13 1 0
-1.23201e-12 1.55884 0
-6.44287e-13 1.55884 0
3.76656e-13 1.55884 0
-8.94345e-13 1.55884 0
-5.72854e-13 1.52678 0
3.94019e-13 1.52678 0
-8.94345e-13 1.55884 0
-5.0192e-13 1.55884 0
3.94019e-13 1.52678 0
1.03132e-13 1.52678 0
1.10756e-13 1.52678 0
-3.04579e-13 1.52678 0
2.77171e-13 1.51304 0
1.29973e-13 1.51304 0
-3.04579e-13 1.52678 0
-5.50567e-13 1.52678 0
1.29973e-13 1.51304 0
2.3121e-13 1.51304 0
2.35243e-13 1.51304 0
-3.15867e-14 1.51304 0
2.50074e-13 1.48331 0
-1.52318e-13 1.48331 0
-3.15867e-14 1.51304 0
-1.94835e-13 1.51304 0
-1.52318e-13 1.48331 0
2.03734e-13 1.48331 0
-5.50567e-13 1.52678 0
-1.22393e-13 1.52678 0
2.3121e-13 1.51304 0
-1.29789e-13 1.51304 0
-1.22393e-13 1.52678 0
4.12917e-14 1.52678 0
-1.29789e-13 1.51304 0
-3.42109e-13 1.51304 0
-1.94835e-13 1.51304 0
-5.9177e-14 1.51304 0
2.03734e-13 1.48331 0
2.81646e-14 1.48331 0
-5.9177e-14 1.51304 0
1.12133e-13 1.51304 0
2.81646e-14 1.48331 0
-3.65005e-13 1.48331 0
0 1.48331 0
-2.54509e-13 1.48331 0
0 1.45969 0
3.31282e-13 1.45969 0
-2.54509e-13 1.48331 0
5.30915e-13 1.48331 0
3.31282e-13 1.45969 0
-6.70791e-13 1.45969 0
0 1.45969 0
5.27878e-13 1.45969 0
0 1.4359 0
-4.07145e-13 1.4359 0
5.27878e-13 1.45969 0
-6.73654e-13 1.45969 0
-4.07145e-13 1.4359 0
3.20978e-13 1.4359 0
5.30915e-13 1.48331 0
-3.83136e-13 1.48331 0
-6.70791e-13 1.45969 0
3.92526e-13 1.45969 0
-3.83136e-13 1.48331 0
1.91127e-13 1.48331 0
3.92526e-13 1.45969 0
8.84553e-14 1.45969 0
-6.73654e-13 1.45969 0
1.71198e-13 1.45969 0
3.20978e-13 1.4359 0
2.52575e-14 1.4359 0
1.71198e-13 1.45969 0
1.52053e-13 1.45969 0
2.52575e-14 1.4359 0
2.89126e-14 1.4359 0
0 1.4359 0
-2.41576e-13 1.4359 0
0 1.41385 0
-9.96621e-14 1.41385 0
-2.41576e-13 1.4359 0
1.66248e-13 1.4359 0
-9.96621e-14 1.41385 0
-4.91323e-14 1.41385 0
0 1.41385 0
-3.54663e-13 1.41385 0
0 1.3929 0
2.3013e-13 1.3929 0
-3.54663e-13 1.41385 0
-1.13686e-13 1.41385 0
2.3013e-13 1.3929 0
9.72098e-14 1.3929 0
1.66248e-13 1.4359 0
2.0816e-13 1.4359 0
-4.91323e-14 1.41385 0
-1.2412e-13 1.41385 0
2.0816e-13 1.4359 0
1.74622e-13 1.4359 0
-1.2412e-13 1.41385 0
-5.09693e-14 1.41385 0
-1.13686e-13 1.41385 0
1.0667e-13 1.41385 0
9.72098e-14 1.3929 0
-4.49327e-13 1.3929 0
1.0667e-13 1.41385 0
-8.49511e-14 1.41385 0
-4.49327e-13 1.3929 0
2.56552e-13 1.3929 0
1.91127e-13 1.48331 0
-2.09824e-14 1.48331 0
8.84553e-14 1.45969 0
-7.63173e-14 1.45969 0
-2.09824e-14 1.48331 0
7.27021e-14 1.48331 0
-7.63173e-14 1.45969 0
-1.12859e-13 1.45969 0
1.52053e-13 1.45969 0
-3.60466e-13 1.45969 0
2.89126e-14 1.4359 0
2.99854e-13 1.4359 0
-3.60466e-13 1.45969 0
6.06283e-14 1.45969 0
2.99854e-13 1.4359 0
-1.99417e-13 1.4359 0
7.27021e-14 1.48331 0
-3.18486e-13 1.48331 0
-1.12859e-13 1.45969 0
1.73509e-13 1.45969 0
-3.18486e-13 1.48331 0
-5.05513e-13 1.48331 0
1.73509e-13 1.45969 0
3.74274e-13 1.45969 0
6.06283e-14 1.45969 0
5.93038e-14 1.45969 0
-1.99417e-13 1.4359 0
-1.11804e-13 1.4359 0
5.93038e-14 1.45969 0
2.62339e-13 1.45969 0
-1.11804e-13 1.4359 0
-3.45689e-13 1.4359 0
1.74622e-13 1.4359 0
2.6532e-13 1.4359 0
-5.09693e-14 1.41385 0
-1.8909e-13 1.41385 0
2.6532e-13 1.4359 0
-2.81213e-13 1.4359 0
-1.8909e-13 1.41385 0
-1.98485e-14 1.41385 0
-8.49511e-14 1.41385 0
-1.8745e-13 1.41385 0
2.56552e-13 1.3929 0
3.61991e-13 1.3929 0
-1.8745e-13 1.41385 0
-8.34334e-14 1.41385 0
3.61991e-13 1.3929 0
-6.96692e-14 1.3929 0
-2.81213e-13 1.4359 0
-6.18522e-13 1.4359 0
-1.98485e-14 1.41385 0
6.84696e-13 1.41385 0
-6.18522e-13 1.4359 0
2.18214e-13 1.4359 0
6.84696e-13 1.41385 0
-1.30799e-13 1.41385 0
-8.34334e-14 1.41385 0
3.86418e-13 1.41385 0
-6.96692e-14 1.3929 0
-2.72295e-13 1.3929 0
3.86418e-13 1.41385 0
2.0033e-13 1.41385 0
-2.72295e-13 1.3929 0
-9.31958e-14 1.3929 0
4.49865e-13 1 0
-4.04317e-13 1 0
-6.44287e-13 1.55884 0
8.16786e-13 1.55884 0
-4.04317e-13 1 0
-2.40832e-13 1 0
8.16786e-13 1.55884 0
2.71496e-13 1.55884 0
-5.0192e-13 1.55884 0
7.46575e-13 1.55884 0
1.03132e-13 1.52678 0
-4.94107e-13 1.52678 0
7.46575e-13 1.55884 0
3.23752e-13 1.55884 0
-4.94107e-13 1.52678 0
-2.84754e-13 1.52678 0
-2.40832e-13 1 0
-1.78512e-13 1 0
2.71496e-13 1.55884 0
9.1656e-14 1.55884 0
-1.78512e-13 1 0
2.72669e-13 1 0
9.1656e-14 1.55884 0
1.3064e-13 1.55884 0
3.23752e-13 1.55884 0
-3.65967e-13 1.55884 0
-2.84754e-13 1.52678 0
4.61936e-13 1.52678 0
-3.65967e-13 1.55884 0
5.71341e-13 1.55884 0
4.61936e-13 1.52678 0
-4.7843e-13 1.52678 0
4.12917e-14 1.52678 0
-2.08581e-13 1.52678 0
-3.42109e-13 1.51304 0
2.0519e-13 1.51304 0
-2.08581e-13 1.52678 0
3.31032e-13 1.52678 0
2.0519e-13 1.51304 0
1.42764e-14 1.51304 0
1.12133e-13 1.51304 0
-1.94343e-13 1.51304 0
-3.65005e-13 1.48331 0
3.93339e-13 1.48331 0
-1.94343e-13 1.51304 0
-6.0717e-14 1.51304 0
3.93339e-13 1.48331 0
-3.66764e-13 1.48331 0
3.31032e-13 1.52678 0
1.70345e-13 1.52678 0
1.42764e-14 1.51304 0
-1.6087e-13 1.51304 0
1.70345e-13 1.52678 0
-5.92839e-13 1.52678 0
-1.6087e-13 1.51304 0
4.27435e-13 1.51304 0
-6.0717e-14 1.51304 0
-3.63334e-13 1.51304 0
-3.66764e-13 1.48331 0
6.35089e-13 1.48331 0
-3.63334e-13 1.51304 0
4.63365e-14 1.51304 0
6.35089e-13 1.48331 0
2.01646e-13 1.48331 0
2.72669e-13 1 0
2.45338e-13 1 0
1.3064e-13 1.55884 0
-3.35907e-13 1.55884 0
2.45338e-13 1 0
-1.30585e-13 1 0
-3.35907e-13 1.55884 0
8.76638e-14 1.55884 0
5.71341e-13 1.55884 0
-3.27851e-13 1.55884 0
-4.7843e-13 1.52678 0
2.59489e-13 1.52678 0
-3.27851e-13 1.55884 0
-1.95318e-13 1.55884 0
2.59489e-13 1.52678 0
1.92333e-13 1.52678 0
-1.30585e-13 1 0
-1.83288e-13 1 0
8.76638e-14 1.55884 0
2.45885e-13 1.55884 0
-1.83288e-13 1 0
1.16079e-13 1 0
2.45885e-13 1.55884 0
-4.90711e-14 1.55884 0
-1.95318e-13 1.55884 0
2.61569e-13 1.55884 0
1.92333e-13 1.52678 0
-1.81534e-13 1.52678 0
2.61569e-13 1.55884 0
4.14219e-13 1.55884 0
-1.81534e-13 1.52678 0
-4.0224e-14 1.52678 0
-5.92839e-13 1.52678 0
2.86504e-14 1.52678 0
4.27435e-13 1.51304 0
-4.27795e-15 1.51304 0
2.86504e-14 1.52678 0
-1.86281e-13 1.52678 0
-4.27795e-15 1.51304 0
2.40957e-13 1.51304 0
4.63365e-14 1.51304 0
7.09675e-13 1.51304 0
2.01646e-13 1.48331 0
-7.36119e-13 1.48331 0
7.09675e-13 1.51304 0
-4.39934e-14 1.51304 0
-7.36119e-13 1.48331 0
4.15066e-13 1.48331 0
-1.86281e-13 1.52678 0
-1.12116e-13 1.52678 0
2.40957e-13 1.51304 0
7.99128e-14 1.51304 0
-1.12116e-13 1.52678 0
1.96482e-13 1.52678 0
7.99128e-14 1.51304 0
-6.34391e-14 1.51304 0
-4.39934e-14 1.51304 0
-1.88971e-13 1.51304 0
4.15066e-13 1.48331 0
-3.23667e-13 1.48331 0
-1.88971e-13 1.51304 0
3.20037e-13 1.51304 0
-3.23667e-13 1.48331 0
-6.66624e-15 1.48331 0
-5.05513e-13 1.48331 0
8.29976e-13 1.48331 0
3.74274e-13 1.45969 0
-7.21585e-13 1.45969 0
8.29976e-13 1.48331 0
-2.07695e-13 1.48331 0
-7.21585e-13 1.45969 0
2.33813e-13 1.45969 0
2.62339e-13 1.45969 0
-1.44558e-13 1.45969 0
-3.45689e-13 1.4359 0
3.69719e-13 1.4359 0
-1.44558e-13 1.45969 0
-2.35528e-13 1.45969 0
3.69719e-13 1.4359 0
2.16841e-13 1.4359 0
-2.07695e-13 1.48331 0
-1.16598e-14 1.48331 0
2.33813e-13 1.45969 0
-3.11884e-13 1.45969 0
-1.16598e-14 1.48331 0
1.68962e-14 1.48331 0
-3.11884e-13 1.45969 0
-4.59979e-14 1.45969 0
-2.35528e-13 1.45969 0
-3.02767e-14 1.45969 0
2.16841e-13 1.4359 0
-8.36309e-14 1.4359 0
-3.02767e-14 1.45969 0
-1.19018e-13 1.45969 0
-8.36309e-14 1.4359 0
-8.25419e-14 1.4359 0
2.18214e-13 1.4359 0
2.1783e-13 1.4359 0
-1.30799e-13 1.41385 0
-2.09633e-13 1.41385 0
2.1783e-13 1.4359 0
7.48625e-14 1.4359 0
-2.09633e-13 1.41385 0
2.39576e-14 1.41385 0
2.0033e-13 1.41385 0
-1.91914e-13 1.41385 0
-9.31958e-14 1.3929 0
1.23365e-13 1.3929 0
-1.91914e-13 1.41385 0
3.1011e-13 1.41385 0
1.23365e-13 1.3929 0
-1.33062e-13 1.3929 0
7.48625e-14 1.4359 0
-1.7276e-13 1.4359 0
2.39576e-14 1.41385 0
3.13527e-13 1.41385 0
-1.7276e-13 1.4359 0
2.38848e-13 1.4359 0
3.13527e-13 1.41385 0
-1.94596e-13 1.41385 0
3.1011e-13 1.41385 0
-3.76592e-14 1.41385 0
-1.33062e-13 1.3929 0
-6.32329e-14 1.3929 0
-3.76592e-14 1.41385 0
4.30401e-13 1.41385 0
-6.32329e-14 1.3929 0
-4.20359e-13 1.3929 0
1.68962e-14 1.48331 0
1.46418e-13 1.48331 0
-4.59979e-14 1.45969 0
2.86008e-13 1.45969 0
1.46418e-13 1.48331 0
-2.45867e-13 1.48331 0
2.86008e-13 1.45969 0
1.52601e-13 1.45969 0
-1.19018e-13 1.45969 0
4.89982e-14 1.45969 0
-8.25419e-14 1.4359 0
2.7088e-13 1.4359 0
4.89982e-14 1.45969 0
9.70146e-14 1.45969 0
2.7088e-13 1.4359 0
-2.0385e-13 1.4359 0
-2.45867e-13 1.48331 0
5.47813e-13 1.48331 0
1.52601e-13 1.45969 0
-5.72484e-13 1.45969 0
5.47813e-13 1.48331 0
-6.81624e-13 1.48331 0
-5.72484e-13 1.45969 0
6.46235e-13 1.45969 0
9.70146e-14 1.45969 0
-2.99643e-13 1.45969 0
-2.0385e-13 1.4359 0
4.56506e-13 1.4359 0
-2.99643e-13 1.45969 0
3.06935e-13 1.45969 0
4.56506e-13 1.4359 0
-1.83012e-13 1.4359 0
2.38848e-13 1.4359 0
-2.66555e-13 1.4359 0
-1.94596e-13 1.41385 0
4.05191e-13 1.41385 0
-2.66555e-13 1.4359 0
-1.6508e-13 1.4359 0
4.05191e-13 1.41385 0
-2.08489e-14 1.41385 0
4.30401e-13 1.41385 0
-8.56896e-13 1.41385 0
-4.20359e-13 1.3929 0
7.82148e-13 1.3929 0
-8.56896e-13 1.41385 0
2.39248e-13 1.41385 0
7.82148e-13 1.3929 0
-1.45976e-14 1.3929 0
-1.6508e-13 1.4359 0
4.7649e-13 1.4359 0
-2.08489e-14 1.41385 0
-4.82244e-13 1.41385 0
4.7649e-13 1.4359 0
1.48452e-14 1.4359 0
-4.82244e-13 1.41385 0
1.03872e-13 1.41385 0
2.39248e-13 1.41385 0
5.77606e-14 1.41385 0
-1.45976e-14 1.3929 0
-1.47967e-13 1.3929 0
5.77606e-14 1.41385 0
9.49659e-14 1.41385 0
-1.47967e-13 1.3929 0
2.87445e-13 1.3929 0
0 1.3929 0
1.84067e-13 1.3929 0
0 1.37315 0
-6.77673e-14 1.37315 0
1.84067e-13 1.3929 0
1.92069e-13 1.3929 0
-6.77673e-14 1.37315 0
-2.08017e-13 1.37315 0
0 1.37315 0
1.53586e-13 1.37315 0
0 1.35448 0
-2.80274e-13 1.35448 0
1.53586e-13 1.37315 0
-1.98593e-13 1.37315 0
-2.80274e-13 1.35448 0
1.32133e-13 1.35448 0
1.92069e-13 1.3929 0
-6.98404e-13 1.3929 0
-2.08017e-13 1.37315 0
6.61865e-13 1.37315 0
-6.98404e-13 1.3929 0
2.73605e-13 1.3929 0
6.61865e-13 1.37315 0
-9.31292e-14 1.37315 0
-1.98593e-13 1.37315 0
5.2113e-13 1.37315 0
1.32133e-13 1.35448 0
-2.68985e-13 1.35448 0
5.2113e-13 1.37315 0
1.38757e-14 1.37315 0
-2.68985e-13 1.35448 0
-2.03102e-15 1.35448 0
0 1.35448 0
-3.24978e-13 1.35448 0
0 1.33685 0
-6.94352e-15 1.33685 0
-3.24978e-13 1.35448 0
-1.21982e-13 1.35448 0
-6.94352e-15 1.33685 0
1.72815e-13 1.33685 0
0 1.33685 0
1.47225e-13 1.33685 0
0 1.32019 0
-6.52087e-14 1.32019 0
1.47225e-13 1.33685 0
2.94957e-13 1.33685 0
-6.52087e-14 1.32019 0
-2.86714e-13 1.32019 0
-1.21982e-13 1.35448 0
-2.05104e-13 1.35448 0
1.72815e-13 1.33685 0
2.25395e-13 1.33685 0
-2.05104e-13 1.35448 0
-1.00454e-14 1.35448 0
2.25395e-13 1.33685 0
-4.0992e-14 1.33685 0
2.94957e-13 1.33685 0
8.73218e-14 1.33685 0
-2.86714e-13 1.32019 0
8.96081e-14 1.32019 0
8.73218e-14 1.33685 0
-8.19733e-14 1.33685 0
8.96081e-14 1.32019 0
1.51845e-13 1.32019 0
2.73605e-13 1.3929 0
5.28086e-13 1.3929 0
-9.31292e-14 1.37315 0
-4.43315e-13 1.37315 0
5.28086e-13 1.3929 0
-5.07882e-13 1.3929 0
-4.43315e-13 1.37315 0
5.70924e-13 1.37315 0
1.38757e-14 1.37315 0
-4.58664e-13 1.37315 0
-2.03102e-15 1.35448 0
3.28742e-13 1.35448 0
-4.58664e-13 1.37315 0
8.28134e-14 1.37315 0
3.28742e-13 1.35448 0
4.22445e-14 1.35448 0
-5.07882e-13 1.3929 0
-3.35978e-13 1.3929 0
5.70924e-13 1.37315 0
1.67377e-13 1.37315 0
-3.35978e-13 1.3929 0
6.83802e-14 1.3929 0
1.67377e-13 1.37315 0
-1.5931e-13 1.37315 0
8.28134e-14 1.37315 0
3.03967e-13 1.37315 0
4.22445e-14 1.35448 0
-1.94976e-13 1.35448 0
3.03967e-13 1.37315 0
-2.49214e-14 1.37315 0
-1.94976e-13 1.35448 0
-1.36596e-13 1.35448 0
-1.00454e-14 1.35448 0
4.42547e-13 1.35448 0
-4.0992e-14 1.33685 0
-4.4608e-13 1.33685 0
4.42547e-13 1.35448 0
8.91296e-14 1.35448 0
-4.4608e-13 1.33685 0
7.36362e-14 1.33685 0
-8.19733e-14 1.33685 0
-5.11095e-13 1.33685 0
1.51845e-13 1.32019 0
3.62834e-13 1.32019 0
-5.11095e-13 1.33685 0
2.18924e-13 1.33685 0
3.62834e-13 1.32019 0
-1.78575e-13 1.32019 0
8.91296e-14 1.35448 0
-6.60295e-14 1.35448 0
7.36362e-14 1.33685 0
2.08563e-13 1.33685 0
-6.60295e-14 1.35448 0
-2.72802e-14 1.35448 0
2.08563e-13 1.33685 0
-3.51953e-13 1.33685 0
2.18924e-13 1.33685 0
5.26506e-13 1.33685 0
-1.78575e-13 1.32019 0
-5.94314e-13 1.32019 0
5.26506e-13 1.33685 0
-6.13518e-13 1.33685 0
-5.94314e-13 1.32019 0
7.85327e-13 1.32019 0
0 1.32019 0
-4.47094e-13 1.32019 0
0 1.30444 0
4.12933e-13 1.30444 0
-4.47094e-13 1.32019 0
-2.27107e-13 1.32019 0
4.12933e-13 1.30444 0
2.69902e-13 1.30444 0
0 1.30444 0
1.49724e-13 1.30444 0
0 1.28957 0
1.78537e-13 1.28957 0
1.49724e-13 1.30444 0
7.51154e-14 1.30444 0
1.78537e-13 1.28957 0
6.1881e-14 1.28957 0
-2.27107e-13 1.32019 0
4.50845e-13 1.32019 0
2.69902e-13 1.30444 0
-3.14855e-13 1.30444 0
4.50845e-13 1.32019 0
1.48792e-13 1.32019 0
-3.14855e-13 1.30444 0
-1.75626e-14 1.30444 0
7.51154e-14 1.30444 0
-2.18371e-13 1.30444 0
6.1881e-14 1.28957 0
-1.94163e-13 1.28957 0
-2.18371e-13 1.30444 0
1.55096e-13 1.30444 0
-1.94163e-13 1.28957 0
-4.15772e-14 1.28957 0
0 1.28957 0
3.60569e-13 1.28957 0
0 1.2755 0
-8.27909e-14 1.2755 0
3.60569e-13 1.28957 0
3.44843e-13 1.28957 0
-8.27909e-14 1.2755 0
-4.97389e-13 1.2755 0
0 1.2755 0
-1.39262e-13 1.2755 0
0 1.26221 0
9.42411e-14 1.26221 0
-1.39262e-13 1.2755 0
-5.76256e-13 1.2755 0
9.42411e-14 1.26221 0
2.29007e-13 1.26221 0
3.44843e-13 1.28957 0
-4.9014e-13 1.28957 0
-4.97389e-13 1.2755 0
4.48365e-13 1.2755 0
-4.9014e-13 1.28957 0
-6.23203e-14 1.28957 0
4.48365e-13 1.2755 0
1.27064e-13 1.2755 0
-5.76256e-13 1.2755 0
5.0497e-13 1.2755 0
2.29007e-13 1.26221 0
-3.34503e-13 1.26221 0
5.0497e-13 1.2755 0
2.2317e-13 1.2755 0
-3.34503e-13 1.26221 0
-2.61809e-13 1.26221 0
1.48792e-13 1.32019 0
4.06045e-13 1.32019 0
-1.75626e-14 1.30444 0
-4.77745e-13 1.30444 0
4.06045e-13 1.32019 0
-3.36548e-13 1.32019 0
-4.77745e-13 1.30444 0
3.92082e-13 1.30444 0
1.55096e-13 1.30444 0
-2.43609e-13 1.30444 0
-4.15772e-14 1.28957 0
-5.09971e-16 1.28957 0
-2.43609e-13 1.30444 0
4.45974e-13 1.30444 0
-5.09971e-16 1.28957 0
-2.11458e-13 1.28957 0
-3.36548e-13 1.32019 0
-3.54288e-13 1.32019 0
3.92082e-13 1.30444 0
2.54651e-13 1.30444 0
-3.54288e-13 1.32019 0
5.94072e-13 1.32019 0
2.54651e-13 1.30444 0
-3.13385e-13 1.30444 0
4.45974e-13 1.30444 0
-1.04409e-13 1.30444 0
-2.11458e-13 1.28957 0
2.01226e-13 1.28957 0
-1.04409e-13 1.30444 0
-4.63045e-13 1.30444 0
2.01226e-13 1.28957 0
2.60405e-13 1.28957 0
-6.23203e-14 1.28957 0
-1.10909e-13 1.28957 0
1.27064e-13 1.2755 0
-1.01202e-13 1.2755 0
-1.10909e-13 1.28957 0
-5.02911e-14 1.28957 0
-1.01202e-13 1.2755 0
7.71069e-14 1.2755 0
2.2317e-13 1.2755 0
-1.18646e-13 1.2755 0
-2.61809e-13 1.26221 0
-7.06178e-15 1.26221 0
-1.18646e-13 1.2755 0
-4.21113e-15 1.2755 0
-7.06178e-15 1.26221 0
4.40478e-14 1.26221 0
-5.02911e-14 1.28957 0
1.68405e-13 1.28957 0
7.71069e-14 1.2755 0
3.0972e-14 1.2755 0
1.68405e-13 1.28957 0
3.76673e-13 1.28957 0
3.0972e-14 1.2755 0
-2.15237e-13 1.2755 0
-4.21113e-15 1.2755 0
1.92875e-13 1.2755 0
4.40478e-14 1.26221 0
-1.68857e-13 1.26221 0
1.92875e-13 1.2755 0
-8.48963e-14 1.2755 0
-1.68857e-13 1.26221 0
1.35542e-13 1.26221 0
6.83802e-14 1.3929 0
7.34999e-14 1.3929 0
-1.5931e-13 1.37315 0
-7.51099e-14 1.37315 0
7.34999e-14 1.3929 0
2.34196e-13 1.3929 0
-7.51099e-14 1.37315 0
-2.08866e-13 1.37315 0
-2.49214e-14 1.37315 0
9.46012e-14 1.37315 0
-1.36596e-13 1.35448 0
1.52859e-13 1.35448 0
9.46012e-14 1.37315 0
-5.22984e-13 1.37315 0
1.52859e-13 1.35448 0
2.77121e-13 1.35448 0
2.34196e-13 1.3929 0
-1.50159e-13 1.3929 0
-2.08866e-13 1.37315 0
1.476e-13 1.37315 0
-1.50159e-13 1.3929 0
-6.8162e-13 1.3929 0
1.476e-13 1.37315 0
5.97527e-13 1.37315 0
-5.22984e-13 1.37315 0
1.64782e-13 1.37315 0
2.77121e-13 1.35448 0
-1.33987e-13 1.35448 0
1.64782e-13 1.37315 0
5.44492e-13 1.37315 0
-1.33987e-13 1.35448 0
-4.80978e-13 1.35448 0
-2.72802e-14 1.35448 0
6.27977e-14 1.35448 0
-3.51953e-13 1.33685 0
-2.6604e-14 1.33685 0
6.27977e-14 1.35448 0
-1.71111e-13 1.35448 0
-2.6604e-14 1.33685 0
6.37346e-14 1.33685 0
-6.13518e-13 1.33685 0
-2.63186e-13 1.33685 0
7.85327e-13 1.32019 0
3.37209e-13 1.32019 0
-2.63186e-13 1.33685 0
4.01698e-13 1.33685 0
3.37209e-13 1.32019 0
-3.19149e-13 1.32019 0
-1.71111e-13 1.35448 0
1.32527e-13 1.35448 0
6.37346e-14 1.33685 0
1.74829e-14 1.33685 0
1.32527e-13 1.35448 0
-5.70974e-14 1.35448 0
1.74829e-14 1.33685 0
7.41525e-14 1.33685 0
4.01698e-13 1.33685 0
-2.66564e-13 1.33685 0
-3.19149e-13 1.32019 0
4.74396e-13 1.32019 0
-2.66564e-13 1.33685 0
8.3639e-14 1.33685 0
4.74396e-13 1.32019 0
-4.7615e-13 1.32019 0
-6.8162e-13 1.3929 0
9.27122e-13 1.3929 0
5.97527e-13 1.37315 0
-7.55128e-13 1.37315 0
9.27122e-13 1.3929 0
-2.50617e-13 1.3929 0
-7.55128e-13 1.37315 0
3.46857e-13 1.37315 0
5.44492e-13 1.37315 0
1.74257e-13 1.37315 0
-4.80978e-13 1.35448 0
3.07002e-14 1.35448 0
1.74257e-13 1.37315 0
-1.93493e-13 1.37315 0
3.07002e-14 1.35448 0
7.79285e-14 1.35448 0
-2.50617e-13 1.3929 0
-2.1547e-13 1.3929 0
3.46857e-13 1.37315 0
6.26262e-14 1.37315 0
-2.1547e-13 1.3929 0
8.53524e-13 1.3929 0
6.26262e-14 1.37315 0
-5.49034e-13 1.37315 0
-1.93493e-13 1.37315 0
-1.86346e-13 1.37315 0
7.79285e-14 1.35448 0
-3.59189e-14 1.35448 0
-1.86346e-13 1.37315 0
-4.2348e-13 1.37315 0
-3.59189e-14 1.35448 0
5.2794e-13 1.35448 0
-5.70974e-14 1.35448 0
-2.56626e-13 1.35448 0
7.41525e-14 1.33685 0
5.61316e-13 1.33685 0
-2.56626e-13 1.35448 0
3.38351e-13 1.35448 0
5.61316e-13 1.33685 0
-5.46474e-13 1.33685 0
8.3639e-14 1.33685 0
4.9407e-14 1.33685 0
-4.7615e-13 1.32019 0
-1.31804e-13 1.32019 0
4.9407e-14 1.33685 0
-7.30409e-14 1.33685 0
-1.31804e-13 1.32019 0
5.04053e-13 1.32019 0
3.38351e-13 1.35448 0
2.02439e-13 1.35448 0
-5.46474e-13 1.33685 0
3.84689e-14 1.33685 0
2.02439e-13 1.35448 0
1.33994e-13 1.35448 0
3.84689e-14 1.33685 0
-6.91383e-15 1.33685 0
-7.30409e-14 1.33685 0
1.18589e-14 1.33685 0
5.04053e-13 1.32019 0
-4.90409e-13 1.32019 0
1.18589e-14 1.33685 0
2.27737e-13 1.33685 0
-4.90409e-13 1.32019 0
3.41781e-14 1.32019 0
5.94072e-13 1.32019 0
-2.33545e-14 1.32019 0
-3.13385e-13 1.30444 0
-1.52426e-14 1.30444 0
-2.33545e-14 1.32019 0
-1.83628e-13 1.32019 0
-1.52426e-14 1.30444 0
-5.32213e-15 1.30444 0
-4.63045e-13 1.30444 0
8.05035e-14 1.30444 0
2.60405e-13 1.28957 0
-1.68107e-13 1.28957 0
8.05035e-14 1.30444 0
3.49958e-13 1.30444 0
-1.68107e-13 1.28957 0
-2.00959e-13 1.28957 0
-1.83628e-13 1.32019 0
4.88557e-13 1.32019 0
-5.32213e-15 1.30444 0
-4.2551e-13 1.30444 0
4.88557e-13 1.32019 0
-4.97e-13 1.32019 0
-4.2551e-13 1.30444 0
6.13216e-13 1.30444 0
3.49958e-13 1.30444 0
-4.72e-14 1.30444 0