# vtk DataFile Version 3.0
#This file was generated by the deal.II library on 2018/10/15 at 2:18:32
ASCII
DATASET UNSTRUCTURED_GRID

POINTS 20480 double
0 0 0
0.19635 0 0
0 0.310738 0
0.19635 0.310738 0
0.19635 0 0
0.392699 0 0
0.19635 0.310738 0
0.392699 0.310738 0
0 0.310738 0
0.19635 0.310738 0
0 0.623161 0
0.19635 0.623161 0
0.19635 0.310738 0
0.392699 0.310738 0
0.19635 0.623161 0
0.392699 0.623161 0
0.392699 0 0
0.589049 0 0
0.392699 0.310738 0
0.589049 0.310738 0
0.589049 0 0
0.785398 0 0
0.589049 0.310738 0
0.785398 0.310738 0
0.392699 0.310738 0
0.589049 0.310738 0
0.392699 0.623161 0
0.589049 0.623161 0
0.589049 0.310738 0
0.785398 0.310738 0
0.589049 0.623161 0
0.785398 0.623161 0
0 0.623161 0
0.19635 0.623161 0
0 0.935719 0
0.19635 0.935719 0
0.19635 0.623161 0
0.392699 0.623161 0
0.19635 0.935719 0
0.392699 0.935719 0
0 0.935719 0
0.19635 0.935719 0
0 1.2483 0
0.19635 1.2483 0
0.19635 0.935719 0
0.392699 0.935719 0
0.19635 1.2483 0
0.392699 1.2483 0
0.392699 0.623161 0
0.589049 0.623161 0
0.392699 0.935719 0
0.589049 0.935719 0
0.589049 0.623161 0
0.785398 0.623161 0
0.589049 0.935719 0
0.785398 0.935719 0
0.392699 0.935719 0
0.589049 0.935719 0
0.392699 1.2483 0
0.589049 1.2483 0
0.589049 0.935719 0
0.785398 0.935719 0
0.589049 1.2483 0
0.785398 1.2483 0
0.785398 0 0
0.981748 0 0
0.785398 0.310738 0
0.981748 0.310738 0
0.981748 0 0
1.1781 0 0
0.981748 0.310738 0
1.1781 0.310738 0
0.785398 0.310738 0
0.981748 0.310738 0
0.785398 0.623161 0
0.981748 0.623161 0
0.981748 0.310738 0
1.1781 0.310738 0
0.981748 0.623161 0
1.1781 0.623161 0
1.1781 0 0
1.37445 0 0
1.1781 0.310738 0
1.37445 0.310738 0
1.37445 0 0
1.5708 0 0
1.37445 0.310738 0
1.5708 0.310738 0
1.1781 0.310738 0
1.37445 0.310738 0
1.1781 0.623161 0
1.37445 0.623161 0
1.37445 0.310738 0
1.5708 0.310738 0
1.37445 0.623161 0
1.5708 0.623161 0
0.785398 0.623161 0
0.981748 0.623161 0
0.785398 0.935719 0
0.981748 0.935719 0
0.981748 0.623161 0
1.1781 0.623161 0
0.981748 0.935719 0
1.1781 0.935719 0
0.785398 0.935719 0
0.981748 0.935719 0
0.785398 1.2483 0
0.981748 1.2483 0
0.981748 0.935719 0
1.1781 0.935719 0
0.981748 1.2483 0
1.1781 1.2483 0
1.1781 0.623161 0
1.37445 0.623161 0
1.1781 0.935719 0
1.37445 0.935719 0
1.37445 0.623161 0
1.5708 0.623161 0
1.37445 0.935719 0
1.5708 0.935719 0
1.1781 0.935719 0
1.37445 0.935719 0
1.1781 1.2483 0
1.37445 1.2483 0
1.37445 0.935719 0
1.5708 0.935719 0
1.37445 1.2483 0
1.5708 1.2483 0
0 1.2483 0
0.19635 1.2483 0
0 1.56087 0
0.19635 1.56087 0
0.19635 1.2483 0
0.392699 1.2483 0
0.19635 1.56087 0
0.392699 1.56087 0
0 1.56087 0
0.19635 1.56087 0
0 1.87344 0
0.19635 1.87344 0
0.19635 1.56087 0
0.392699 1.56087 0
0.19635 1.87344 0
0.392699 1.87344 0
0.392699 1.2483 0
0.589049 1.2483 0
0.392699 1.56087 0
0.589049 1.56087 0
0.589049 1.2483 0
0.785398 1.2483 0
0.589049 1.56087 0
0.785398 1.56087 0
0.392699 1.56087 0
0.589049 1.56087 0
0.392699 1.87344 0
0.589049 1.87344 0
0.589049 1.56087 0
0.785398 1.56087 0
0.589049 1.87344 0
0.785398 1.87344 0
0 1.87344 0
0.19635 1.87344 0
0 2.18602 0
0.19635 2.18602 0
0.19635 1.87344 0
0.392699 1.87344 0
0.19635 2.18602 0
0.392699 2.18602 0
0 2.18602 0
0.19635 2.18602 0
0 2.49859 0
0.19635 2.49859 0
0.19635 2.18602 0
0.392699 2.18602 0
0.19635 2.49859 0
0.392699 2.49859 0
0.392699 1.87344 0
0.589049 1.87344 0
0.392699 2.18602 0
0.589049 2.18602 0
0.589049 1.87344 0
0.785398 1.87344 0
0.589049 2.18602 0
0.785398 2.18602 0
0.392699 2.18602 0
0.589049 2.18602 0
0.392699 2.49859 0
0.589049 2.49859 0
0.589049 2.18602 0
0.785398 2.18602 0
0.589049 2.49859 0
0.785398 2.49859 0
0.785398 1.2483 0
0.981748 1.2483 0
0.785398 1.56087 0
0.981748 1.56087 0
0.981748 1.2483 0
1.1781 1.2483 0
0.981748 1.56087 0
1.1781 1.56087 0
0.785398 1.56087 0
0.981748 1.56087 0
0.785398 1.87344 0
0.981748 1.87344 0
0.981748 1.56087 0
1.1781 1.56087 0
0.981748 1.87344 0
1.1781 1.87344 0
1.1781 1.2483 0
1.37445 1.2483 0
1.1781 1.56087 0
1.37445 1.56087 0
1.37445 1.2483 0
1.5708 1.2483 0
1.37445 1.56087 0
1.5708 1.56087 0
1.1781 1.56087 0
1.37445 1.56087 0
1.1781 1.87344 0
1.37445 1.87344 0
1.37445 1.56087 0
1.5708 1.56087 0
1.37445 1.87344 0
1.5708 1.87344 0
0.785398 1.87344 0
0.981748 1.87344 0
0.785398 2.18602 0
0.981748 2.18602 0
0.981748 1.87344 0
1.1781 1.87344 0
0.981748 2.18602 0
1.1781 2.18602 0
0.785398 2.18602 0
0.981748 2.18602 0
0.785398 2.49859 0
0.981748 2.49859 0
0.981748 2.18602 0
1.1781 2.18602 0
0.981748 2.49859 0
1.1781 2.49859 0
1.1781 1.87344 0
1.37445 1.87344 0
1.1781 2.18602 0
1.37445 2.18602 0
1.37445 1.87344 0
1.5708 1.87344 0
1.37445 2.18602 0
1.5708 2.18602 0
1.1781 2.18602 0
1.37445 2.18602 0
1.1781 2.49859 0
1.37445 2.49859 0
1.37445 2.18602 0
1.5708 2.18602 0
1.37445 2.49859 0
1.5708 2.49859 0
1.5708 0 0
1.76715 0 0
1.5708 0.310738 0
1.76715 0.310738 0
1.76715 0 0
1.9635 0 0
1.76715 0.310738 0
1.9635 0.310738 0
1.5708 0.310738 0
1.76715 0.310738 0
1.5708 0.623161 0
1.76715 0.623161 0
1.76715 0.310738 0
1.9635 0.310738 0
1.76715 0.623161 0
1.9635 0.623161 0
1.9635 0 0
2.15984 0 0
1.9635 0.310738 0
2.15984 0.310738 0
2.15984 0 0
2.35619 0 0
2.15984 0.310738 0
2.35619 0.310738 0
1.9635 0.310738 0
2.15984 0.310738 0
1.9635 0.623161 0
2.15984 0.623161 0
2.15984 0.310738 0
2.35619 0.310738 0
2.15984 0.623161 0
2.35619 0.623161 0
1.5708 0.623161 0
1.76715 0.623161 0
1.5708 0.935719 0
1.76715 0.935719 0
1.76715 0.623161 0
1.9635 0.623161 0
1.76715 0.935719 0
1.9635 0.935719 0
1.5708 0.935719 0
1.76715 0.935719 0
1.5708 1.2483 0
1.76715 1.2483 0
1.76715 0.935719 0
1.9635 0.935719 0
1.76715 1.2483 0
1.9635 1.2483 0
1.9635 0.623161 0
2.15984 0.623161 0
1.9635 0.935719 0
2.15984 0.935719 0
2.15984 0.623161 0
2.35619 0.623161 0
2.15984 0.935719 0
2.35619 0.935719 0
1.9635 0.935719 0
2.15984 0.935719 0
1.9635 1.2483 0
2.15984 1.2483 0
2.15984 0.935719 0
2.35619 0.935719 0
2.15984 1.2483 0
2.35619 1.2483 0
2.35619 0 0
2.55254 0 0
2.35619 0.310738 0
2.55254 0.310738 0
2.55254 0 0
2.74889 0 0
2.55254 0.310738 0
2.74889 0.310738 0
2.35619 0.310738 0
2.55254 0.310738 0
2.35619 0.623161 0
2.55254 0.623161 0
2.55254 0.310738 0
2.74889 0.310738 0
2.55254 0.623161 0
2.74889 0.623161 0
2.74889 0 0
2.94524 0 0
2.74889 0.310738 0
2.94524 0.310738 0
2.94524 0 0
3.14159 0 0
2.94524 0.310738 0
3.14159 0.310738 0
2.74889 0.310738 0
2.94524 0.310738 0
2.74889 0.623161 0
2.94524 0.623161 0
2.94524 0.310738 0
3.14159 0.310738 0
2.94524 0.623161 0
3.14159 0.623161 0
2.35619 0.623161 0
2.55254 0.623161 0
2.35619 0.935719 0
2.55254 0.935719 0
2.55254 0.623161 0
2.74889 0.623161 0
2.55254 0.935719 0
2.74889 0.935719 0
2.35619 0.935719 0
2.55254 0.935719 0
2.35619 1.2483 0
2.55254 1.2483 0
2.55254 0.935719 0
2.74889 0.935719 0
2.55254 1.2483 0
2.74889 1.2483 0
2.74889 0.623161 0
2.94524 0.623161 0
2.74889 0.935719 0
2.94524 0.935719 0
2.94524 0.623161 0
3.14159 0.623161 0
2.94524 0.935719 0
3.14159 0.935719 0
2.74889 0.935719 0
2.94524 0.935719 0
2.74889 1.2483 0
2.94524 1.2483 0
2.94524 0.935719 0
3.14159 0.935719 0
2.94524 1.2483 0
3.14159 1.2483 0
1.5708 1.2483 0
1.76715 1.2483 0
1.5708 1.56087 0
1.76715 1.56087 0
1.76715 1.2483 0
1.9635 1.2483 0
1.76715 1.56087 0
1.9635 1.56087 0
1.5708 1.56087 0
1.76715 1.56087 0
1.5708 1.87344 0
1.76715 1.87344 0
1.76715 1.56087 0
1.9635 1.56087 0
1.76715 1.87344 0
1.9635 1.87344 0
1.9635 1.2483 0
2.15984 1.2483 0
1.9635 1.56087 0
2.15984 1.56087 0
2.15984 1.2483 0
2.35619 1.2483 0
2.15984 1.56087 0
2.35619 1.56087 0
1.9635 1.56087 0
2.15984 1.56087 0
1.9635 1.87344 0
2.15984 1.87344 0
2.15984 1.56087 0
2.35619 1.56087 0
2.15984 1.87344 0
2.35619 1.87344 0
1.5708 1.87344 0
1.76715 1.87344 0
1.5708 2.18602 0
1.76715 2.18602 0
1.76715 1.87344 0
1.9635 1.87344 0
1.76715 2.18602 0
1.9635 2.18602 0
1.5708 2.18602 0
1.76715 2.18602 0
1.5708 2.49859 0
1.76715 2.49859 0
1.76715 2.18602 0
1.9635 2.18602 0
1.76715 2.49859 0
1.9635 2.49859 0
1.9635 1.87344 0
2.15984 1.87344 0
1.9635 2.18602 0
2.15984 2.18602 0
2.15984 1.87344 0
2.35619 1.87344 0
2.15984 2.18602 0
2.35619 2.18602 0
1.9635 2.18602 0
2.15984 2.18602 0
1.9635 2.49859 0
2.15984 2.49859 0
2.15984 2.18602 0
2.35619 2.18602 0
2.15984 2.49859 0
2.35619 2.49859 0
2.35619 1.2483 0
2.55254 1.2483 0
2.35619 1.56087 0
2.55254 1.56087 0
2.55254 1.2483 0
2.74889 1.2483 0
2.55254 1.56087 0
2.74889 1.56087 0
2.35619 1.56087 0
2.55254 1.56087 0
2.35619 1.87344 0
2.55254 1.87344 0
2.55254 1.56087 0
2.74889 1.56087 0
2.55254 1.87344 0
2.74889 1.87344 0
2.74889 1.2483 0
2.94524 1.2483 0
2.74889 1.56087 0
2.94524 1.56087 0
2.94524 1.2483 0
3.14159 1.2483 0
2.94524 1.56087 0
3.14159 1.56087 0
2.74889 1.56087 0
2.94524 1.56087 0
2.74889 1.87344 0
2.94524 1.87344 0
2.94524 1.56087 0
3.14159 1.56087 0
2.94524 1.87344 0
3.14159 1.87344 0
2.35619 1.87344 0
2.55254 1.87344 0
2.35619 2.18602 0
2.55254 2.18602 0
2.55254 1.87344 0
2.74889 1.87344 0
2.55254 2.18602 0
2.74889 2.18602 0
2.35619 2.18602 0
2.55254 2.18602 0
2.35619 2.49859 0
2.55254 2.49859 0
2.55254 2.18602 0
2.74889 2.18602 0
2.55254 2.49859 0
2.74889 2.49859 0
2.74889 1.87344 0
2.94524 1.87344 0
2.74889 2.18602 0
2.94524 2.18602 0
2.94524 1.87344 0
3.14159 1.87344 0
2.94524 2.18602 0
3.14159 2.18602 0
2.74889 2.18602 0
2.94524 2.18602 0
2.74889 2.49859 0
2.94524 2.49859 0
2.94524 2.18602 0
3.14159 2.18602 0
2.94524 2.49859 0
3.14159 2.49859 0
0 2.49859 0
0.19635 2.49859 0
0 2.81115 0
0.19635 2.81115 0
0.19635 2.49859 0
0.392699 2.49859 0
0.19635 2.81115 0
0.392699 2.81115 0
0 2.81115 0
0.19635 2.81115 0
0 3.12372 0
0.19635 3.12372 0
0.19635 2.81115 0
0.392699 2.81115 0
0.19635 3.12372 0
0.392699 3.12372 0
0.392699 2.49859 0
0.589049 2.49859 0
0.392699 2.81115 0
0.589049 2.81115 0
0.589049 2.49859 0
0.785398 2.49859 0
0.589049 2.81115 0
0.785398 2.81115 0
0.392699 2.81115 0
0.589049 2.81115 0
0.392699 3.12372 0
0.589049 3.12372 0
0.589049 2.81115 0
0.785398 2.81115 0
0.589049 3.12372 0
0.785398 3.12372 0
0 3.12372 0
0.19635 3.12372 0
0 3.43629 0
0.19635 3.43629 0
0.19635 3.12372 0
0.392699 3.12372 0
0.19635 3.43629 0
0.392699 3.43629 0
0 3.43629 0
0.19635 3.43629 0
0 3.74885 0
[...]
POINT_DATA 20480
VECTORS uf double
0 1 0
-1.56518e-13 1 0
0 1.32138 0
2.5234e-13 1.32138 0
-1.56518e-13 1 0
-7.70518e-14 1 0
2.5234e-13 1.32138 0
1.75246e-14 1.32138 0
0 1.32138 0
1.95419e-13 1.32138 0
0 1.30131 0
-1.68473e-13 1.30131 0
1.95419e-13 1.32138 0
-2.36961e-13 1.32138 0
-1.68473e-13 1.30131 0
3.49955e-13 1.30131 0
-7.70518e-14 1 0
-6.49318e-14 1 0
1.75246e-14 1.32138 0
6.89272e-14 1.32138 0
-6.49318e-14 1 0
-1.68283e-13 1 0
6.89272e-14 1.32138 0
2.23409e-13 1.32138 0
-2.36961e-13 1.32138 0
-1.76336e-13 1.32138 0
3.49955e-13 1.30131 0
1.19986e-13 1.30131 0
-1.76336e-13 1.32138 0
3.45153e-13 1.32138 0
1.19986e-13 1.30131 0
8.81447e-14 1.30131 0
0 1.30131 0
-1.94627e-13 1.30131 0
0 1.28949 0
8.36031e-14 1.28949 0
-1.94627e-13 1.30131 0
2.74317e-13 1.30131 0
8.36031e-14 1.28949 0
-2.48783e-13 1.28949 0
0 1.28949 0
8.08427e-15 1.28949 0
0 1.27629 0
2.95654e-15 1.27629 0
8.08427e-15 1.28949 0
-1.0176e-13 1.28949 0
2.95654e-15 1.27629 0
2.0256e-13 1.27629 0
2.74317e-13 1.30131 0
9.57175e-14 1.30131 0
-2.48783e-13 1.28949 0
-1.50861e-13 1.28949 0
9.57175e-14 1.30131 0
1.71222e-13 1.30131 0
-1.50861e-13 1.28949 0
6.38736e-14 1.28949 0
-1.0176e-13 1.28949 0
1.35625e-13 1.28949 0
2.0256e-13 1.27629 0
-1.82342e-13 1.27629 0
1.35625e-13 1.28949 0
1.80085e-13 1.28949 0
-1.82342e-13 1.27629 0
-5.9484e-14 1.27629 0
-1.68283e-13 1 0
-2.28704e-13 1 0
2.23409e-13 1.32138 0
5.36457e-13 1.32138 0
-2.28704e-13 1 0
2.04516e-13 1 0
5.36457e-13 1.32138 0
-2.69449e-13 1.32138 0
3.45153e-13 1.32138 0
8.37233e-14 1.32138 0
8.81447e-14 1.30131 0
-8.68948e-14 1.30131 0
8.37233e-14 1.32138 0
8.414e-13 1.32138 0
-8.68948e-14 1.30131 0
-2.11972e-13 1.30131 0
2.04516e-13 1 0
8.77806e-13 1 0
-2.69449e-13 1.32138 0
-8.82043e-13 1.32138 0
8.77806e-13 1 0
3.2509e-13 1 0
-8.82043e-13 1.32138 0
-4.96594e-13 1.32138 0
8.414e-13 1.32138 0
-8.56402e-13 1.32138 0
-2.11972e-13 1.30131 0
3.66576e-13 1.30131 0
-8.56402e-13 1.32138 0
-4.83117e-13 1.32138 0
3.66576e-13 1.30131 0
1.88415e-13 1.30131 0
1.71222e-13 1.30131 0
-1.08967e-13 1.30131 0
6.38736e-14 1.28949 0
2.50446e-14 1.28949 0
-1.08967e-13 1.30131 0
-4.10911e-13 1.30131 0
2.50446e-14 1.28949 0
2.00237e-13 1.28949 0
1.80085e-13 1.28949 0
-1.13129e-13 1.28949 0
-5.9484e-14 1.27629 0
5.6547e-14 1.27629 0
-1.13129e-13 1.28949 0
-1.92095e-13 1.28949 0
5.6547e-14 1.27629 0
8.79192e-14 1.27629 0
-4.10911e-13 1.30131 0
1.00341e-14 1.30131 0
2.00237e-13 1.28949 0
1.00404e-13 1.28949 0
1.00341e-14 1.30131 0
-1.01241e-13 1.30131 0
1.00404e-13 1.28949 0
-2.35935e-13 1.28949 0
-1.92095e-13 1.28949 0
-2.39316e-14 1.28949 0
8.79192e-14 1.27629 0
1.49844e-15 1.27629 0
-2.39316e-14 1.28949 0
-2.33619e-14 1.28949 0
1.49844e-15 1.27629 0
-2.41295e-13 1.27629 0
0 1.27629 0
-3.07319e-14 1.27629 0
0 1.26401 0
4.46192e-14 1.26401 0
-3.07319e-14 1.27629 0
3.10964e-13 1.27629 0
4.46192e-14 1.26401 0
-2.74402e-13 1.26401 0
0 1.26401 0
8.63071e-14 1.26401 0
0 1.25208 0
-6.07705e-14 1.25208 0
8.63071e-14 1.26401 0
-2.25856e-13 1.26401 0
-6.07705e-14 1.25208 0
7.10537e-14 1.25208 0
3.10964e-13 1.27629 0
-1.89809e-13 1.27629 0
-2.74402e-13 1.26401 0
1.10686e-13 1.26401 0
-1.89809e-13 1.27629 0
-7.8323e-14 1.27629 0
1.10686e-13 1.26401 0
1.6322e-13 1.26401 0
-2.25856e-13 1.26401 0
9.07078e-14 1.26401 0
7.10537e-14 1.25208 0
-2.02794e-13 1.25208 0
9.07078e-14 1.26401 0
6.02408e-14 1.26401 0
-2.02794e-13 1.25208 0
8.75205e-15 1.25208 0
0 1.25208 0
-8.14896e-14 1.25208 0
0 1.24063 0
-7.93297e-14 1.24063 0
-8.14896e-14 1.25208 0
3.55862e-15 1.25208 0
-7.93297e-14 1.24063 0
1.14142e-13 1.24063 0
0 1.24063 0
-2.19362e-13 1.24063 0
0 1.22959 0
1.96274e-13 1.22959 0
-2.19362e-13 1.24063 0
1.20015e-13 1.24063 0
1.96274e-13 1.22959 0
-1.44601e-13 1.22959 0
3.55862e-15 1.25208 0
-1.17942e-13 1.25208 0
1.14142e-13 1.24063 0
-5.40964e-14 1.24063 0
-1.17942e-13 1.25208 0
3.89918e-14 1.25208 0
-5.40964e-14 1.24063 0
-9.25534e-14 1.24063 0
1.20015e-13 1.24063 0
-5.89766e-14 1.24063 0
-1.44601e-13 1.22959 0
-1.13995e-13 1.22959 0
-5.89766e-14 1.24063 0
-2.90884e-14 1.24063 0
-1.13995e-13 1.22959 0
3.26494e-13 1.22959 0
-7.8323e-14 1.27629 0
5.7304e-14 1.27629 0
1.6322e-13 1.26401 0
-2.0809e-13 1.26401 0
5.7304e-14 1.27629 0
-3.06733e-14 1.27629 0
-2.0809e-13 1.26401 0
-9.93885e-14 1.26401 0
6.02408e-14 1.26401 0
-3.40747e-13 1.26401 0
8.75205e-15 1.25208 0
1.75667e-13 1.25208 0
-3.40747e-13 1.26401 0
-2.09216e-14 1.26401 0
1.75667e-13 1.25208 0
-7.432e-14 1.25208 0
-3.06733e-14 1.27629 0
-2.55151e-13 1.27629 0
-9.93885e-14 1.26401 0
5.38508e-14 1.26401 0
-2.55151e-13 1.27629 0
-3.31662e-13 1.27629 0
5.38508e-14 1.26401 0
6.89548e-14 1.26401 0
-2.09216e-14 1.26401 0
-1.23019e-14 1.26401 0
-7.432e-14 1.25208 0
9.48931e-14 1.25208 0
-1.23019e-14 1.26401 0
5.55144e-14 1.26401 0
9.48931e-14 1.25208 0
-2.92077e-13 1.25208 0
3.89918e-14 1.25208 0
1.93168e-13 1.25208 0
-9.25534e-14 1.24063 0
-6.59021e-14 1.24063 0
1.93168e-13 1.25208 0
-1.17428e-13 1.25208 0
-6.59021e-14 1.24063 0
-2.9545e-14 1.24063 0
-2.90884e-14 1.24063 0
-1.78761e-13 1.24063 0
3.26494e-13 1.22959 0
1.71465e-14 1.22959 0
-1.78761e-13 1.24063 0
-3.08228e-14 1.24063 0
1.71465e-14 1.22959 0
-3.80166e-13 1.22959 0
-1.17428e-13 1.25208 0
-3.78755e-13 1.25208 0
-2.9545e-14 1.24063 0
2.75857e-13 1.24063 0
-3.78755e-13 1.25208 0
3.8628e-14 1.25208 0
2.75857e-13 1.24063 0
-4.1401e-14 1.24063 0
-3.08228e-14 1.24063 0
-5.24174e-14 1.24063 0
-3.80166e-13 1.22959 0
-5.87941e-14 1.22959 0
-5.24174e-14 1.24063 0
1.79515e-13 1.24063 0
-5.87941e-14 1.22959 0
-1.51476e-13 1.22959 0
3.2509e-13 1 0
-4.1185e-13 1 0
-4.96594e-13 1.32138 0
2.76987e-13 1.32138 0
-4.1185e-13 1 0
-4.81102e-13 1 0
2.76987e-13 1.32138 0
5.19365e-14 1.32138 0
-4.83117e-13 1.32138 0
3.0517e-13 1.32138 0
1.88415e-13 1.30131 0
-4.79933e-13 1.30131 0
3.0517e-13 1.32138 0
2.1213e-13 1.32138 0
-4.79933e-13 1.30131 0
-2.65015e-13 1.30131 0
-4.81102e-13 1 0
-4.49865e-13 1 0
5.19365e-14 1.32138 0
1.11631e-13 1.32138 0
-4.49865e-13 1 0
1.92624e-13 1 0
1.11631e-13 1.32138 0
-2.28936e-13 1.32138 0
2.1213e-13 1.32138 0
-5.19312e-13 1.32138 0
-2.65015e-13 1.30131 0
5.32243e-14 1.30131 0
-5.19312e-13 1.32138 0
4.79936e-14 1.32138 0
5.32243e-14 1.30131 0
-2.6332e-13 1.30131 0
-1.01241e-13 1.30131 0
-1.4326e-13 1.30131 0
-2.35935e-13 1.28949 0
-3.64155e-14 1.28949 0
-1.4326e-13 1.30131 0
-3.62951e-13 1.30131 0
-3.64155e-14 1.28949 0
2.0262e-13 1.28949 0
-2.33619e-14 1.28949 0
-2.30759e-13 1.28949 0
-2.41295e-13 1.27629 0
7.37041e-14 1.27629 0
-2.30759e-13 1.28949 0
2.09158e-13 1.28949 0
7.37041e-14 1.27629 0
-4.74226e-13 1.27629 0
-3.62951e-13 1.30131 0
1.74358e-13 1.30131 0
2.0262e-13 1.28949 0
-1.86347e-13 1.28949 0
1.74358e-13 1.30131 0
-2.87017e-13 1.30131 0
-1.86347e-13 1.28949 0
-1.02844e-13 1.28949 0
2.09158e-13 1.28949 0
-5.02553e-13 1.28949 0
-4.74226e-13 1.27629 0
4.8589e-13 1.27629 0
-5.02553e-13 1.28949 0
-5.66797e-13 1.28949 0
4.8589e-13 1.27629 0
3.15699e-13 1.27629 0
1.92624e-13 1 0
-4.12716e-14 1 0
-2.28936e-13 1.32138 0
-2.36359e-13 1.32138 0
-4.12716e-14 1 0
-2.57872e-13 1 0
-2.36359e-13 1.32138 0
-9.36367e-14 1.32138 0
4.79936e-14 1.32138 0
-2.64127e-13 1.32138 0
-2.6332e-13 1.30131 0
3.15356e-15 1.30131 0
-2.64127e-13 1.32138 0
-4.01289e-13 1.32138 0
3.15356e-15 1.30131 0
9.46414e-14 1.30131 0
-2.57872e-13 1 0
-3.46228e-13 1 0
-9.36367e-14 1.32138 0
1.65262e-13 1.32138 0
-3.46228e-13 1 0
8.52071e-14 1 0
1.65262e-13 1.32138 0
-3.84658e-13 1.32138 0
-4.01289e-13 1.32138 0
1.05443e-13 1.32138 0
9.46414e-14 1.30131 0
-2.33411e-13 1.30131 0
1.05443e-13 1.32138 0
4.73908e-14 1.32138 0
-2.33411e-13 1.30131 0
-1.52429e-13 1.30131 0
-2.87017e-13 1.30131 0
-1.85303e-13 1.30131 0
-1.02844e-13 1.28949 0
1.65632e-15 1.28949 0
-1.85303e-13 1.30131 0
-3.84755e-13 1.30131 0
1.65632e-15 1.28949 0
2.43675e-13 1.28949 0
-5.66797e-13 1.28949 0
6.54604e-13 1.28949 0
3.15699e-13 1.27629 0
-8.51773e-13 1.27629 0
6.54604e-13 1.28949 0
-1.03371e-13 1.28949 0
-8.51773e-13 1.27629 0
1.2641e-13 1.27629 0
-3.84755e-13 1.30131 0
-6.3903e-14 1.30131 0
2.43675e-13 1.28949 0
-2.24138e-13 1.28949 0
-6.3903e-14 1.30131 0
2.81416e-14 1.30131 0
-2.24138e-13 1.28949 0
-3.54803e-13 1.28949 0
-1.03371e-13 1.28949 0
-4.61237e-13 1.28949 0
1.2641e-13 1.27629 0
-3.32088e-13 1.27629 0
-4.61237e-13 1.28949 0
-1.64072e-13 1.28949 0
-3.32088e-13 1.27629 0
2.16145e-13 1.27629 0
-3.31662e-13 1.27629 0
2.72887e-13 1.27629 0
6.89548e-14 1.26401 0
-5.19426e-13 1.26401 0
2.72887e-13 1.27629 0
-3.70178e-13 1.27629 0
-5.19426e-13 1.26401 0
3.58299e-13 1.26401 0
5.55144e-14 1.26401 0
-1.06108e-13 1.26401 0
-2.92077e-13 1.25208 0
2.2677e-13 1.25208 0
-1.06108e-13 1.26401 0
1.0908e-14 1.26401 0
2.2677e-13 1.25208 0
-2.19941e-13 1.25208 0
-3.70178e-13 1.27629 0
-1.32889e-13 1.27629 0
3.58299e-13 1.26401 0
-3.14484e-13 1.26401 0
-1.32889e-13 1.27629 0
5.34183e-15 1.27629 0
-3.14484e-13 1.26401 0
-2.02746e-13 1.26401 0
1.0908e-14 1.26401 0
-1.40201e-13 1.26401 0
-2.19941e-13 1.25208 0
-6.3116e-14 1.25208 0
-1.40201e-13 1.26401 0
-3.00142e-13 1.26401 0
-6.3116e-14 1.25208 0
-5.28443e-14 1.25208 0
3.8628e-14 1.25208 0
-2.28748e-14 1.25208 0
-4.1401e-14 1.24063 0
-1.37393e-13 1.24063 0
-2.28748e-14 1.25208 0
-1.30583e-13 1.25208 0
-1.37393e-13 1.24063 0
-7.37132e-14 1.24063 0
1.79515e-13 1.24063 0
-6.50522e-14 1.24063 0
-1.51476e-13 1.22959 0
1.05572e-13 1.22959 0
-6.50522e-14 1.24063 0
5.46846e-14 1.24063 0
1.05572e-13 1.22959 0
-6.37833e-14 1.22959 0
-1.30583e-13 1.25208 0
1.21707e-13 1.25208 0
-7.37132e-14 1.24063 0
-8.17083e-14 1.24063 0
1.21707e-13 1.25208 0
5.43861e-14 1.25208 0
-8.17083e-14 1.24063 0
-2.0743e-13 1.24063 0
5.46846e-14 1.24063 0
-3.23244e-13 1.24063 0
-6.37833e-14 1.22959 0
-1.77649e-14 1.22959 0
-3.23244e-13 1.24063 0
1.78561e-13 1.24063 0
-1.77649e-14 1.22959 0
-8.31092e-14 1.22959 0
5.34183e-15 1.27629 0
7.77978e-15 1.27629 0
-2.02746e-13 1.26401 0
1.15031e-13 1.26401 0
7.77978e-15 1.27629 0
-4.0517e-13 1.27629 0
1.15031e-13 1.26401 0
-1.1797e-13 1.26401 0
-3.00142e-13 1.26401 0
-9.38491e-14 1.26401 0
-5.28443e-14 1.25208 0
-7.55193e-14 1.25208 0
-9.38491e-14 1.26401 0
-3.79013e-13 1.26401 0
-7.55193e-14 1.25208 0
9.40757e-14 1.25208 0
-4.0517e-13 1.27629 0
1.61485e-13 1.27629 0
-1.1797e-13 1.26401 0
-1.8209e-13 1.26401 0
1.61485e-13 1.27629 0
-5.15397e-13 1.27629 0
-1.8209e-13 1.26401 0
1.39647e-13 1.26401 0
-3.79013e-13 1.26401 0
7.50887e-14 1.26401 0
9.40757e-14 1.25208 0
-1.44002e-13 1.25208 0
7.50887e-14 1.26401 0
-1.97879e-13 1.26401 0
-1.44002e-13 1.25208 0
-3.38752e-14 1.25208 0
5.43861e-14 1.25208 0
-6.98131e-13 1.25208 0
-2.0743e-13 1.24063 0
7.6372e-13 1.24063 0
-6.98131e-13 1.25208 0
1.77157e-13 1.25208 0
7.6372e-13 1.24063 0
-4.25673e-13 1.24063 0
1.78561e-13 1.24063 0
-3.78584e-13 1.24063 0
-8.31092e-14 1.22959 0
-2.62646e-13 1.22959 0
-3.78584e-13 1.24063 0
-3.20183e-13 1.24063 0
-2.62646e-13 1.22959 0
1.40847e-13 1.22959 0
1.77157e-13 1.25208 0
5.91886e-14 1.25208 0
-4.25673e-13 1.24063 0
-3.1172e-13 1.24063 0
5.91886e-14 1.25208 0
-6.85782e-14 1.25208 0
-3.1172e-13 1.24063 0
-4.37301e-14 1.24063 0
-3.20183e-13 1.24063 0
-7.02358e-14 1.24063 0
1.40847e-13 1.22959 0
-4.48346e-14 1.22959 0
-7.02358e-14 1.24063 0
3.85428e-13 1.24063 0
-4.48346e-14 1.22959 0
-4.02158e-13 1.22959 0
0 1.22959 0
8.28397e-14 1.22959 0
0 1.21897 0
8.41396e-14 1.21897 0
8.28397e-14 1.22959 0
-2.01054e-14 1.22959 0
8.41396e-14 1.21897 0
-1.59979e-13 1.21897 0
0 1.21897 0
1.13115e-13 1.21897 0
0 1.20875 0
-1.73198e-13 1.20875 0
1.13115e-13 1.21897 0
-2.2103e-13 1.21897 0
-1.73198e-13 1.20875 0
1.54599e-13 1.20875 0
-2.01054e-14 1.22959 0
-2.6726e-13 1.22959 0
-1.59979e-13 1.21897 0
3.89183e-13 1.21897 0
-2.6726e-13 1.22959 0
2.60579e-13 1.22959 0
3.89183e-13 1.21897 0
-2.89414e-13 1.21897 0
-2.2103e-13 1.21897 0
3.44193e-13 1.21897 0
1.54599e-13 1.20875 0
-3.5629e-13 1.20875 0
3.44193e-13 1.21897 0
-1.80428e-13 1.21897 0
-3.5629e-13 1.20875 0
8.70731e-14 1.20875 0
0 1.20875 0
-1.44759e-13 1.20875 0
0 1.19891 0
-3.507e-14 1.19891 0
-1.44759e-13 1.20875 0
2.08352e-13 1.20875 0
-3.507e-14 1.19891 0
-1.86345e-13 1.19891 0
0 1.19891 0
1.04908e-14 1.19891 0
0 1.18944 0
8.15109e-15 1.18944 0
1.04908e-14 1.19891 0
-1.79591e-13 1.19891 0
8.15109e-15 1.18944 0
4.50493e-14 1.18944 0
2.08352e-13 1.20875 0
-2.28485e-13 1.20875 0
-1.86345e-13 1.19891 0
1.62052e-13 1.19891 0
-2.28485e-13 1.20875 0
3.64942e-14 1.20875 0
1.62052e-13 1.19891 0
-2.00357e-15 1.19891 0
-1.79591e-13 1.19891 0
2.90503e-14 1.19891 0
4.50493e-14 1.18944 0
9.44772e-14 1.18944 0
2.90503e-14 1.19891 0
-2.56145e-14 1.19891 0
9.44772e-14 1.18944 0
-9.07446e-15 1.18944 0
2.60579e-13 1.22959 0
5.64149e-14 1.22959 0
-2.89414e-13 1.21897 0
-2.20022e-13 1.21897 0
5.64149e-14 1.22959 0
-4.41424e-13 1.22959 0
-2.20022e-13 1.21897 0
3.37961e-13 1.21897 0
-1.80428e-13 1.21897 0
-3.33324e-13 1.21897 0
8.70731e-14 1.20875 0
2.58074e-13 1.20875 0
-3.33324e-13 1.21897 0
-2.13568e-14 1.21897 0
2.58074e-13 1.20875 0
-1.07072e-13 1.20875 0
-4.41424e-13 1.22959 0
-8.90538e-14 1.22959 0
3.37961e-13 1.21897 0
-2.2914e-13 1.21897 0
-8.90538e-14 1.22959 0
-1.61237e-13 1.22959 0
-2.2914e-13 1.21897 0
5.9327e-14 1.21897 0
-2.13568e-14 1.21897 0
5.26587e-14 1.21897 0
-1.07072e-13 1.20875 0
1.34929e-14 1.20875 0
5.26587e-14 1.21897 0
1.15358e-13 1.21897 0
1.34929e-14 1.20875 0
-1.02569e-13 1.20875 0
3.64942e-14 1.20875 0
1.72316e-13 1.20875 0
-2.00357e-15 1.19891 0
-9.7984e-14 1.19891 0
1.72316e-13 1.20875 0
-6.40876e-14 1.20875 0
-9.7984e-14 1.19891 0
9.01036e-14 1.19891 0
-2.56145e-14 1.19891 0
-1.99234e-13 1.19891 0
-9.07446e-15 1.18944 0
-1.42459e-13 1.18944 0
-1.99234e-13 1.19891 0
1.46652e-13 1.19891 0
-1.42459e-13 1.18944 0
-1.8221e-13 1.18944 0
-6.40876e-14 1.20875 0
8.95001e-15 1.20875 0
9.01036e-14 1.19891 0
-1.5494e-13 1.19891 0
8.95001e-15 1.20875 0
-1.0227e-13 1.20875 0
-1.5494e-13 1.19891 0
-2.30514e-13 1.19891 0
1.46652e-13 1.19891 0
-1.15259e-13 1.19891 0
-1.8221e-13 1.18944 0
8.97155e-14 1.18944 0
-1.15259e-13 1.19891 0
-2.38966e-13 1.19891 0
8.97155e-14 1.18944 0
1.70095e-13 1.18944 0
0 1.18944 0
-9.74884e-14 1.18944 0
0 1.18033 0
-1.18851e-13 1.18033 0
-9.74884e-14 1.18944 0
-1.83419e-13 1.18944 0
-1.18851e-13 1.18033 0
3.46878e-15 1.18033 0
0 1.18033 0
-1.11754e-13 1.18033 0
0 1.17156 0
2.21603e-13 1.17156 0
-1.11754e-13 1.18033 0
2.25239e-13 1.18033 0
2.21603e-13 1.17156 0
9.25737e-14 1.17156 0
-1.83419e-13 1.18944 0
-3.84066e-15 1.18944 0
3.46878e-15 1.18033 0
-1.9241e-13 1.18033 0
-3.84066e-15 1.18944 0
1.31948e-14 1.18944 0
-1.9241e-13 1.18033 0
-7.22098e-14 1.18033 0
2.25239e-13 1.18033 0
-1.43592e-13 1.18033 0
9.25737e-14 1.17156 0
6.52278e-14 1.17156 0
-1.43592e-13 1.18033 0
-1.37938e-13 1.18033 0
6.52278e-14 1.17156 0
-1.07749e-13 1.17156 0
0 1.17156 0
8.38591e-14 1.17156 0
0 1.16312 0
-1.29701e-13 1.16312 0
8.38591e-14 1.17156 0
6.37603e-14 1.17156 0
-1.29701e-13 1.16312 0
-1.70975e-13 1.16312 0
0 1.16312 0
-2.4456e-14 1.16312 0
0 1.15501 0
1.79325e-13 1.15501 0
-2.4456e-14 1.16312 0
-1.87373e-13 1.16312 0
1.79325e-13 1.15501 0
4.50384e-15 1.15501 0
6.37603e-14 1.17156 0
5.71372e-14 1.17156 0
-1.70975e-13 1.16312 0
1.49516e-13 1.16312 0
5.71372e-14 1.17156 0
-1.34168e-14 1.17156 0
1.49516e-13 1.16312 0
9.02707e-14 1.16312 0
-1.87373e-13 1.16312 0
4.97931e-14 1.16312 0
4.50384e-15 1.15501 0
-3.26077e-13 1.15501 0
4.97931e-14 1.16312 0
-9.50292e-15 1.16312 0
-3.26077e-13 1.15501 0
-1.8758e-13 1.15501 0
1.31948e-14 1.18944 0
-6.52763e-16 1.18944 0
-7.22098e-14 1.18033 0
4.83567e-14 1.18033 0
-6.52763e-16 1.18944 0
-1.04652e-13 1.18944 0
4.83567e-14 1.18033 0
1.48699e-13 1.18033 0
-1.37938e-13 1.18033 0
-5.01314e-14 1.18033 0
-1.07749e-13 1.17156 0
-1.04373e-15 1.17156 0
-5.01314e-14 1.18033 0
1.01449e-13 1.18033 0
-1.04373e-15 1.17156 0
-2.13572e-13 1.17156 0
-1.04652e-13 1.18944 0
6.71088e-14 1.18944 0
1.48699e-13 1.18033 0
-3.86059e-13 1.18033 0
6.71088e-14 1.18944 0
-3.25969e-13 1.18944 0
-3.86059e-13 1.18033 0
-1.88063e-13 1.18033 0
1.01449e-13 1.18033 0
-1.09892e-13 1.18033 0
-2.13572e-13 1.17156 0
1.35557e-13 1.17156 0
-1.09892e-13 1.18033 0
-1.12874e-13 1.18033 0
1.35557e-13 1.17156 0
2.53006e-13 1.17156 0
-1.34168e-14 1.17156 0
-6.09688e-14 1.17156 0
9.02707e-14 1.16312 0
-1.46831e-13 1.16312 0
-6.09688e-14 1.17156 0
-5.73205e-14 1.17156 0
-1.46831e-13 1.16312 0
9.67688e-14 1.16312 0
-9.50292e-15 1.16312 0
-1.81064e-13 1.16312 0
-1.8758e-13 1.15501 0
-8.10798e-14 1.15501 0
-1.81064e-13 1.16312 0
-2.84163e-14 1.16312 0
-8.10798e-14 1.15501 0
-1.37738e-13 1.15501 0
-5.73205e-14 1.17156 0
4.47846e-14 1.17156 0
9.67688e-14 1.16312 0
-3.69621e-14 1.16312 0
4.47846e-14 1.17156 0
4.39572e-13 1.17156 0
-3.69621e-14 1.16312 0
-2.82558e-13 1.16312 0
-2.84163e-14 1.16312 0
5.79736e-14 1.16312 0
-1.37738e-13 1.15501 0
-2.89453e-14 1.15501 0
5.79736e-14 1.16312 0
-1.37209e-13 1.16312 0
-2.89453e-14 1.15501 0
3.99299e-14 1.15501 0
-1.61237e-13 1.22959 0
-5.60771e-14 1.22959 0
5.9327e-14 1.21897 0
-1.34558e-13 1.21897 0
-5.60771e-14 1.22959 0
1.14373e-13 1.22959 0
-1.34558e-13 1.21897 0
-3.02887e-13 1.21897 0
1.15358e-13 1.21897 0
-1.49032e-14 1.21897 0
-1.02569e-13 1.20875 0
8.5343e-14 1.20875 0
-1.49032e-14 1.21897 0
-4.876e-13 1.21897 0
8.5343e-14 1.20875 0
7.6338e-14 1.20875 0
1.14373e-13 1.22959 0
-2.32403e-13 1.22959 0
-3.02887e-13 1.21897 0
-3.67471e-14 1.21897 0
-2.32403e-13 1.22959 0
-3.51023e-13 1.22959 0
-3.67471e-14 1.21897 0
1.02157e-13 1.21897 0
-4.876e-13 1.21897 0
1.24843e-13 1.21897 0
7.6338e-14 1.20875 0
-2.28671e-13 1.20875 0
1.24843e-13 1.21897 0
1.65855e-13 1.21897 0
-2.28671e-13 1.20875 0
-8.75843e-14 1.20875 0
-1.0227e-13 1.20875 0
-1.6654e-13 1.20875 0
-2.30514e-13 1.19891 0
-8.67782e-14 1.19891 0
-1.6654e-13 1.20875 0
-3.55242e-13 1.20875 0
-8.67782e-14 1.19891 0
-5.14883e-14 1.19891 0
-2.38966e-13 1.19891 0
-1.18474e-13 1.19891 0
1.70095e-13 1.18944 0
1.96567e-13 1.18944 0
-1.18474e-13 1.19891 0
1.92116e-13 1.19891 0
1.96567e-13 1.18944 0
-6.99207e-14 1.18944 0
-3.55242e-13 1.20875 0
-3.02313e-14 1.20875 0
-5.14883e-14 1.19891 0
4.17841e-15 1.19891 0
-3.02313e-14 1.20875 0
3.83295e-14 1.20875 0
4.17841e-15 1.19891 0
2.83429e-14 1.19891 0
1.92116e-13 1.19891 0
5.6118e-14 1.19891 0
-6.99207e-14 1.18944 0
-1.96749e-13 1.18944 0
5.6118e-14 1.19891 0
-2.08369e-13 1.19891 0
-1.96749e-13 1.18944 0
-1.71412e-13 1.18944 0
-3.51023e-13 1.22959 0
2.5624e-14 1.22959 0
1.02157e-13 1.21897 0
-3.22664e-13 1.21897 0
2.5624e-14 1.22959 0
8.47068e-14 1.22959 0
-3.22664e-13 1.21897 0
5.39832e-14 1.21897 0
1.65855e-13 1.21897 0
1.33908e-14 1.21897 0
-8.75843e-14 1.20875 0
-3.02216e-15 1.20875 0
1.33908e-14 1.21897 0
-5.09166e-13 1.21897 0
-3.02216e-15 1.20875 0
4.17179e-14 1.20875 0
8.47068e-14 1.22959 0
-1.77653e-13 1.22959 0
5.39832e-14 1.21897 0
4.50181e-14 1.21897 0
-1.77653e-13 1.22959 0
-1.87933e-13 1.22959 0
4.50181e-14 1.21897 0
-1.7002e-13 1.21897 0
-5.09166e-13 1.21897 0
-1.63376e-13 1.21897 0
4.17179e-14 1.20875 0
-1.24234e-13 1.20875 0
-1.63376e-13 1.21897 0
1.33132e-14 1.21897 0
-1.24234e-13 1.20875 0
-3.23834e-13 1.20875 0
3.83295e-14 1.20875 0
-1.50338e-13 1.20875 0
2.83429e-14 1.19891 0
1.78422e-13 1.19891 0
-1.50338e-13 1.20875 0
1.55411e-13 1.20875 0
1.78422e-13 1.19891 0
-6.24751e-13 1.19891 0
-2.08369e-13 1.19891 0
-5.00251e-13 1.19891 0
-1.71412e-13 1.18944 0
1.51259e-13 1.18944 0
-5.00251e-13 1.19891 0
1.03292e-14 1.19891 0
1.51259e-13 1.18944 0
-9.97885e-14 1.18944 0
1.55411e-13 1.20875 0
3.55488e-15 1.20875 0
-6.24751e-13 1.19891 0
1.0382e-13 1.19891 0
3.55488e-15 1.20875 0
-4.82698e-13 1.20875 0
1.0382e-13 1.19891 0
8.00281e-14 1.19891 0
1.03292e-14 1.19891 0
6.25703e-14 1.19891 0
-9.97885e-14 1.18944 0
-5.83296e-13 1.18944 0
6.25703e-14 1.19891 0
-3.57355e-14 1.19891 0
-5.83296e-13 1.18944 0
9.93327e-14 1.18944 0
-3.25969e-13 1.18944 0
-9.82141e-14 1.18944 0
-1.88063e-13 1.18033 0
-3.85151e-14 1.18033 0
-9.82141e-14 1.18944 0
-2.09393e-14 1.18944 0
-3.85151e-14 1.18033 0
-2.05983e-13 1.18033 0
-1.12874e-13 1.18033 0
8.61895e-15 1.18033 0
2.53006e-13 1.17156 0
-3.0604e-13 1.17156 0
8.61895e-15 1.18033 0
-4.90885e-13 1.18033 0
-3.0604e-13 1.17156 0
-7.64526e-14 1.17156 0