# vtk DataFile Version 3.0
#This file was generated by the deal.II library on 2018/10/16 at 10:01:47
ASCII
DATASET UNSTRUCTURED_GRID

POINTS 20480 double
0 0 0
0.19635 0 0
0 0.284118 0
0.19635 0.284118 0
0.19635 0 0
0.392699 0 0
0.19635 0.284118 0
0.392699 0.284118 0
0 0.284118 0
0.19635 0.284118 0
0 0.594885 0
0.19635 0.594885 0
0.19635 0.284118 0
0.392699 0.284118 0
0.19635 0.594885 0
0.392699 0.594885 0
0.392699 0 0
0.589049 0 0
0.392699 0.284118 0
0.589049 0.284118 0
0.589049 0 0
0.785398 0 0
0.589049 0.284118 0
0.785398 0.284118 0
0.392699 0.284118 0
0.589049 0.284118 0
0.392699 0.594885 0
0.589049 0.594885 0
0.589049 0.284118 0
0.785398 0.284118 0
0.589049 0.594885 0
0.785398 0.594885 0
0 0.594885 0
0.19635 0.594885 0
0 0.907939 0
0.19635 0.907939 0
0.19635 0.594885 0
0.392699 0.594885 0
0.19635 0.907939 0
0.392699 0.907939 0
0 0.907939 0
0.19635 0.907939 0
0 1.22196 0
0.19635 1.22196 0
0.19635 0.907939 0
0.392699 0.907939 0
0.19635 1.22196 0
0.392699 1.22196 0
0.392699 0.594885 0
0.589049 0.594885 0
0.392699 0.907939 0
0.589049 0.907939 0
0.589049 0.594885 0
0.785398 0.594885 0
0.589049 0.907939 0
0.785398 0.907939 0
0.392699 0.907939 0
0.589049 0.907939 0
0.392699 1.22196 0
0.589049 1.22196 0
0.589049 0.907939 0
0.785398 0.907939 0
0.589049 1.22196 0
0.785398 1.22196 0
0.785398 0 0
0.981748 0 0
0.785398 0.284118 0
0.981748 0.284118 0
0.981748 0 0
1.1781 0 0
0.981748 0.284118 0
1.1781 0.284118 0
0.785398 0.284118 0
0.981748 0.284118 0
0.785398 0.594885 0
0.981748 0.594885 0
0.981748 0.284118 0
1.1781 0.284118 0
0.981748 0.594885 0
1.1781 0.594885 0
1.1781 0 0
1.37445 0 0
1.1781 0.284118 0
1.37445 0.284118 0
1.37445 0 0
1.5708 0 0
1.37445 0.284118 0
1.5708 0.284118 0
1.1781 0.284118 0
1.37445 0.284118 0
1.1781 0.594885 0
1.37445 0.594885 0
1.37445 0.284118 0
1.5708 0.284118 0
1.37445 0.594885 0
1.5708 0.594885 0
0.785398 0.594885 0
0.981748 0.594885 0
0.785398 0.907939 0
0.981748 0.907939 0
0.981748 0.594885 0
1.1781 0.594885 0
0.981748 0.907939 0
1.1781 0.907939 0
0.785398 0.907939 0
0.981748 0.907939 0
0.785398 1.22196 0
0.981748 1.22196 0
0.981748 0.907939 0
1.1781 0.907939 0
0.981748 1.22196 0
1.1781 1.22196 0
1.1781 0.594885 0
1.37445 0.594885 0
1.1781 0.907939 0
1.37445 0.907939 0
1.37445 0.594885 0
1.5708 0.594885 0
1.37445 0.907939 0
1.5708 0.907939 0
1.1781 0.907939 0
1.37445 0.907939 0
1.1781 1.22196 0
1.37445 1.22196 0
1.37445 0.907939 0
1.5708 0.907939 0
1.37445 1.22196 0
1.5708 1.22196 0
0 1.22196 0
0.19635 1.22196 0
0 1.53584 0
0.19635 1.53584 0
0.19635 1.22196 0
0.392699 1.22196 0
0.19635 1.53584 0
0.392699 1.53584 0
0 1.53584 0
0.19635 1.53584 0
0 1.84972 0
0.19635 1.84972 0
0.19635 1.53584 0
0.392699 1.53584 0
0.19635 1.84972 0
0.392699 1.84972 0
0.392699 1.22196 0
0.589049 1.22196 0
0.392699 1.53584 0
0.589049 1.53584 0
0.589049 1.22196 0
0.785398 1.22196 0
0.589049 1.53584 0
0.785398 1.53584 0
0.392699 1.53584 0
0.589049 1.53584 0
0.392699 1.84972 0
0.589049 1.84972 0
0.589049 1.53584 0
0.785398 1.53584 0
0.589049 1.84972 0
0.785398 1.84972 0
0 1.84972 0
0.19635 1.84972 0
0 2.16355 0
0.19635 2.16355 0
0.19635 1.84972 0
0.392699 1.84972 0
0.19635 2.16355 0
0.392699 2.16355 0
0 2.16355 0
0.19635 2.16355 0
0 2.47733 0
0.19635 2.47733 0
0.19635 2.16355 0
0.392699 2.16355 0
0.19635 2.47733 0
0.392699 2.47733 0
0.392699 1.84972 0
0.589049 1.84972 0
0.392699 2.16355 0
0.589049 2.16355 0
0.589049 1.84972 0
0.785398 1.84972 0
0.589049 2.16355 0
0.785398 2.16355 0
0.392699 2.16355 0
0.589049 2.16355 0
0.392699 2.47733 0
0.589049 2.47733 0
0.589049 2.16355 0
0.785398 2.16355 0
0.589049 2.47733 0
0.785398 2.47733 0
0.785398 1.22196 0
0.981748 1.22196 0
0.785398 1.53584 0
0.981748 1.53584 0
0.981748 1.22196 0
1.1781 1.22196 0
0.981748 1.53584 0
1.1781 1.53584 0
0.785398 1.53584 0
0.981748 1.53584 0
0.785398 1.84972 0
0.981748 1.84972 0
0.981748 1.53584 0
1.1781 1.53584 0
0.981748 1.84972 0
1.1781 1.84972 0
1.1781 1.22196 0
1.37445 1.22196 0
1.1781 1.53584 0
1.37445 1.53584 0
1.37445 1.22196 0
1.5708 1.22196 0
1.37445 1.53584 0
1.5708 1.53584 0
1.1781 1.53584 0
1.37445 1.53584 0
1.1781 1.84972 0
1.37445 1.84972 0
1.37445 1.53584 0
1.5708 1.53584 0
1.37445 1.84972 0
1.5708 1.84972 0
0.785398 1.84972 0
0.981748 1.84972 0
0.785398 2.16355 0
0.981748 2.16355 0
0.981748 1.84972 0
1.1781 1.84972 0
0.981748 2.16355 0
1.1781 2.16355 0
0.785398 2.16355 0
0.981748 2.16355 0
0.785398 2.47733 0
0.981748 2.47733 0
0.981748 2.16355 0
1.1781 2.16355 0
0.981748 2.47733 0
1.1781 2.47733 0
1.1781 1.84972 0
1.37445 1.84972 0
1.1781 2.16355 0
1.37445 2.16355 0
1.37445 1.84972 0
1.5708 1.84972 0
1.37445 2.16355 0
1.5708 2.16355 0
1.1781 2.16355 0
1.37445 2.16355 0
1.1781 2.47733 0
1.37445 2.47733 0
1.37445 2.16355 0
1.5708 2.16355 0
1.37445 2.47733 0
1.5708 2.47733 0
1.5708 0 0
1.76715 0 0
1.5708 0.284118 0
1.76715 0.284118 0
1.76715 0 0
1.9635 0 0
1.76715 0.284118 0
1.9635 0.284118 0
1.5708 0.284118 0
1.76715 0.284118 0
1.5708 0.594885 0
1.76715 0.594885 0
1.76715 0.284118 0
1.9635 0.284118 0
1.76715 0.594885 0
1.9635 0.594885 0
1.9635 0 0
2.15984 0 0
1.9635 0.284118 0
2.15984 0.284118 0
2.15984 0 0
2.35619 0 0
2.15984 0.284118 0
2.35619 0.284118 0
1.9635 0.284118 0
2.15984 0.284118 0
1.9635 0.594885 0
2.15984 0.594885 0
2.15984 0.284118 0
2.35619 0.284118 0
2.15984 0.594885 0
2.35619 0.594885 0
1.5708 0.594885 0
1.76715 0.594885 0
1.5708 0.907939 0
1.76715 0.907939 0
1.76715 0.594885 0
1.9635 0.594885 0
1.76715 0.907939 0
1.9635 0.907939 0
1.5708 0.907939 0
1.76715 0.907939 0
1.5708 1.22196 0
1.76715 1.22196 0
1.76715 0.907939 0
1.9635 0.907939 0
1.76715 1.22196 0
1.9635 1.22196 0
1.9635 0.594885 0
2.15984 0.594885 0
1.9635 0.907939 0
2.15984 0.907939 0
2.15984 0.594885 0
2.35619 0.594885 0
2.15984 0.907939 0
2.35619 0.907939 0
1.9635 0.907939 0
2.15984 0.907939 0
1.9635 1.22196 0
2.15984 1.22196 0
2.15984 0.907939 0
2.35619 0.907939 0
2.15984 1.22196 0
2.35619 1.22196 0
2.35619 0 0
2.55254 0 0
2.35619 0.284118 0
2.55254 0.284118 0
2.55254 0 0
2.74889 0 0
2.55254 0.284118 0
2.74889 0.284118 0
2.35619 0.284118 0
2.55254 0.284118 0
2.35619 0.594885 0
2.55254 0.594885 0
2.55254 0.284118 0
2.74889 0.284118 0
2.55254 0.594885 0
2.74889 0.594885 0
2.74889 0 0
2.94524 0 0
2.74889 0.284118 0
2.94524 0.284118 0
2.94524 0 0
3.14159 0 0
2.94524 0.284118 0
3.14159 0.284118 0
2.74889 0.284118 0
2.94524 0.284118 0
2.74889 0.594885 0
2.94524 0.594885 0
2.94524 0.284118 0
3.14159 0.284118 0
2.94524 0.594885 0
3.14159 0.594885 0
2.35619 0.594885 0
2.55254 0.594885 0
2.35619 0.907939 0
2.55254 0.907939 0
2.55254 0.594885 0
2.74889 0.594885 0
2.55254 0.907939 0
2.74889 0.907939 0
2.35619 0.907939 0
2.55254 0.907939 0
2.35619 1.22196 0
2.55254 1.22196 0
2.55254 0.907939 0
2.74889 0.907939 0
2.55254 1.22196 0
2.74889 1.22196 0
2.74889 0.594885 0
2.94524 0.594885 0
2.74889 0.907939 0
2.94524 0.907939 0
2.94524 0.594885 0
3.14159 0.594885 0
2.94524 0.907939 0
3.14159 0.907939 0
2.74889 0.907939 0
2.94524 0.907939 0
2.74889 1.22196 0
2.94524 1.22196 0
2.94524 0.907939 0
3.14159 0.907939 0
2.94524 1.22196 0
3.14159 1.22196 0
1.5708 1.22196 0
1.76715 1.22196 0
1.5708 1.53584 0
1.76715 1.53584 0
1.76715 1.22196 0
1.9635 1.22196 0
1.76715 1.53584 0
1.9635 1.53584 0
1.5708 1.53584 0
1.76715 1.53584 0
1.5708 1.84972 0
1.76715 1.84972 0
1.76715 1.53584 0
1.9635 1.53584 0
1.76715 1.84972 0
1.9635 1.84972 0
1.9635 1.22196 0
2.15984 1.22196 0
1.9635 1.53584 0
2.15984 1.53584 0
2.15984 1.22196 0
2.35619 1.22196 0
2.15984 1.53584 0
2.35619 1.53584 0
1.9635 1.53584 0
2.15984 1.53584 0
1.9635 1.84972 0
2.15984 1.84972 0
2.15984 1.53584 0
2.35619 1.53584 0
2.15984 1.84972 0
2.35619 1.84972 0
1.5708 1.84972 0
1.76715 1.84972 0
1.5708 2.16355 0
1.76715 2.16355 0
1.76715 1.84972 0
1.9635 1.84972 0
1.76715 2.16355 0
1.9635 2.16355 0
1.5708 2.16355 0
1.76715 2.16355 0
1.5708 2.47733 0
1.76715 2.47733 0
1.76715 2.16355 0
1.9635 2.16355 0
1.76715 2.47733 0
1.9635 2.47733 0
1.9635 1.84972 0
2.15984 1.84972 0
1.9635 2.16355 0
2.15984 2.16355 0
2.15984 1.84972 0
2.35619 1.84972 0
2.15984 2.16355 0
2.35619 2.16355 0
1.9635 2.16355 0
2.15984 2.16355 0
1.9635 2.47733 0
2.15984 2.47733 0
2.15984 2.16355 0
2.35619 2.16355 0
2.15984 2.47733 0
2.35619 2.47733 0
2.35619 1.22196 0
2.55254 1.22196 0
2.35619 1.53584 0
2.55254 1.53584 0
2.55254 1.22196 0
2.74889 1.22196 0
2.55254 1.53584 0
2.74889 1.53584 0
2.35619 1.53584 0
2.55254 1.53584 0
2.35619 1.84972 0
2.55254 1.84972 0
2.55254 1.53584 0
2.74889 1.53584 0
2.55254 1.84972 0
2.74889 1.84972 0
2.74889 1.22196 0
2.94524 1.22196 0
2.74889 1.53584 0
2.94524 1.53584 0
2.94524 1.22196 0
3.14159 1.22196 0
2.94524 1.53584 0
3.14159 1.53584 0
2.74889 1.53584 0
2.94524 1.53584 0
2.74889 1.84972 0
2.94524 1.84972 0
2.94524 1.53584 0
3.14159 1.53584 0
2.94524 1.84972 0
3.14159 1.84972 0
2.35619 1.84972 0
2.55254 1.84972 0
2.35619 2.16355 0
2.55254 2.16355 0
2.55254 1.84972 0
2.74889 1.84972 0
2.55254 2.16355 0
2.74889 2.16355 0
2.35619 2.16355 0
2.55254 2.16355 0
2.35619 2.47733 0
2.55254 2.47733 0
2.55254 2.16355 0
2.74889 2.16355 0
2.55254 2.47733 0
2.74889 2.47733 0
2.74889 1.84972 0
2.94524 1.84972 0
2.74889 2.16355 0
2.94524 2.16355 0
2.94524 1.84972 0
3.14159 1.84972 0
2.94524 2.16355 0
3.14159 2.16355 0
2.74889 2.16355 0
2.94524 2.16355 0
2.74889 2.47733 0
2.94524 2.47733 0
2.94524 2.16355 0
3.14159 2.16355 0
2.94524 2.47733 0
3.14159 2.47733 0
0 2.47733 0
0.19635 2.47733 0
0 2.79106 0
0.19635 2.79106 0
0.19635 2.47733 0
0.392699 2.47733 0
0.19635 2.79106 0
0.392699 2.79106 0
0 2.79106 0
0.19635 2.79106 0
0 3.10475 0
0.19635 3.10475 0
0.19635 2.79106 0
0.392699 2.79106 0
0.19635 3.10475 0
0.392699 3.10475 0
0.392699 2.47733 0
0.589049 2.47733 0
0.392699 2.79106 0
0.589049 2.79106 0
0.589049 2.47733 0
0.785398 2.47733 0
0.589049 2.79106 0
0.785398 2.79106 0
0.392699 2.79106 0
0.589049 2.79106 0
0.392699 3.10475 0
0.589049 3.10475 0
0.589049 2.79106 0
0.785398 2.79106 0
0.589049 3.10475 0
0.785398 3.10475 0
0 3.10475 0
0.19635 3.10475 0
0 3.4184 0
0.19635 3.4184 0
0.19635 3.10475 0
0.392699 3.10475 0
0.19635 3.4184 0
[...]
POINT_DATA 20480
VECTORS uf double
0 1 0
-2.10889e-13 1 0
0 1.58325 0
2.95967e-13 1.58325 0
-2.10889e-13 1 0
-9.97695e-14 1 0
2.95967e-13 1.58325 0
2.05721e-13 1.58325 0
0 1.58325 0
1.73239e-13 1.58325 0
0 1.55511 0
-2.46967e-14 1.55511 0
1.73239e-13 1.58325 0
1.98524e-14 1.58325 0
-2.46967e-14 1.55511 0
1.32333e-13 1.55511 0
-9.97695e-14 1 0
2.09514e-13 1 0
2.05721e-13 1.58325 0
-4.28319e-13 1.58325 0
2.09514e-13 1 0
-1.65296e-13 1 0
-4.28319e-13 1.58325 0
2.87914e-13 1.58325 0
1.98524e-14 1.58325 0
-7.46824e-13 1.58325 0
1.32333e-13 1.55511 0
8.16257e-13 1.55511 0
-7.46824e-13 1.58325 0
-1.76297e-14 1.58325 0
8.16257e-13 1.55511 0
1.95098e-13 1.55511 0
0 1.55511 0
4.69493e-14 1.55511 0
0 1.543 0
1.23895e-13 1.543 0
4.69493e-14 1.55511 0
3.41618e-13 1.55511 0
1.23895e-13 1.543 0
-4.42538e-13 1.543 0
0 1.543 0
3.19782e-13 1.543 0
0 1.51033 0
-2.16112e-13 1.51033 0
3.19782e-13 1.543 0
-4.18567e-13 1.543 0
-2.16112e-13 1.51033 0
3.16631e-13 1.51033 0
3.41618e-13 1.55511 0
7.35802e-13 1.55511 0
-4.42538e-13 1.543 0
-4.22129e-13 1.543 0
7.35802e-13 1.55511 0
1.64363e-13 1.55511 0
-4.22129e-13 1.543 0
2.77681e-13 1.543 0
-4.18567e-13 1.543 0
2.22373e-13 1.543 0
3.16631e-13 1.51033 0
-4.45451e-13 1.51033 0
2.22373e-13 1.543 0
2.68317e-13 1.543 0
-4.45451e-13 1.51033 0
1.9282e-13 1.51033 0
-1.65296e-13 1 0
-2.27786e-13 1 0
2.87914e-13 1.58325 0
4.64912e-13 1.58325 0
-2.27786e-13 1 0
9.72532e-14 1 0
4.64912e-13 1.58325 0
-9.72016e-14 1.58325 0
-1.76297e-14 1.58325 0
5.04798e-13 1.58325 0
1.95098e-13 1.55511 0
-4.32199e-13 1.55511 0
5.04798e-13 1.58325 0
4.06355e-13 1.58325 0
-4.32199e-13 1.55511 0
-5.94498e-13 1.55511 0
9.72532e-14 1 0
7.09843e-13 1 0
-9.72016e-14 1.58325 0
-1.27403e-12 1.58325 0
7.09843e-13 1 0
4.98625e-13 1 0
-1.27403e-12 1.58325 0
-7.07099e-13 1.58325 0
4.06355e-13 1.58325 0
-8.28655e-13 1.58325 0
-5.94498e-13 1.55511 0
4.09444e-13 1.55511 0
-8.28655e-13 1.58325 0
-5.83463e-13 1.58325 0
4.09444e-13 1.55511 0
1.25919e-13 1.55511 0
1.64363e-13 1.55511 0
-2.89004e-13 1.55511 0
2.77681e-13 1.543 0
1.25346e-13 1.543 0
-2.89004e-13 1.55511 0
-6.03083e-13 1.55511 0
1.25346e-13 1.543 0
2.67579e-13 1.543 0
2.68317e-13 1.543 0
-7.80535e-14 1.543 0
1.9282e-13 1.51033 0
-1.02178e-13 1.51033 0
-7.80535e-14 1.543 0
-1.97739e-13 1.543 0
-1.02178e-13 1.51033 0
2.48155e-13 1.51033 0
-6.03083e-13 1.55511 0
-1.28283e-13 1.55511 0
2.67579e-13 1.543 0
-1.22405e-13 1.543 0
-1.28283e-13 1.55511 0
6.67249e-14 1.55511 0
-1.22405e-13 1.543 0
-3.70579e-13 1.543 0
-1.97739e-13 1.543 0
-3.50818e-14 1.543 0
2.48155e-13 1.51033 0
3.8755e-14 1.51033 0
-3.50818e-14 1.543 0
7.57819e-14 1.543 0
3.8755e-14 1.51033 0
-3.6405e-13 1.51033 0
0 1.51033 0
-3.40084e-13 1.51033 0
0 1.48528 0
3.86941e-13 1.48528 0
-3.40084e-13 1.51033 0
6.16036e-13 1.51033 0
3.86941e-13 1.48528 0
-7.23151e-13 1.48528 0
0 1.48528 0
6.76182e-13 1.48528 0
0 1.45967 0
-4.69017e-13 1.45967 0
6.76182e-13 1.48528 0
-8.46127e-13 1.48528 0
-4.69017e-13 1.45967 0
3.99971e-13 1.45967 0
6.16036e-13 1.51033 0
-3.56075e-13 1.51033 0
-7.23151e-13 1.48528 0
4.22394e-13 1.48528 0
-3.56075e-13 1.51033 0
1.20941e-13 1.51033 0
4.22394e-13 1.48528 0
2.0832e-13 1.48528 0
-8.46127e-13 1.48528 0
1.94184e-13 1.48528 0
3.99971e-13 1.45967 0
2.37609e-14 1.45967 0
1.94184e-13 1.48528 0
3.23915e-13 1.48528 0
2.37609e-14 1.45967 0
-1.2863e-13 1.45967 0
0 1.45967 0
-2.83434e-13 1.45967 0
0 1.43613 0
-1.14005e-13 1.43613 0
-2.83434e-13 1.45967 0
2.94472e-13 1.45967 0
-1.14005e-13 1.43613 0
-1.1486e-13 1.43613 0
0 1.43613 0
-3.84851e-13 1.43613 0
0 1.41377 0
2.59648e-13 1.41377 0
-3.84851e-13 1.43613 0
-2.23314e-13 1.43613 0
2.59648e-13 1.41377 0
1.34263e-13 1.41377 0
2.94472e-13 1.45967 0
2.45106e-13 1.45967 0
-1.1486e-13 1.43613 0
-1.77022e-13 1.43613 0
2.45106e-13 1.45967 0
4.98277e-14 1.45967 0
-1.77022e-13 1.43613 0
5.10299e-14 1.43613 0
-2.23314e-13 1.43613 0
9.09386e-14 1.43613 0
1.34263e-13 1.41377 0
-4.43584e-13 1.41377 0
9.09386e-14 1.43613 0
1.67165e-14 1.43613 0
-4.43584e-13 1.41377 0
2.22957e-13 1.41377 0
1.20941e-13 1.51033 0
8.27799e-14 1.51033 0
2.0832e-13 1.48528 0
-2.3293e-13 1.48528 0
8.27799e-14 1.51033 0
9.23725e-14 1.51033 0
-2.3293e-13 1.48528 0
-1.50875e-13 1.48528 0
3.23915e-13 1.48528 0
-5.02379e-13 1.48528 0
-1.2863e-13 1.45967 0
4.43428e-13 1.45967 0
-5.02379e-13 1.48528 0
1.51195e-14 1.48528 0
4.43428e-13 1.45967 0
-1.68001e-13 1.45967 0
9.23725e-14 1.51033 0
-2.93399e-13 1.51033 0
-1.50875e-13 1.48528 0
2.19079e-13 1.48528 0
-2.93399e-13 1.51033 0
-5.49524e-13 1.51033 0
2.19079e-13 1.48528 0
3.32469e-13 1.48528 0
1.51195e-14 1.48528 0
1.65715e-13 1.48528 0
-1.68001e-13 1.45967 0
-2.1344e-13 1.45967 0
1.65715e-13 1.48528 0
2.19553e-13 1.48528 0
-2.1344e-13 1.45967 0
-3.18533e-13 1.45967 0
4.98277e-14 1.45967 0
3.36633e-13 1.45967 0
5.10299e-14 1.43613 0
-2.15897e-13 1.43613 0
3.36633e-13 1.45967 0
-1.92883e-13 1.45967 0
-2.15897e-13 1.43613 0
-8.87405e-14 1.43613 0
1.67165e-14 1.43613 0
-1.87819e-13 1.43613 0
2.22957e-13 1.41377 0
3.7205e-13 1.41377 0
-1.87819e-13 1.43613 0
-1.34447e-13 1.43613 0
3.7205e-13 1.41377 0
-8.70312e-14 1.41377 0
-1.92883e-13 1.45967 0
-6.94712e-13 1.45967 0
-8.87405e-14 1.43613 0
7.40144e-13 1.43613 0
-6.94712e-13 1.45967 0
2.51647e-13 1.45967 0
7.40144e-13 1.43613 0
-1.74721e-13 1.43613 0
-1.34447e-13 1.43613 0
4.05612e-13 1.43613 0
-8.70312e-14 1.41377 0
-3.10838e-13 1.41377 0
4.05612e-13 1.43613 0
1.88632e-13 1.43613 0
-3.10838e-13 1.41377 0
-9.28758e-14 1.41377 0
4.98625e-13 1 0
-4.20273e-13 1 0
-7.07099e-13 1.58325 0
8.50706e-13 1.58325 0
-4.20273e-13 1 0
-3.04724e-13 1 0
8.50706e-13 1.58325 0
3.83435e-13 1.58325 0
-5.83463e-13 1.58325 0
7.3402e-13 1.58325 0
1.25919e-13 1.55511 0
-4.49233e-13 1.55511 0
7.3402e-13 1.58325 0
4.62225e-13 1.58325 0
-4.49233e-13 1.55511 0
-3.90741e-13 1.55511 0
-3.04724e-13 1 0
-1.62493e-13 1 0
3.83435e-13 1.58325 0
4.43845e-14 1.58325 0
-1.62493e-13 1 0
3.1552e-13 1 0
4.43845e-14 1.58325 0
3.95291e-14 1.58325 0
4.62225e-13 1.58325 0
-3.98251e-13 1.58325 0
-3.90741e-13 1.55511 0
4.66607e-13 1.55511 0
-3.98251e-13 1.58325 0
4.64344e-13 1.58325 0
4.66607e-13 1.55511 0
-3.777e-13 1.55511 0
6.67249e-14 1.55511 0
-1.78117e-13 1.55511 0
-3.70579e-13 1.543 0
1.84174e-13 1.543 0
-1.78117e-13 1.55511 0
2.81974e-13 1.55511 0
1.84174e-13 1.543 0
5.99872e-14 1.543 0
7.57819e-14 1.543 0
-2.30009e-13 1.543 0
-3.6405e-13 1.51033 0
4.17651e-13 1.51033 0
-2.30009e-13 1.543 0
-2.99243e-14 1.543 0
4.17651e-13 1.51033 0
-3.50014e-13 1.51033 0
2.81974e-13 1.55511 0
1.01209e-13 1.55511 0
5.99872e-14 1.543 0
-1.06218e-13 1.543 0
1.01209e-13 1.55511 0
-5.21408e-13 1.55511 0
-1.06218e-13 1.543 0
3.89733e-13 1.543 0
-2.99243e-14 1.543 0
-3.45153e-13 1.543 0
-3.50014e-13 1.51033 0
6.49089e-13 1.51033 0
-3.45153e-13 1.543 0
3.08044e-16 1.543 0
6.49089e-13 1.51033 0
2.60868e-13 1.51033 0
3.1552e-13 1 0
2.30722e-13 1 0
3.95291e-14 1.58325 0
-3.07096e-13 1.58325 0
2.30722e-13 1 0
-1.74878e-13 1 0
-3.07096e-13 1.58325 0
1.50977e-13 1.58325 0
4.64344e-13 1.58325 0
-2.71686e-13 1.58325 0
-3.777e-13 1.55511 0
2.2797e-13 1.55511 0
-2.71686e-13 1.58325 0
-9.70989e-14 1.58325 0
2.2797e-13 1.55511 0
1.40379e-13 1.55511 0
-1.74878e-13 1 0
-1.97145e-13 1 0
1.50977e-13 1.58325 0
2.48805e-13 1.58325 0
-1.97145e-13 1 0
9.22238e-14 1 0
2.48805e-13 1.58325 0
7.70558e-15 1.58325 0
-9.70989e-14 1.58325 0
3.15146e-13 1.58325 0
1.40379e-13 1.55511 0
-2.31642e-13 1.55511 0
3.15146e-13 1.58325 0
4.46486e-13 1.58325 0
-2.31642e-13 1.55511 0
-7.24418e-14 1.55511 0
-5.21408e-13 1.55511 0
-1.23205e-14 1.55511 0
3.89733e-13 1.543 0
7.77471e-14 1.543 0
-1.23205e-14 1.55511 0
-2.22445e-13 1.55511 0
7.77471e-14 1.543 0
2.13853e-13 1.543 0
3.08044e-16 1.543 0
8.11631e-13 1.543 0
2.60868e-13 1.51033 0
-8.45984e-13 1.51033 0
8.11631e-13 1.543 0
-8.68363e-14 1.543 0
-8.45984e-13 1.51033 0
4.47327e-13 1.51033 0
-2.22445e-13 1.55511 0
-1.43848e-13 1.55511 0
2.13853e-13 1.543 0
1.14979e-13 1.543 0
-1.43848e-13 1.55511 0
1.80611e-13 1.55511 0
1.14979e-13 1.543 0
-3.87688e-14 1.543 0
-8.68363e-14 1.543 0
-1.55564e-13 1.543 0
4.47327e-13 1.51033 0
-3.60294e-13 1.51033 0
-1.55564e-13 1.543 0
3.58305e-13 1.543 0
-3.60294e-13 1.51033 0
1.52227e-15 1.51033 0
-5.49524e-13 1.51033 0
8.23514e-13 1.51033 0
3.32469e-13 1.48528 0
-7.2139e-13 1.48528 0
8.23514e-13 1.51033 0
-2.29299e-13 1.51033 0
-7.2139e-13 1.48528 0
2.80931e-13 1.48528 0
2.19553e-13 1.48528 0
-1.42314e-13 1.48528 0
-3.18533e-13 1.45967 0
3.69528e-13 1.45967 0
-1.42314e-13 1.48528 0
-2.52616e-13 1.48528 0
3.69528e-13 1.45967 0
2.69205e-13 1.45967 0
-2.29299e-13 1.51033 0
4.13225e-14 1.51033 0
2.80931e-13 1.48528 0
-4.08686e-13 1.48528 0
4.13225e-14 1.51033 0
6.99166e-14 1.51033 0
-4.08686e-13 1.48528 0
-1.55501e-14 1.48528 0
-2.52616e-13 1.48528 0
-8.12598e-14 1.48528 0
2.69205e-13 1.45967 0
-8.73153e-14 1.45967 0
-8.12598e-14 1.48528 0
-2.29896e-14 1.48528 0
-8.73153e-14 1.45967 0
-1.87244e-13 1.45967 0
2.51647e-13 1.45967 0
2.42672e-13 1.45967 0
-1.74721e-13 1.43613 0
-2.64001e-13 1.43613 0
2.42672e-13 1.45967 0
1.54238e-13 1.45967 0
-2.64001e-13 1.43613 0
3.22401e-14 1.43613 0
1.88632e-13 1.43613 0
-2.01315e-13 1.43613 0
-9.28758e-14 1.41377 0
1.03313e-13 1.41377 0
-2.01315e-13 1.43613 0
3.91698e-13 1.43613 0
1.03313e-13 1.41377 0
-1.71947e-13 1.41377 0
1.54238e-13 1.45967 0
-2.17911e-13 1.45967 0
3.22401e-14 1.43613 0
3.55888e-13 1.43613 0
-2.17911e-13 1.45967 0
1.71039e-13 1.45967 0
3.55888e-13 1.43613 0
-1.43094e-13 1.43613 0
3.91698e-13 1.43613 0
-1.71553e-14 1.43613 0
-1.71947e-13 1.41377 0
-6.46212e-14 1.41377 0
-1.71553e-14 1.43613 0
4.12703e-13 1.43613 0
-6.46212e-14 1.41377 0
-3.88956e-13 1.41377 0
6.99166e-14 1.51033 0
1.96339e-14 1.51033 0
-1.55501e-14 1.48528 0
3.93652e-13 1.48528 0
1.96339e-14 1.51033 0
-2.25792e-13 1.51033 0
3.93652e-13 1.48528 0
9.76535e-14 1.48528 0
-2.29896e-14 1.48528 0
4.72154e-14 1.48528 0
-1.87244e-13 1.45967 0
3.01849e-13 1.45967 0
4.72154e-14 1.48528 0
1.25851e-14 1.48528 0
3.01849e-13 1.45967 0
-1.39704e-13 1.45967 0
-2.25792e-13 1.51033 0
5.61582e-13 1.51033 0
9.76535e-14 1.48528 0
-5.73467e-13 1.48528 0
5.61582e-13 1.51033 0
-6.3217e-13 1.51033 0
-5.73467e-13 1.48528 0
6.38489e-13 1.48528 0
1.25851e-14 1.48528 0
-2.80463e-13 1.48528 0
-1.39704e-13 1.45967 0
4.6622e-13 1.45967 0
-2.80463e-13 1.48528 0
3.41166e-13 1.48528 0
4.6622e-13 1.45967 0
-2.62526e-13 1.45967 0
1.71039e-13 1.45967 0
-2.33181e-13 1.45967 0
-1.43094e-13 1.43613 0
3.75837e-13 1.43613 0
-2.33181e-13 1.45967 0
-1.32331e-13 1.45967 0
3.75837e-13 1.43613 0
3.14673e-15 1.43613 0
4.12703e-13 1.43613 0
-9.16194e-13 1.43613 0
-3.88956e-13 1.41377 0
8.72065e-13 1.41377 0
-9.16194e-13 1.43613 0
2.95789e-13 1.43613 0
8.72065e-13 1.41377 0
-3.81538e-14 1.41377 0
-1.32331e-13 1.45967 0
4.72938e-13 1.45967 0
3.14673e-15 1.43613 0
-4.74069e-13 1.43613 0
4.72938e-13 1.45967 0
-7.26352e-14 1.45967 0
-4.74069e-13 1.43613 0
2.20627e-13 1.43613 0
2.95789e-13 1.43613 0
1.19622e-13 1.43613 0
-3.81538e-14 1.41377 0
-2.03509e-13 1.41377 0
1.19622e-13 1.43613 0
1.34841e-13 1.43613 0
-2.03509e-13 1.41377 0
2.41223e-13 1.41377 0
0 1.41377 0
2.10355e-13 1.41377 0
0 1.39275 0
-1.04637e-13 1.39275 0
2.10355e-13 1.41377 0
1.86262e-13 1.41377 0
-1.04637e-13 1.39275 0
-1.23427e-13 1.39275 0
0 1.39275 0
1.76928e-13 1.39275 0
0 1.37291 0
-3.06293e-13 1.37291 0
1.76928e-13 1.39275 0
-8.41799e-14 1.39275 0
-3.06293e-13 1.37291 0
3.72327e-14 1.37291 0
1.86262e-13 1.41377 0
-6.75667e-13 1.41377 0
-1.23427e-13 1.39275 0
6.49738e-13 1.39275 0
-6.75667e-13 1.41377 0
2.38911e-13 1.41377 0
6.49738e-13 1.39275 0
-1.44781e-13 1.39275 0
-8.41799e-14 1.39275 0
4.36178e-13 1.39275 0
3.72327e-14 1.37291 0
-2.0392e-13 1.37291 0
4.36178e-13 1.39275 0
-7.15514e-14 1.39275 0
-2.0392e-13 1.37291 0
3.17496e-14 1.37291 0
0 1.37291 0
-4.27223e-13 1.37291 0
0 1.35423 0
6.27855e-14 1.35423 0
-4.27223e-13 1.37291 0
-1.8726e-13 1.37291 0
6.27855e-14 1.35423 0
1.51744e-13 1.35423 0
0 1.35423 0
2.36244e-13 1.35423 0
0 1.33661 0
-1.2964e-13 1.33661 0
2.36244e-13 1.35423 0
2.28549e-13 1.35423 0
-1.2964e-13 1.33661 0
-1.7237e-13 1.33661 0
-1.8726e-13 1.37291 0
-1.72781e-13 1.37291 0
1.51744e-13 1.35423 0
2.55971e-13 1.35423 0
-1.72781e-13 1.37291 0
1.72642e-14 1.37291 0
2.55971e-13 1.35423 0
6.66681e-15 1.35423 0
2.28549e-13 1.35423 0
1.19503e-13 1.35423 0
-1.7237e-13 1.33661 0
4.08536e-14 1.33661 0
1.19503e-13 1.35423 0
-6.58534e-14 1.35423 0
4.08536e-14 1.33661 0
1.26248e-13 1.33661 0
2.38911e-13 1.41377 0
5.83319e-13 1.41377 0
-1.44781e-13 1.39275 0
-5.17701e-13 1.39275 0
5.83319e-13 1.41377 0
-4.88103e-13 1.41377 0
-5.17701e-13 1.39275 0
6.19586e-13 1.39275 0
-7.15514e-14 1.39275 0
-5.73467e-13 1.39275 0
3.17496e-14 1.37291 0
4.22923e-13 1.37291 0
-5.73467e-13 1.39275 0
1.90735e-13 1.39275 0
4.22923e-13 1.37291 0
-3.26645e-14 1.37291 0
-4.88103e-13 1.41377 0
-3.83093e-13 1.41377 0
6.19586e-13 1.39275 0
3.18684e-13 1.39275 0
-3.83093e-13 1.41377 0
1.35606e-13 1.41377 0
3.18684e-13 1.39275 0
-2.48875e-13 1.39275 0
1.90735e-13 1.39275 0
3.76711e-13 1.39275 0
-3.26645e-14 1.37291 0
-2.74215e-13 1.37291 0
3.76711e-13 1.39275 0
-1.48313e-13 1.39275 0
-2.74215e-13 1.37291 0
-4.00938e-14 1.37291 0
1.72642e-14 1.37291 0
5.36048e-13 1.37291 0
6.66681e-15 1.35423 0
-5.52183e-13 1.35423 0
5.36048e-13 1.37291 0
5.38289e-14 1.37291 0
-5.52183e-13 1.35423 0
1.29357e-13 1.35423 0
-6.58534e-14 1.35423 0
-6.13304e-13 1.35423 0
1.26248e-13 1.33661 0
3.90977e-13 1.33661 0
-6.13304e-13 1.35423 0
2.91704e-13 1.35423 0
3.90977e-13 1.33661 0
-1.75767e-13 1.33661 0
5.38289e-14 1.37291 0
-1.23669e-13 1.37291 0
1.29357e-13 1.35423 0
2.8994e-13 1.35423 0
-1.23669e-13 1.37291 0
6.81161e-14 1.37291 0
2.8994e-13 1.35423 0
-4.02843e-13 1.35423 0
2.91704e-13 1.35423 0
6.3362e-13 1.35423 0
-1.75767e-13 1.33661 0
-7.00449e-13 1.33661 0
6.3362e-13 1.35423 0
-7.36844e-13 1.35423 0
-7.00449e-13 1.33661 0
8.70377e-13 1.33661 0
0 1.33661 0
-5.41725e-13 1.33661 0
0 1.32 0
4.81299e-13 1.32 0
-5.41725e-13 1.33661 0
-1.76392e-13 1.33661 0
4.81299e-13 1.32 0
1.97476e-13 1.32 0
0 1.32 0
2.37806e-13 1.32 0
0 1.30433 0
1.6093e-13 1.30433 0
2.37806e-13 1.32 0
4.74806e-14 1.32 0
1.6093e-13 1.30433 0
9.35007e-14 1.30433 0
-1.76392e-13 1.33661 0
4.41457e-13 1.33661 0
1.97476e-13 1.32 0
-3.30477e-13 1.32 0
4.41457e-13 1.33661 0
1.21603e-13 1.33661 0
-3.30477e-13 1.32 0
3.29967e-14 1.32 0
4.74806e-14 1.32 0
-2.14905e-13 1.32 0
9.35007e-14 1.30433 0
-2.42559e-13 1.30433 0
-2.14905e-13 1.32 0
1.93651e-13 1.32 0
-2.42559e-13 1.30433 0
-3.25804e-14 1.30433 0
0 1.30433 0
2.88304e-13 1.30433 0
0 1.28956 0
-5.9244e-14 1.28956 0
2.88304e-13 1.30433 0
4.86882e-13 1.30433 0
-5.9244e-14 1.28956 0
-5.59345e-13 1.28956 0
0 1.28956 0
-9.60802e-14 1.28956 0
0 1.27562 0
1.11185e-13 1.27562 0
-9.60802e-14 1.28956 0
-7.79917e-13 1.28956 0
1.11185e-13 1.27562 0
2.67434e-13 1.27562 0
4.86882e-13 1.30433 0
-5.96684e-13 1.30433 0
-5.59345e-13 1.28956 0
5.67709e-13 1.28956 0
-5.96684e-13 1.30433 0
-1.02458e-13 1.30433 0
5.67709e-13 1.28956 0
1.4122e-13 1.28956 0
-7.79917e-13 1.28956 0
6.40257e-13 1.28956 0
2.67434e-13 1.27562 0
-4.68571e-13 1.27562 0
6.40257e-13 1.28956 0
2.38209e-13 1.28956 0
-4.68571e-13 1.27562 0
-3.10809e-13 1.27562 0
1.21603e-13 1.33661 0
3.93675e-13 1.33661 0
3.29967e-14 1.32 0
-4.74687e-13 1.32 0
3.93675e-13 1.33661 0
-2.91361e-13 1.33661 0
-4.74687e-13 1.32 0
2.90618e-13 1.32 0
1.93651e-13 1.32 0
-2.31194e-13 1.32 0
-3.25804e-14 1.30433 0
-5.56852e-15 1.30433 0
-2.31194e-13 1.32 0
3.43605e-13 1.32 0
-5.56852e-15 1.30433 0
-1.16802e-13 1.30433 0
-2.91361e-13 1.33661 0
-5.11052e-13 1.33661 0
2.90618e-13 1.32 0
3.5374e-13 1.32 0
-5.11052e-13 1.33661 0
6.06867e-13 1.33661 0
3.5374e-13 1.32 0
-3.53623e-13 1.32 0
3.43605e-13 1.32 0
-7.63671e-14 1.32 0
-1.16802e-13 1.30433 0
2.44374e-13 1.30433 0
-7.63671e-14 1.32 0
-3.99963e-13 1.32 0
2.44374e-13 1.30433 0
2.96541e-13 1.30433 0
-1.02458e-13 1.30433 0
-8.01265e-14 1.30433 0
1.4122e-13 1.28956 0
-1.77365e-13 1.28956 0
-8.01265e-14 1.30433 0
-4.04859e-14 1.30433 0
-1.77365e-13 1.28956 0
5.31112e-14 1.28956 0
2.38209e-13 1.28956 0
-2.41279e-13 1.28956 0
-3.10809e-13 1.27562 0
9.30913e-14 1.27562 0
-2.41279e-13 1.28956 0
4.25224e-14 1.28956 0
9.30913e-14 1.27562 0
5.98479e-14 1.27562 0
-4.04859e-14 1.30433 0
2.31159e-13 1.30433 0
5.31112e-14 1.28956 0
-2.79868e-15 1.28956 0
2.31159e-13 1.30433 0
3.57538e-13 1.30433 0
-2.79868e-15 1.28956 0
-2.21075e-13 1.28956 0
4.25224e-14 1.28956 0
1.76364e-13 1.28956 0
5.98479e-14 1.27562 0
-9.90427e-14 1.27562 0
1.76364e-13 1.28956 0
-1.59202e-13 1.28956 0
-9.90427e-14 1.27562 0
3.88988e-14 1.27562 0
1.35606e-13 1.41377 0
3.36337e-14 1.41377 0
-2.48875e-13 1.39275 0
-2.53833e-14 1.39275 0
3.36337e-14 1.41377 0
1.34238e-13 1.41377 0
-2.53833e-14 1.39275 0
-1.52955e-13 1.39275 0
-1.48313e-13 1.39275 0
1.94465e-13 1.39275 0
-4.00938e-14 1.37291 0
1.04492e-13 1.37291 0
1.94465e-13 1.39275 0
-4.16976e-13 1.39275 0
1.04492e-13 1.37291 0
2.6263e-13 1.37291 0
1.34238e-13 1.41377 0
-1.30861e-13 1.41377 0
-1.52955e-13 1.39275 0
1.6633e-13 1.39275 0
-1.30861e-13 1.41377 0
-6.23586e-13 1.41377 0
1.6633e-13 1.39275 0
5.30054e-13 1.39275 0
-4.16976e-13 1.39275 0
1.54511e-13 1.39275 0
2.6263e-13 1.37291 0
-9.39684e-14 1.37291 0
1.54511e-13 1.39275 0
5.30074e-13 1.39275 0
-9.39684e-14 1.37291 0
-5.15559e-13 1.37291 0
6.81161e-14 1.37291 0
9.36085e-15 1.37291 0
-4.02843e-13 1.35423 0
-1.94867e-14 1.35423 0
9.36085e-15 1.37291 0
-1.80083e-13 1.37291 0
-1.94867e-14 1.35423 0
7.42208e-14 1.35423 0
-7.36844e-13 1.35423 0
-2.61214e-13 1.35423 0
8.70377e-13 1.33661 0
3.12184e-13 1.33661 0
-2.61214e-13 1.35423 0
3.8973e-13 1.35423 0
3.12184e-13 1.33661 0
-3.39871e-13 1.33661 0
-1.80083e-13 1.37291 0
1.97017e-13 1.37291 0
7.42208e-14 1.35423 0
3.29166e-14 1.35423 0
1.97017e-13 1.37291 0
-5.99402e-14 1.37291 0
3.29166e-14 1.35423 0
3.56239e-14 1.35423 0
3.8973e-13 1.35423 0
-2.33184e-13 1.35423 0
-3.39871e-13 1.33661 0
4.71824e-13 1.33661 0
-2.33184e-13 1.35423 0
8.88842e-14 1.35423 0
4.71824e-13 1.33661 0
-5.23124e-13 1.33661 0
-6.23586e-13 1.41377 0
1.0116e-12 1.41377 0
5.30054e-13 1.39275 0
-7.50228e-13 1.39275 0
1.0116e-12 1.41377 0
-2.8897e-13 1.41377 0
-7.50228e-13 1.39275 0
3.19674e-13 1.39275 0
5.30074e-13 1.39275 0
2.61773e-13 1.39275 0
-5.15559e-13 1.37291 0
-1.01479e-13 1.37291 0
2.61773e-13 1.39275 0
-2.96725e-13 1.39275 0
-1.01479e-13 1.37291 0
1.87588e-13 1.37291 0
-2.8897e-13 1.41377 0
-2.19834e-13 1.41377 0
3.19674e-13 1.39275 0
3.10157e-14 1.39275 0
-2.19834e-13 1.41377 0
8.6984e-13 1.41377 0
3.10157e-14 1.39275 0
-5.48549e-13 1.39275 0
-2.96725e-13 1.39275 0
-2.4562e-13 1.39275 0
1.87588e-13 1.37291 0
-1.97009e-14 1.37291 0
-2.4562e-13 1.39275 0
-3.76474e-13 1.39275 0
-1.97009e-14 1.37291 0
5.39227e-13 1.37291 0
-5.99402e-14 1.37291 0
-3.7133e-13 1.37291 0
3.56239e-14 1.35423 0
6.48366e-13 1.35423 0
-3.7133e-13 1.37291 0
4.37891e-13 1.37291 0
6.48366e-13 1.35423 0
-5.62146e-13 1.35423 0
8.88842e-14 1.35423 0
5.44122e-14 1.35423 0
-5.23124e-13 1.33661 0
-2.42727e-14 1.33661 0
5.44122e-14 1.35423 0
-8.35948e-14 1.35423 0
-2.42727e-14 1.33661 0
5.11923e-13 1.33661 0
4.37891e-13 1.37291 0
2.01445e-13 1.37291 0
-5.62146e-13 1.35423 0
6.83832e-14 1.35423 0
2.01445e-13 1.37291 0
1.46315e-13 1.37291 0
6.83832e-14 1.35423 0
3.37748e-14 1.35423 0
-8.35948e-14 1.35423 0
6.86112e-14 1.35423 0
5.11923e-13 1.33661 0
-6.19821e-13 1.33661 0
6.86112e-14 1.35423 0
2.39454e-13 1.35423 0
-6.19821e-13 1.33661 0
6.81789e-14 1.33661 0
6.06867e-13 1.33661 0
-2.84552e-14 1.33661 0
-3.53623e-13 1.32 0
-5.43356e-14 1.32 0
-2.84552e-14 1.33661 0
-1.54042e-13 1.33661 0
-5.43356e-14 1.32 0
-4.75218e-15 1.32 0
-3.99963e-13 1.32 0
4.51533e-14 1.32 0
2.96541e-13 1.30433 0
-1.42674e-13 1.30433 0
4.51533e-14 1.32 0
3.04859e-13 1.32 0
-1.42674e-13 1.30433 0
-1.93512e-13 1.30433 0
-1.54042e-13 1.33661 0
5.55698e-13 1.33661 0
-4.75218e-15 1.32 0
-4.89299e-13 1.32 0
5.55698e-13 1.33661 0
-6.51612e-13 1.33661 0
-4.89299e-13 1.32 0
7.23121e-13 1.32 0
3.04859e-13 1.32 0
-6.31933e-14 1.32 0
-1.93512e-13 1.30433 0
3.01285e-13 1.30433 0
-6.31933e-14 1.32 0
4.43076e-13 1.32 0