# vtk DataFile Version 3.0
#This file was generated by the deal.II library on 2018/10/15 at 21:26:02
ASCII
DATASET UNSTRUCTURED_GRID

POINTS 20480 double
0 0 0
0.19635 0 0
0 0.295288 0
0.19635 0.295288 0
0.19635 0 0
0.392699 0 0
0.19635 0.295288 0
0.392699 0.295288 0
0 0.295288 0
0.19635 0.295288 0
0 0.606899 0
0.19635 0.606899 0
0.19635 0.295288 0
0.392699 0.295288 0
0.19635 0.606899 0
0.392699 0.606899 0
0.392699 0 0
0.589049 0 0
0.392699 0.295288 0
0.589049 0.295288 0
0.589049 0 0
0.785398 0 0
0.589049 0.295288 0
0.785398 0.295288 0
0.392699 0.295288 0
0.589049 0.295288 0
0.392699 0.606899 0
0.589049 0.606899 0
0.589049 0.295288 0
0.785398 0.295288 0
0.589049 0.606899 0
0.785398 0.606899 0
0 0.606899 0
0.19635 0.606899 0
0 0.919843 0
0.19635 0.919843 0
0.19635 0.606899 0
0.392699 0.606899 0
0.19635 0.919843 0
0.392699 0.919843 0
0 0.919843 0
0.19635 0.919843 0
0 1.23322 0
0.19635 1.23322 0
0.19635 0.919843 0
0.392699 0.919843 0
0.19635 1.23322 0
0.392699 1.23322 0
0.392699 0.606899 0
0.589049 0.606899 0
0.392699 0.919843 0
0.589049 0.919843 0
0.589049 0.606899 0
0.785398 0.606899 0
0.589049 0.919843 0
0.785398 0.919843 0
0.392699 0.919843 0
0.589049 0.919843 0
0.392699 1.23322 0
0.589049 1.23322 0
0.589049 0.919843 0
0.785398 0.919843 0
0.589049 1.23322 0
0.785398 1.23322 0
0.785398 0 0
0.981748 0 0
0.785398 0.295288 0
0.981748 0.295288 0
0.981748 0 0
1.1781 0 0
0.981748 0.295288 0
1.1781 0.295288 0
0.785398 0.295288 0
0.981748 0.295288 0
0.785398 0.606899 0
0.981748 0.606899 0
0.981748 0.295288 0
1.1781 0.295288 0
0.981748 0.606899 0
1.1781 0.606899 0
1.1781 0 0
1.37445 0 0
1.1781 0.295288 0
1.37445 0.295288 0
1.37445 0 0
1.5708 0 0
1.37445 0.295288 0
1.5708 0.295288 0
1.1781 0.295288 0
1.37445 0.295288 0
1.1781 0.606899 0
1.37445 0.606899 0
1.37445 0.295288 0
1.5708 0.295288 0
1.37445 0.606899 0
1.5708 0.606899 0
0.785398 0.606899 0
0.981748 0.606899 0
0.785398 0.919843 0
0.981748 0.919843 0
0.981748 0.606899 0
1.1781 0.606899 0
0.981748 0.919843 0
1.1781 0.919843 0
0.785398 0.919843 0
0.981748 0.919843 0
0.785398 1.23322 0
0.981748 1.23322 0
0.981748 0.919843 0
1.1781 0.919843 0
0.981748 1.23322 0
1.1781 1.23322 0
1.1781 0.606899 0
1.37445 0.606899 0
1.1781 0.919843 0
1.37445 0.919843 0
1.37445 0.606899 0
1.5708 0.606899 0
1.37445 0.919843 0
1.5708 0.919843 0
1.1781 0.919843 0
1.37445 0.919843 0
1.1781 1.23322 0
1.37445 1.23322 0
1.37445 0.919843 0
1.5708 0.919843 0
1.37445 1.23322 0
1.5708 1.23322 0
0 1.23322 0
0.19635 1.23322 0
0 1.54653 0
0.19635 1.54653 0
0.19635 1.23322 0
0.392699 1.23322 0
0.19635 1.54653 0
0.392699 1.54653 0
0 1.54653 0
0.19635 1.54653 0
0 1.85983 0
0.19635 1.85983 0
0.19635 1.54653 0
0.392699 1.54653 0
0.19635 1.85983 0
0.392699 1.85983 0
0.392699 1.23322 0
0.589049 1.23322 0
0.392699 1.54653 0
0.589049 1.54653 0
0.589049 1.23322 0
0.785398 1.23322 0
0.589049 1.54653 0
0.785398 1.54653 0
0.392699 1.54653 0
0.589049 1.54653 0
0.392699 1.85983 0
0.589049 1.85983 0
0.589049 1.54653 0
0.785398 1.54653 0
0.589049 1.85983 0
0.785398 1.85983 0
0 1.85983 0
0.19635 1.85983 0
0 2.17311 0
0.19635 2.17311 0
0.19635 1.85983 0
0.392699 1.85983 0
0.19635 2.17311 0
0.392699 2.17311 0
0 2.17311 0
0.19635 2.17311 0
0 2.48636 0
0.19635 2.48636 0
0.19635 2.17311 0
0.392699 2.17311 0
0.19635 2.48636 0
0.392699 2.48636 0
0.392699 1.85983 0
0.589049 1.85983 0
0.392699 2.17311 0
0.589049 2.17311 0
0.589049 1.85983 0
0.785398 1.85983 0
0.589049 2.17311 0
0.785398 2.17311 0
0.392699 2.17311 0
0.589049 2.17311 0
0.392699 2.48636 0
0.589049 2.48636 0
0.589049 2.17311 0
0.785398 2.17311 0
0.589049 2.48636 0
0.785398 2.48636 0
0.785398 1.23322 0
0.981748 1.23322 0
0.785398 1.54653 0
0.981748 1.54653 0
0.981748 1.23322 0
1.1781 1.23322 0
0.981748 1.54653 0
1.1781 1.54653 0
0.785398 1.54653 0
0.981748 1.54653 0
0.785398 1.85983 0
0.981748 1.85983 0
0.981748 1.54653 0
1.1781 1.54653 0
0.981748 1.85983 0
1.1781 1.85983 0
1.1781 1.23322 0
1.37445 1.23322 0
1.1781 1.54653 0
1.37445 1.54653 0
1.37445 1.23322 0
1.5708 1.23322 0
1.37445 1.54653 0
1.5708 1.54653 0
1.1781 1.54653 0
1.37445 1.54653 0
1.1781 1.85983 0
1.37445 1.85983 0
1.37445 1.54653 0
1.5708 1.54653 0
1.37445 1.85983 0
1.5708 1.85983 0
0.785398 1.85983 0
0.981748 1.85983 0
0.785398 2.17311 0
0.981748 2.17311 0
0.981748 1.85983 0
1.1781 1.85983 0
0.981748 2.17311 0
1.1781 2.17311 0
0.785398 2.17311 0
0.981748 2.17311 0
0.785398 2.48636 0
0.981748 2.48636 0
0.981748 2.17311 0
1.1781 2.17311 0
0.981748 2.48636 0
1.1781 2.48636 0
1.1781 1.85983 0
1.37445 1.85983 0
1.1781 2.17311 0
1.37445 2.17311 0
1.37445 1.85983 0
1.5708 1.85983 0
1.37445 2.17311 0
1.5708 2.17311 0
1.1781 2.17311 0
1.37445 2.17311 0
1.1781 2.48636 0
1.37445 2.48636 0
1.37445 2.17311 0
1.5708 2.17311 0
1.37445 2.48636 0
1.5708 2.48636 0
1.5708 0 0
1.76715 0 0
1.5708 0.295288 0
1.76715 0.295288 0
1.76715 0 0
1.9635 0 0
1.76715 0.295288 0
1.9635 0.295288 0
1.5708 0.295288 0
1.76715 0.295288 0
1.5708 0.606899 0
1.76715 0.606899 0
1.76715 0.295288 0
1.9635 0.295288 0
1.76715 0.606899 0
1.9635 0.606899 0
1.9635 0 0
2.15984 0 0
1.9635 0.295288 0
2.15984 0.295288 0
2.15984 0 0
2.35619 0 0
2.15984 0.295288 0
2.35619 0.295288 0
1.9635 0.295288 0
2.15984 0.295288 0
1.9635 0.606899 0
2.15984 0.606899 0
2.15984 0.295288 0
2.35619 0.295288 0
2.15984 0.606899 0
2.35619 0.606899 0
1.5708 0.606899 0
1.76715 0.606899 0
1.5708 0.919843 0
1.76715 0.919843 0
1.76715 0.606899 0
1.9635 0.606899 0
1.76715 0.919843 0
1.9635 0.919843 0
1.5708 0.919843 0
1.76715 0.919843 0
1.5708 1.23322 0
1.76715 1.23322 0
1.76715 0.919843 0
1.9635 0.919843 0
1.76715 1.23322 0
1.9635 1.23322 0
1.9635 0.606899 0
2.15984 0.606899 0
1.9635 0.919843 0
2.15984 0.919843 0
2.15984 0.606899 0
2.35619 0.606899 0
2.15984 0.919843 0
2.35619 0.919843 0
1.9635 0.919843 0
2.15984 0.919843 0
1.9635 1.23322 0
2.15984 1.23322 0
2.15984 0.919843 0
2.35619 0.919843 0
2.15984 1.23322 0
2.35619 1.23322 0
2.35619 0 0
2.55254 0 0
2.35619 0.295288 0
2.55254 0.295288 0
2.55254 0 0
2.74889 0 0
2.55254 0.295288 0
2.74889 0.295288 0
2.35619 0.295288 0
2.55254 0.295288 0
2.35619 0.606899 0
2.55254 0.606899 0
2.55254 0.295288 0
2.74889 0.295288 0
2.55254 0.606899 0
2.74889 0.606899 0
2.74889 0 0
2.94524 0 0
2.74889 0.295288 0
2.94524 0.295288 0
2.94524 0 0
3.14159 0 0
2.94524 0.295288 0
3.14159 0.295288 0
2.74889 0.295288 0
2.94524 0.295288 0
2.74889 0.606899 0
2.94524 0.606899 0
2.94524 0.295288 0
3.14159 0.295288 0
2.94524 0.606899 0
3.14159 0.606899 0
2.35619 0.606899 0
2.55254 0.606899 0
2.35619 0.919843 0
2.55254 0.919843 0
2.55254 0.606899 0
2.74889 0.606899 0
2.55254 0.919843 0
2.74889 0.919843 0
2.35619 0.919843 0
2.55254 0.919843 0
2.35619 1.23322 0
2.55254 1.23322 0
2.55254 0.919843 0
2.74889 0.919843 0
2.55254 1.23322 0
2.74889 1.23322 0
2.74889 0.606899 0
2.94524 0.606899 0
2.74889 0.919843 0
2.94524 0.919843 0
2.94524 0.606899 0
3.14159 0.606899 0
2.94524 0.919843 0
3.14159 0.919843 0
2.74889 0.919843 0
2.94524 0.919843 0
2.74889 1.23322 0
2.94524 1.23322 0
2.94524 0.919843 0
3.14159 0.919843 0
2.94524 1.23322 0
3.14159 1.23322 0
1.5708 1.23322 0
1.76715 1.23322 0
1.5708 1.54653 0
1.76715 1.54653 0
1.76715 1.23322 0
1.9635 1.23322 0
1.76715 1.54653 0
1.9635 1.54653 0
1.5708 1.54653 0
1.76715 1.54653 0
1.5708 1.85983 0
1.76715 1.85983 0
1.76715 1.54653 0
1.9635 1.54653 0
1.76715 1.85983 0
1.9635 1.85983 0
1.9635 1.23322 0
2.15984 1.23322 0
1.9635 1.54653 0
2.15984 1.54653 0
2.15984 1.23322 0
2.35619 1.23322 0
2.15984 1.54653 0
2.35619 1.54653 0
1.9635 1.54653 0
2.15984 1.54653 0
1.9635 1.85983 0
2.15984 1.85983 0
2.15984 1.54653 0
2.35619 1.54653 0
2.15984 1.85983 0
2.35619 1.85983 0
1.5708 1.85983 0
1.76715 1.85983 0
1.5708 2.17311 0
1.76715 2.17311 0
1.76715 1.85983 0
1.9635 1.85983 0
1.76715 2.17311 0
1.9635 2.17311 0
1.5708 2.17311 0
1.76715 2.17311 0
1.5708 2.48636 0
1.76715 2.48636 0
1.76715 2.17311 0
1.9635 2.17311 0
1.76715 2.48636 0
1.9635 2.48636 0
1.9635 1.85983 0
2.15984 1.85983 0
1.9635 2.17311 0
2.15984 2.17311 0
2.15984 1.85983 0
2.35619 1.85983 0
2.15984 2.17311 0
2.35619 2.17311 0
1.9635 2.17311 0
2.15984 2.17311 0
1.9635 2.48636 0
2.15984 2.48636 0
2.15984 2.17311 0
2.35619 2.17311 0
2.15984 2.48636 0
2.35619 2.48636 0
2.35619 1.23322 0
2.55254 1.23322 0
2.35619 1.54653 0
2.55254 1.54653 0
2.55254 1.23322 0
2.74889 1.23322 0
2.55254 1.54653 0
2.74889 1.54653 0
2.35619 1.54653 0
2.55254 1.54653 0
2.35619 1.85983 0
2.55254 1.85983 0
2.55254 1.54653 0
2.74889 1.54653 0
2.55254 1.85983 0
2.74889 1.85983 0
2.74889 1.23322 0
2.94524 1.23322 0
2.74889 1.54653 0
2.94524 1.54653 0
2.94524 1.23322 0
3.14159 1.23322 0
2.94524 1.54653 0
3.14159 1.54653 0
2.74889 1.54653 0
2.94524 1.54653 0
2.74889 1.85983 0
2.94524 1.85983 0
2.94524 1.54653 0
3.14159 1.54653 0
2.94524 1.85983 0
3.14159 1.85983 0
2.35619 1.85983 0
2.55254 1.85983 0
2.35619 2.17311 0
2.55254 2.17311 0
2.55254 1.85983 0
2.74889 1.85983 0
2.55254 2.17311 0
2.74889 2.17311 0
2.35619 2.17311 0
2.55254 2.17311 0
2.35619 2.48636 0
2.55254 2.48636 0
2.55254 2.17311 0
2.74889 2.17311 0
2.55254 2.48636 0
2.74889 2.48636 0
2.74889 1.85983 0
2.94524 1.85983 0
2.74889 2.17311 0
2.94524 2.17311 0
2.94524 1.85983 0
3.14159 1.85983 0
2.94524 2.17311 0
3.14159 2.17311 0
2.74889 2.17311 0
2.94524 2.17311 0
2.74889 2.48636 0
2.94524 2.48636 0
2.94524 2.17311 0
3.14159 2.17311 0
2.94524 2.48636 0
3.14159 2.48636 0
0 2.48636 0
0.19635 2.48636 0
0 2.79958 0
0.19635 2.79958 0
0.19635 2.48636 0
0.392699 2.48636 0
0.19635 2.79958 0
0.392699 2.79958 0
0 2.79958 0
0.19635 2.79958 0
0 3.11278 0
0.19635 3.11278 0
0.19635 2.79958 0
0.392699 2.79958 0
0.19635 3.11278 0
0.392699 3.11278 0
0.392699 2.48636 0
0.589049 2.48636 0
0.392699 2.79958 0
0.589049 2.79958 0
0.589049 2.48636 0
0.785398 2.48636 0
0.589049 2.79958 0
0.785398 2.79958 0
0.392699 2.79958 0
0.589049 2.79958 0
0.392699 3.11278 0
0.589049 3.11278 0
0.589049 2.79958 0
0.785398 2.79958 0
0.589049 3.11278 0
0.785398 3.11278 0
0 3.11278 0
0.19635 3.11278 0
0 3.42596 0
0.19635 3.42596 0
0.19635 3.11278 0
0.392699 3.11278 0
0.19635 3.42596 0
[...]
POINT_DATA 20480
VECTORS uf double
0 1 0
-1.98512e-13 1 0
0 1.53471 0
2.88092e-13 1.53471 0
-1.98512e-13 1 0
-6.41489e-14 1 0
2.88092e-13 1.53471 0
1.26434e-13 1.53471 0
0 1.53471 0
1.55822e-13 1.53471 0
0 1.50101 0
2.27503e-14 1.50101 0
1.55822e-13 1.53471 0
-5.55126e-14 1.53471 0
2.27503e-14 1.50101 0
1.57676e-13 1.50101 0
-6.41489e-14 1 0
1.65782e-13 1 0
1.26434e-13 1.53471 0
-3.26101e-13 1.53471 0
1.65782e-13 1 0
-1.84571e-13 1 0
-3.26101e-13 1.53471 0
3.39844e-13 1.53471 0
-5.55126e-14 1.53471 0
-6.29003e-13 1.53471 0
1.57676e-13 1.50101 0
6.94459e-13 1.50101 0
-6.29003e-13 1.53471 0
7.09573e-14 1.53471 0
6.94459e-13 1.50101 0
1.53746e-13 1.50101 0
0 1.50101 0
2.27402e-13 1.50101 0
0 1.48635 0
-1.21772e-13 1.48635 0
2.27402e-13 1.50101 0
2.11349e-13 1.50101 0
-1.21772e-13 1.48635 0
-2.6637e-13 1.48635 0
0 1.48635 0
-2.35052e-14 1.48635 0
0 1.45907 0
-5.88318e-14 1.45907 0
-2.35052e-14 1.48635 0
-1.92536e-13 1.48635 0
-5.88318e-14 1.45907 0
2.79975e-13 1.45907 0
2.11349e-13 1.50101 0
5.63006e-13 1.50101 0
-2.6637e-13 1.48635 0
-2.93096e-13 1.48635 0
5.63006e-13 1.50101 0
1.0803e-13 1.50101 0
-2.93096e-13 1.48635 0
2.20443e-13 1.48635 0
-1.92536e-13 1.48635 0
2.73699e-13 1.48635 0
2.79975e-13 1.45907 0
-5.03521e-13 1.45907 0
2.73699e-13 1.48635 0
2.24345e-13 1.48635 0
-5.03521e-13 1.45907 0
2.595e-13 1.45907 0
-1.84571e-13 1 0
-2.4801e-13 1 0
3.39844e-13 1.53471 0
3.90006e-13 1.53471 0
-2.4801e-13 1 0
8.46261e-14 1 0
3.90006e-13 1.53471 0
-1.14908e-13 1.53471 0
7.09573e-14 1.53471 0
5.47943e-13 1.53471 0
1.53746e-13 1.50101 0
-3.97342e-13 1.50101 0
5.47943e-13 1.53471 0
4.13192e-13 1.53471 0
-3.97342e-13 1.50101 0
-6.25021e-13 1.50101 0
8.46261e-14 1 0
7.18555e-13 1 0
-1.14908e-13 1.53471 0
-1.26789e-12 1.53471 0
7.18555e-13 1 0
4.1949e-13 1 0
-1.26789e-12 1.53471 0
-6.38632e-13 1.53471 0
4.13192e-13 1.53471 0
-9.53331e-13 1.53471 0
-6.25021e-13 1.50101 0
3.7234e-13 1.50101 0
-9.53331e-13 1.53471 0
-5.28668e-13 1.53471 0
3.7234e-13 1.50101 0
1.80385e-13 1.50101 0
1.0803e-13 1.50101 0
-3.73906e-13 1.50101 0
2.20443e-13 1.48635 0
1.8123e-13 1.48635 0
-3.73906e-13 1.50101 0
-4.76808e-13 1.50101 0
1.8123e-13 1.48635 0
2.2465e-13 1.48635 0
2.24345e-13 1.48635 0
-2.49661e-14 1.48635 0
2.595e-13 1.45907 0
-1.72724e-13 1.45907 0
-2.49661e-14 1.48635 0
-2.06446e-13 1.48635 0
-1.72724e-13 1.45907 0
1.93198e-13 1.45907 0
-4.76808e-13 1.50101 0
-1.88108e-13 1.50101 0
2.2465e-13 1.48635 0
-7.32522e-14 1.48635 0
-1.88108e-13 1.50101 0
8.75751e-14 1.50101 0
-7.32522e-14 1.48635 0
-3.64664e-13 1.48635 0
-2.06446e-13 1.48635 0
-6.28023e-14 1.48635 0
1.93198e-13 1.45907 0
-1.53742e-14 1.45907 0
-6.28023e-14 1.48635 0
5.5404e-14 1.48635 0
-1.53742e-14 1.45907 0
-2.90283e-13 1.45907 0
0 1.45907 0
-1.20643e-13 1.45907 0
0 1.43678 0
2.56004e-13 1.43678 0
-1.20643e-13 1.45907 0
4.74847e-13 1.45907 0
2.56004e-13 1.43678 0
-6.05347e-13 1.43678 0
0 1.43678 0
3.83954e-13 1.43678 0
0 1.41453 0
-3.43906e-13 1.41453 0
3.83954e-13 1.43678 0
-5.65145e-13 1.43678 0
-3.43906e-13 1.41453 0
2.59047e-13 1.41453 0
4.74847e-13 1.45907 0
-4.38773e-13 1.45907 0
-6.05347e-13 1.43678 0
4.32575e-13 1.43678 0
-4.38773e-13 1.45907 0
2.56853e-13 1.45907 0
4.32575e-13 1.43678 0
1.12883e-14 1.43678 0
-5.65145e-13 1.43678 0
2.29095e-13 1.43678 0
2.59047e-13 1.41453 0
-4.39811e-14 1.41453 0
2.29095e-13 1.43678 0
3.64475e-14 1.43678 0
-4.39811e-14 1.41453 0
1.33033e-13 1.41453 0
0 1.41453 0
-1.82257e-13 1.41453 0
0 1.39381 0
-8.10981e-14 1.39381 0
-1.82257e-13 1.41453 0
1.16894e-13 1.41453 0
-8.10981e-14 1.39381 0
2.55221e-15 1.39381 0
0 1.39381 0
-2.86899e-13 1.39381 0
0 1.3741 0
1.65411e-13 1.3741 0
-2.86899e-13 1.39381 0
-8.24623e-14 1.39381 0
1.65411e-13 1.3741 0
8.9791e-14 1.3741 0
1.16894e-13 1.41453 0
1.03667e-13 1.41453 0
2.55221e-15 1.39381 0
-2.46063e-14 1.39381 0
1.03667e-13 1.41453 0
3.06331e-13 1.41453 0
-2.46063e-14 1.39381 0
-1.78779e-13 1.39381 0
-8.24623e-14 1.39381 0
1.34465e-13 1.39381 0
8.9791e-14 1.3741 0
-4.48206e-13 1.3741 0
1.34465e-13 1.39381 0
-1.87023e-13 1.39381 0
-4.48206e-13 1.3741 0
2.59925e-13 1.3741 0
2.56853e-13 1.45907 0
-2.37341e-14 1.45907 0
1.12883e-14 1.43678 0
-5.55018e-14 1.43678 0
-2.37341e-14 1.45907 0
5.96355e-14 1.45907 0
-5.55018e-14 1.43678 0
-1.08947e-13 1.43678 0
3.64475e-14 1.43678 0
-2.9509e-13 1.43678 0
1.33033e-13 1.41453 0
2.39685e-13 1.41453 0
-2.9509e-13 1.43678 0
9.87045e-14 1.43678 0
2.39685e-13 1.41453 0
-2.40268e-13 1.41453 0
5.96355e-14 1.45907 0
-3.78284e-13 1.45907 0
-1.08947e-13 1.43678 0
1.59767e-13 1.43678 0
-3.78284e-13 1.45907 0
-4.76624e-13 1.45907 0
1.59767e-13 1.43678 0
3.78679e-13 1.43678 0
9.87045e-14 1.43678 0
1.96274e-14 1.43678 0
-2.40268e-13 1.41453 0
-2.26655e-14 1.41453 0
1.96274e-14 1.43678 0
2.88124e-13 1.43678 0
-2.26655e-14 1.41453 0
-3.4807e-13 1.41453 0
3.06331e-13 1.41453 0
1.91931e-13 1.41453 0
-1.78779e-13 1.39381 0
-1.586e-13 1.39381 0
1.91931e-13 1.41453 0
-3.11603e-13 1.41453 0
-1.586e-13 1.39381 0
-1.0943e-14 1.39381 0
-1.87023e-13 1.39381 0
-1.64254e-13 1.39381 0
2.59925e-13 1.3741 0
3.26156e-13 1.3741 0
-1.64254e-13 1.39381 0
-8.83329e-14 1.39381 0
3.26156e-13 1.3741 0
-9.85526e-14 1.3741 0
-3.11603e-13 1.41453 0
-5.47255e-13 1.41453 0
-1.0943e-14 1.39381 0
5.95297e-13 1.39381 0
-5.47255e-13 1.41453 0
1.57416e-13 1.41453 0
5.95297e-13 1.39381 0
-5.42675e-14 1.39381 0
-8.83329e-14 1.39381 0
3.26652e-13 1.39381 0
-9.85526e-14 1.3741 0
-2.25822e-13 1.3741 0
3.26652e-13 1.39381 0
2.72293e-13 1.39381 0
-2.25822e-13 1.3741 0
-1.20842e-13 1.3741 0
4.1949e-13 1 0
-3.97736e-13 1 0
-6.38632e-13 1.53471 0
7.93425e-13 1.53471 0
-3.97736e-13 1 0
-2.11551e-13 1 0
7.93425e-13 1.53471 0
2.36702e-13 1.53471 0
-5.28668e-13 1.53471 0
7.86667e-13 1.53471 0
1.80385e-13 1.50101 0
-4.89154e-13 1.50101 0
7.86667e-13 1.53471 0
3.16733e-13 1.53471 0
-4.89154e-13 1.50101 0
-2.9005e-13 1.50101 0
-2.11551e-13 1 0
-1.91712e-13 1 0
2.36702e-13 1.53471 0
1.10675e-13 1.53471 0
-1.91712e-13 1 0
2.50124e-13 1 0
1.10675e-13 1.53471 0
1.56561e-13 1.53471 0
3.16733e-13 1.53471 0
-3.73285e-13 1.53471 0
-2.9005e-13 1.50101 0
4.46345e-13 1.50101 0
-3.73285e-13 1.53471 0
5.87081e-13 1.53471 0
4.46345e-13 1.50101 0
-4.53862e-13 1.50101 0
8.75751e-14 1.50101 0
-1.82885e-13 1.50101 0
-3.64664e-13 1.48635 0
1.47984e-13 1.48635 0
-1.82885e-13 1.50101 0
1.96175e-13 1.50101 0
1.47984e-13 1.48635 0
8.29168e-14 1.48635 0
5.5404e-14 1.48635 0
-1.94792e-13 1.48635 0
-2.90283e-13 1.45907 0
3.65091e-13 1.45907 0
-1.94792e-13 1.48635 0
-3.41739e-14 1.48635 0
3.65091e-13 1.45907 0
-3.31394e-13 1.45907 0
1.96175e-13 1.50101 0
2.34588e-13 1.50101 0
8.29168e-14 1.48635 0
-1.77006e-13 1.48635 0
2.34588e-13 1.50101 0
-5.69155e-13 1.50101 0
-1.77006e-13 1.48635 0
3.75011e-13 1.48635 0
-3.41739e-14 1.48635 0
-3.79093e-13 1.48635 0
-3.31394e-13 1.45907 0
6.02596e-13 1.45907 0
-3.79093e-13 1.48635 0
1.78503e-14 1.48635 0
6.02596e-13 1.45907 0
1.57718e-13 1.45907 0
2.50124e-13 1 0
2.29006e-13 1 0
1.56561e-13 1.53471 0
-3.17861e-13 1.53471 0
2.29006e-13 1 0
-9.84732e-14 1 0
-3.17861e-13 1.53471 0
2.00498e-14 1.53471 0
5.87081e-13 1.53471 0
-3.00164e-13 1.53471 0
-4.53862e-13 1.50101 0
2.38746e-13 1.50101 0
-3.00164e-13 1.53471 0
-2.68898e-13 1.53471 0
2.38746e-13 1.50101 0
2.42537e-13 1.50101 0
-9.84732e-14 1 0
-1.77866e-13 1 0
2.00498e-14 1.53471 0
2.40966e-13 1.53471 0
-1.77866e-13 1 0
1.17493e-13 1 0
2.40966e-13 1.53471 0
-5.84461e-14 1.53471 0
-2.68898e-13 1.53471 0
2.13909e-13 1.53471 0
2.42537e-13 1.50101 0
-1.28733e-13 1.50101 0
2.13909e-13 1.53471 0
4.01213e-13 1.53471 0
-1.28733e-13 1.50101 0
-7.57842e-14 1.50101 0
-5.69155e-13 1.50101 0
-2.03805e-14 1.50101 0
3.75011e-13 1.48635 0
4.73597e-14 1.48635 0
-2.03805e-14 1.50101 0
-2.14878e-13 1.50101 0
4.73597e-14 1.48635 0
2.8283e-13 1.48635 0
1.78503e-14 1.48635 0
6.96352e-13 1.48635 0
1.57718e-13 1.45907 0
-6.55722e-13 1.45907 0
6.96352e-13 1.48635 0
-8.91521e-15 1.48635 0
-6.55722e-13 1.45907 0
3.55981e-13 1.45907 0
-2.14878e-13 1.50101 0
-3.38888e-14 1.50101 0
2.8283e-13 1.48635 0
-5.00887e-15 1.48635 0
-3.38888e-14 1.50101 0
2.15611e-13 1.50101 0
-5.00887e-15 1.48635 0
-1.10742e-13 1.48635 0
-8.91521e-15 1.48635 0
-2.66398e-13 1.48635 0
3.55981e-13 1.45907 0
-2.74796e-13 1.45907 0
-2.66398e-13 1.48635 0
3.12294e-13 1.48635 0
-2.74796e-13 1.45907 0
-7.72679e-15 1.45907 0
-4.76624e-13 1.45907 0
7.59497e-13 1.45907 0
3.78679e-13 1.43678 0
-7.14948e-13 1.43678 0
7.59497e-13 1.45907 0
-1.84076e-13 1.45907 0
-7.14948e-13 1.43678 0
1.89223e-13 1.43678 0
2.88124e-13 1.43678 0
-1.17832e-13 1.43678 0
-3.4807e-13 1.41453 0
3.25894e-13 1.41453 0
-1.17832e-13 1.43678 0
-2.49381e-13 1.43678 0
3.25894e-13 1.41453 0
2.10915e-13 1.41453 0
-1.84076e-13 1.45907 0
-5.17199e-14 1.45907 0
1.89223e-13 1.43678 0
-2.26484e-13 1.43678 0
-5.17199e-14 1.45907 0
-2.51669e-14 1.45907 0
-2.26484e-13 1.43678 0
-6.44062e-14 1.43678 0
-2.49381e-13 1.43678 0
4.08804e-15 1.43678 0
2.10915e-13 1.41453 0
-1.01645e-13 1.41453 0
4.08804e-15 1.43678 0
-1.97189e-13 1.43678 0
-1.01645e-13 1.41453 0
-1.29451e-14 1.41453 0
1.57416e-13 1.41453 0
2.02978e-13 1.41453 0
-5.42675e-14 1.39381 0
-1.6958e-13 1.39381 0
2.02978e-13 1.41453 0
1.26318e-13 1.41453 0
-1.6958e-13 1.39381 0
-8.02559e-14 1.39381 0
2.72293e-13 1.39381 0
-1.48087e-13 1.39381 0
-1.20842e-13 1.3741 0
1.00632e-13 1.3741 0
-1.48087e-13 1.39381 0
1.74702e-13 1.39381 0
1.00632e-13 1.3741 0
-4.04646e-14 1.3741 0
1.26318e-13 1.41453 0
-1.68889e-13 1.41453 0
-8.02559e-14 1.39381 0
2.99402e-13 1.39381 0
-1.68889e-13 1.41453 0
2.83455e-13 1.41453 0
2.99402e-13 1.39381 0
-2.24206e-13 1.39381 0
1.74702e-13 1.39381 0
-1.67601e-15 1.39381 0
-4.04646e-14 1.3741 0
-8.09898e-14 1.3741 0
-1.67601e-15 1.39381 0
4.31827e-13 1.39381 0
-8.09898e-14 1.3741 0
-4.2398e-13 1.3741 0
-2.51669e-14 1.45907 0
2.11702e-13 1.45907 0
-6.44062e-14 1.43678 0
2.62083e-13 1.43678 0
2.11702e-13 1.45907 0
-2.78546e-13 1.45907 0
2.62083e-13 1.43678 0
1.72296e-13 1.43678 0
-1.97189e-13 1.43678 0
3.92446e-14 1.43678 0
-1.29451e-14 1.41453 0
2.2494e-13 1.41453 0
3.92446e-14 1.43678 0
1.14822e-13 1.43678 0
2.2494e-13 1.41453 0
-2.38528e-13 1.41453 0
-2.78546e-13 1.45907 0
5.41344e-13 1.45907 0
1.72296e-13 1.43678 0
-5.65033e-13 1.43678 0
5.41344e-13 1.45907 0
-6.79463e-13 1.45907 0
-5.65033e-13 1.43678 0
6.0612e-13 1.43678 0
1.14822e-13 1.43678 0
-2.87197e-13 1.43678 0
-2.38528e-13 1.41453 0
4.75711e-13 1.41453 0
-2.87197e-13 1.43678 0
2.5734e-13 1.43678 0
4.75711e-13 1.41453 0
-1.53998e-13 1.41453 0
2.83455e-13 1.41453 0
-3.53343e-13 1.41453 0
-2.24206e-13 1.39381 0
4.78359e-13 1.39381 0
-3.53343e-13 1.41453 0
-1.68019e-13 1.41453 0
4.78359e-13 1.39381 0
-3.18794e-14 1.39381 0
4.31827e-13 1.39381 0
-7.91452e-13 1.39381 0
-4.2398e-13 1.3741 0
6.3447e-13 1.3741 0
-7.91452e-13 1.39381 0
1.69639e-13 1.39381 0
6.3447e-13 1.3741 0
4.28612e-14 1.3741 0
-1.68019e-13 1.41453 0
5.17788e-13 1.41453 0
-3.18794e-14 1.39381 0
-5.10624e-13 1.39381 0
5.17788e-13 1.41453 0
-1.16106e-14 1.41453 0
-5.10624e-13 1.39381 0
8.215e-14 1.39381 0
1.69639e-13 1.39381 0
1.27704e-14 1.39381 0
4.28612e-14 1.3741 0
-8.36983e-14 1.3741 0
1.27704e-14 1.39381 0
1.49255e-13 1.39381 0
-8.36983e-14 1.3741 0
2.02918e-13 1.3741 0
0 1.3741 0
8.56962e-14 1.3741 0
0 1.35547 0
-3.95406e-14 1.35547 0
8.56962e-14 1.3741 0
2.84466e-13 1.3741 0
-3.95406e-14 1.35547 0
-3.0327e-13 1.35547 0
0 1.35547 0
1.79151e-13 1.35547 0
0 1.33783 0
-2.47464e-13 1.33783 0
1.79151e-13 1.35547 0
-3.50727e-13 1.35547 0
-2.47464e-13 1.33783 0
1.81701e-13 1.33783 0
2.84466e-13 1.3741 0
-6.15084e-13 1.3741 0
-3.0327e-13 1.35547 0
6.71603e-13 1.35547 0
-6.15084e-13 1.3741 0
1.80246e-13 1.3741 0
6.71603e-13 1.35547 0
-2.56388e-14 1.35547 0
-3.50727e-13 1.35547 0
5.52179e-13 1.35547 0
1.81701e-13 1.33783 0
-3.55661e-13 1.33783 0
5.52179e-13 1.35547 0
1.31606e-13 1.35547 0
-3.55661e-13 1.33783 0
-3.53165e-14 1.33783 0
0 1.33783 0
-2.62768e-13 1.33783 0
0 1.32114 0
-8.32716e-14 1.32114 0
-2.62768e-13 1.33783 0
-6.18771e-14 1.33783 0
-8.32716e-14 1.32114 0
1.8119e-13 1.32114 0
0 1.32114 0
8.25508e-14 1.32114 0
0 1.30533 0
-4.23196e-14 1.30533 0
8.25508e-14 1.32114 0
3.17098e-13 1.32114 0
-4.23196e-14 1.30533 0
-2.92798e-13 1.30533 0
-6.18771e-14 1.33783 0
-2.50557e-13 1.33783 0
1.8119e-13 1.32114 0
2.43198e-13 1.32114 0
-2.50557e-13 1.33783 0
-6.45552e-14 1.33783 0
2.43198e-13 1.32114 0
-5.87944e-14 1.32114 0
3.17098e-13 1.32114 0
9.67154e-14 1.32114 0
-2.92798e-13 1.30533 0
4.4097e-14 1.30533 0
9.67154e-14 1.32114 0
-5.93651e-14 1.32114 0
4.4097e-14 1.30533 0
1.44174e-13 1.30533 0
1.80246e-13 1.3741 0
4.55408e-13 1.3741 0
-2.56388e-14 1.35547 0
-3.61865e-13 1.35547 0
4.55408e-13 1.3741 0
-4.08173e-13 1.3741 0
-3.61865e-13 1.35547 0
5.25244e-13 1.35547 0
1.31606e-13 1.35547 0
-4.05941e-13 1.35547 0
-3.53165e-14 1.33783 0
3.31091e-13 1.33783 0
-4.05941e-13 1.35547 0
5.36886e-14 1.35547 0
3.31091e-13 1.33783 0
2.05005e-14 1.33783 0
-4.08173e-13 1.3741 0
-2.50583e-13 1.3741 0
5.25244e-13 1.35547 0
3.17461e-14 1.35547 0
-2.50583e-13 1.3741 0
3.9805e-15 1.3741 0
3.17461e-14 1.35547 0
-8.35546e-14 1.35547 0
5.36886e-14 1.35547 0
2.15215e-13 1.35547 0
2.05005e-14 1.33783 0
-1.17498e-13 1.33783 0
2.15215e-13 1.35547 0
2.52482e-14 1.35547 0
-1.17498e-13 1.33783 0
-1.39198e-13 1.33783 0
-6.45552e-14 1.33783 0
4.1427e-13 1.33783 0
-5.87944e-14 1.32114 0
-4.32785e-13 1.32114 0
4.1427e-13 1.33783 0
8.08801e-14 1.33783 0
-4.32785e-13 1.32114 0
4.56565e-14 1.32114 0
-5.93651e-14 1.32114 0
-4.38336e-13 1.32114 0
1.44174e-13 1.30533 0
3.99419e-13 1.30533 0
-4.38336e-13 1.32114 0
1.8052e-13 1.32114 0
3.99419e-13 1.30533 0
-2.19677e-13 1.30533 0
8.08801e-14 1.33783 0
-2.65308e-14 1.33783 0
4.56565e-14 1.32114 0
1.15444e-13 1.32114 0
-2.65308e-14 1.33783 0
9.02131e-15 1.33783 0
1.15444e-13 1.32114 0
-3.14387e-13 1.32114 0
1.8052e-13 1.32114 0
3.93983e-13 1.32114 0
-2.19677e-13 1.30533 0
-4.25773e-13 1.30533 0
3.93983e-13 1.32114 0
-5.49066e-13 1.32114 0
-4.25773e-13 1.30533 0
6.90479e-13 1.30533 0
0 1.30533 0
-3.46842e-13 1.30533 0
0 1.29036 0
3.41487e-13 1.29036 0
-3.46842e-13 1.30533 0
-2.17568e-13 1.30533 0
3.41487e-13 1.29036 0
2.20977e-13 1.29036 0
0 1.29036 0
3.40078e-14 1.29036 0
0 1.27619 0
1.29252e-13 1.27619 0
3.40078e-14 1.29036 0
7.8413e-14 1.29036 0
1.29252e-13 1.27619 0
-2.51003e-15 1.27619 0
-2.17568e-13 1.30533 0
3.24547e-13 1.30533 0
2.20977e-13 1.29036 0
-2.21989e-13 1.29036 0
3.24547e-13 1.30533 0
1.24747e-13 1.30533 0
-2.21989e-13 1.29036 0
-1.00188e-14 1.29036 0
7.8413e-14 1.29036 0
-1.72493e-13 1.29036 0
-2.51003e-15 1.27619 0
-1.54721e-13 1.27619 0
-1.72493e-13 1.29036 0
1.31692e-13 1.29036 0
-1.54721e-13 1.27619 0
-6.49851e-14 1.27619 0
0 1.27619 0
3.28698e-13 1.27619 0
0 1.26277 0
-8.64339e-14 1.26277 0
3.28698e-13 1.27619 0
2.24541e-13 1.27619 0
-8.64339e-14 1.26277 0
-4.24805e-13 1.26277 0
0 1.26277 0
-9.5348e-14 1.26277 0
0 1.25006 0
1.24362e-13 1.25006 0
-9.5348e-14 1.26277 0
-4.85396e-13 1.26277 0
1.24362e-13 1.25006 0
2.33723e-13 1.25006 0
2.24541e-13 1.27619 0
-4.2312e-13 1.27619 0
-4.24805e-13 1.26277 0
3.51445e-13 1.26277 0
-4.2312e-13 1.27619 0
-3.29902e-14 1.27619 0
3.51445e-13 1.26277 0
8.74694e-14 1.26277 0
-4.85396e-13 1.26277 0
4.24881e-13 1.26277 0
2.33723e-13 1.25006 0
-2.77924e-13 1.25006 0
4.24881e-13 1.26277 0
1.62559e-13 1.26277 0
-2.77924e-13 1.25006 0
-2.24969e-13 1.25006 0
1.24747e-13 1.30533 0
4.24257e-13 1.30533 0
-1.00188e-14 1.29036 0
-5.41129e-13 1.29036 0
4.24257e-13 1.30533 0
-3.66427e-13 1.30533 0
-5.41129e-13 1.29036 0
5.41801e-13 1.29036 0
1.31692e-13 1.29036 0
-2.99315e-13 1.29036 0
-6.49851e-14 1.27619 0
6.05215e-14 1.27619 0
-2.99315e-13 1.29036 0
5.86888e-13 1.29036 0
6.05215e-14 1.27619 0
-2.97298e-13 1.27619 0
-3.66427e-13 1.30533 0
-1.95121e-13 1.30533 0
5.41801e-13 1.29036 0
5.53537e-14 1.29036 0
-1.95121e-13 1.30533 0
5.35289e-13 1.30533 0
5.53537e-14 1.29036 0
-2.40706e-13 1.29036 0
5.86888e-13 1.29036 0
-1.78849e-13 1.29036 0
-2.97298e-13 1.27619 0
1.94303e-13 1.27619 0
-1.78849e-13 1.29036 0
-5.1121e-13 1.29036 0
1.94303e-13 1.27619 0
3.0151e-13 1.27619 0
-3.29902e-14 1.27619 0
-7.01956e-14 1.27619 0
8.74694e-14 1.26277 0
-4.90228e-14 1.26277 0
-7.01956e-14 1.27619 0
-2.26131e-13 1.27619 0
-4.90228e-14 1.26277 0
4.40417e-14 1.26277 0
1.62559e-13 1.26277 0
-7.55001e-14 1.26277 0
-2.24969e-13 1.25006 0
-4.56047e-14 1.25006 0
-7.55001e-14 1.26277 0
2.06522e-14 1.26277 0
-4.56047e-14 1.25006 0
9.18208e-14 1.25006 0
-2.26131e-13 1.27619 0
1.13553e-13 1.27619 0
4.40417e-14 1.26277 0
4.47119e-14 1.26277 0
1.13553e-13 1.27619 0
4.79388e-13 1.27619 0
4.47119e-14 1.26277 0
-2.70224e-13 1.26277 0
2.06522e-14 1.26277 0
2.50878e-13 1.26277 0
9.18208e-14 1.25006 0
-1.25756e-13 1.25006 0
2.50878e-13 1.26277 0
-3.48841e-14 1.26277 0
-1.25756e-13 1.25006 0
1.3896e-13 1.25006 0
3.9805e-15 1.3741 0
3.85682e-14 1.3741 0
-8.35546e-14 1.35547 0
-1.17014e-13 1.35547 0
3.85682e-14 1.3741 0
3.18093e-13 1.3741 0
-1.17014e-13 1.35547 0
-3.09911e-13 1.35547 0
2.52482e-14 1.35547 0
4.1679e-14 1.35547 0
-1.39198e-13 1.33783 0
1.59681e-13 1.33783 0
4.1679e-14 1.35547 0
-5.80185e-13 1.35547 0
1.59681e-13 1.33783 0
3.18276e-13 1.33783 0
3.18093e-13 1.3741 0
-1.62424e-13 1.3741 0
-3.09911e-13 1.35547 0
1.44482e-13 1.35547 0
-1.62424e-13 1.3741 0
-6.76852e-13 1.3741 0
1.44482e-13 1.35547 0
5.53698e-13 1.35547 0
-5.80185e-13 1.35547 0
2.2101e-13 1.35547 0
3.18276e-13 1.33783 0
-2.64885e-13 1.33783 0
2.2101e-13 1.35547 0
4.73802e-13 1.35547 0
-2.64885e-13 1.33783 0
-3.59729e-13 1.33783 0
9.02131e-15 1.33783 0
6.64864e-14 1.33783 0
-3.14387e-13 1.32114 0
3.7322e-15 1.32114 0
6.64864e-14 1.33783 0
-1.34794e-13 1.33783 0
3.7322e-15 1.32114 0
1.25194e-14 1.32114 0
-5.49066e-13 1.32114 0
-2.22169e-13 1.32114 0
6.90479e-13 1.30533 0
2.9481e-13 1.30533 0
-2.22169e-13 1.32114 0
3.53827e-13 1.32114 0
2.9481e-13 1.30533 0
-2.75731e-13 1.30533 0
-1.34794e-13 1.33783 0
2.39277e-14 1.33783 0
1.25194e-14 1.32114 0
8.76907e-14 1.32114 0
2.39277e-14 1.33783 0
-1.89712e-14 1.33783 0
8.76907e-14 1.32114 0
5.89159e-14 1.32114 0
3.53827e-13 1.32114 0
-1.8491e-13 1.32114 0
-2.75731e-13 1.30533 0
3.38405e-13 1.30533 0
-1.8491e-13 1.32114 0
1.11456e-13 1.32114 0
3.38405e-13 1.30533 0
-3.79275e-13 1.30533 0
-6.76852e-13 1.3741 0
7.69672e-13 1.3741 0
5.53698e-13 1.35547 0
-7.20625e-13 1.35547 0
7.69672e-13 1.3741 0
-2.22582e-13 1.3741 0
-7.20625e-13 1.35547 0
2.73443e-13 1.35547 0
4.73802e-13 1.35547 0
1.71579e-13 1.35547 0
-3.59729e-13 1.33783 0
9.44227e-14 1.33783 0
1.71579e-13 1.35547 0
-1.77494e-13 1.35547 0
9.44227e-14 1.33783 0
8.03684e-15 1.33783 0
-2.22582e-13 1.3741 0
-2.0896e-13 1.3741 0
2.73443e-13 1.35547 0
7.94092e-14 1.35547 0
-2.0896e-13 1.3741 0
7.1394e-13 1.3741 0
7.94092e-14 1.35547 0
-4.74306e-13 1.35547 0
-1.77494e-13 1.35547 0
-1.57356e-13 1.35547 0
8.03684e-15 1.33783 0
-1.24831e-14 1.33783 0
-1.57356e-13 1.35547 0
-3.26374e-13 1.35547 0
-1.24831e-14 1.33783 0
4.27353e-13 1.33783 0
-1.89712e-14 1.33783 0
-1.81995e-13 1.33783 0
5.89159e-14 1.32114 0
4.68339e-13 1.32114 0
-1.81995e-13 1.33783 0
2.61883e-13 1.33783 0
4.68339e-13 1.32114 0
-5.05622e-13 1.32114 0
1.11456e-13 1.32114 0
1.46215e-14 1.32114 0
-3.79275e-13 1.30533 0
-1.19623e-13 1.30533 0
1.46215e-14 1.32114 0
-2.62409e-14 1.32114 0
-1.19623e-13 1.30533 0
4.28639e-13 1.30533 0
2.61883e-13 1.33783 0
2.20507e-13 1.33783 0
-5.05622e-13 1.32114 0
2.27424e-14 1.32114 0
2.20507e-13 1.33783 0
4.07968e-14 1.33783 0
2.27424e-14 1.32114 0
-8.82575e-15 1.32114 0
-2.62409e-14 1.32114 0
-5.34738e-14 1.32114 0
4.28639e-13 1.30533 0
-3.53682e-13 1.30533 0
-5.34738e-14 1.32114 0
2.67785e-13 1.32114 0
-3.53682e-13 1.30533 0
-2.40086e-14 1.30533 0
5.35289e-13 1.30533 0
-1.58012e-14 1.30533 0
-2.40706e-13 1.29036 0
-2.02572e-14 1.29036 0
-1.58012e-14 1.30533 0
-2.56157e-13 1.30533 0
-2.02572e-14 1.29036 0
5.36131e-15 1.29036 0
-5.1121e-13 1.29036 0
1.58251e-13 1.29036 0
3.0151e-13 1.27619 0
-2.20131e-13 1.27619 0
1.58251e-13 1.29036 0
2.76559e-13 1.29036 0
-2.20131e-13 1.27619 0
-2.03418e-13 1.27619 0
-2.56157e-13 1.30533 0
3.06054e-13 1.30533 0
5.36131e-15 1.29036 0
-3.41961e-13 1.29036 0
3.06054e-13 1.30533 0