# vtk DataFile Version 3.0
#This file was generated by the deal.II library on 2017/1/25 at 15:00:49
ASCII
DATASET UNSTRUCTURED_GRID

POINTS 4000 double
0.75 0 0
0.875 0 0
0.75 0.125 0
0.875 0.125 0
0.875 0 0
1 0 0
0.875 0.125 0
1 0.125 0
0.75 0.125 0
0.875 0.125 0
0.75 0.25 0
0.875 0.25 0
0.875 0.125 0
1 0.125 0
0.875 0.25 0
1 0.25 0
0.75 0.25 0
0.875 0.25 0
0.75 0.375 0
0.875 0.375 0
0.875 0.25 0
1 0.25 0
0.875 0.375 0
1 0.375 0
0.75 0.375 0
0.875 0.375 0
0.75 0.5 0
0.875 0.5 0
0.875 0.375 0
1 0.375 0
0.875 0.5 0
1 0.5 0
0 0.5 0
0.125 0.5 0
0 0.625 0
0.125 0.625 0
0.125 0.5 0
0.25 0.5 0
0.125 0.625 0
0.25 0.625 0
0 0.625 0
0.125 0.625 0
0 0.75 0
0.125 0.75 0
0.125 0.625 0
0.25 0.625 0
0.125 0.75 0
0.25 0.75 0
0.25 0.5 0
0.375 0.5 0
0.25 0.625 0
0.375 0.625 0
0.375 0.5 0
0.5 0.5 0
0.375 0.625 0
0.5 0.625 0
0.25 0.625 0
0.375 0.625 0
0.25 0.75 0
0.375 0.75 0
0.375 0.625 0
0.5 0.625 0
0.375 0.75 0
0.5 0.75 0
0 0.75 0
0.125 0.75 0
0 0.875 0
0.125 0.875 0
0.125 0.75 0
0.25 0.75 0
0.125 0.875 0
0.25 0.875 0
0 0.875 0
0.125 0.875 0
0 1 0
0.125 1 0
0.125 0.875 0
0.25 0.875 0
0.125 1 0
0.25 1 0
0.25 0.75 0
0.375 0.75 0
0.25 0.875 0
0.375 0.875 0
0.375 0.75 0
0.5 0.75 0
0.375 0.875 0
0.5 0.875 0
0.25 0.875 0
0.375 0.875 0
0.25 1 0
0.375 1 0
0.375 0.875 0
0.5 0.875 0
0.375 1 0
0.5 1 0
0.5 0.5 0
0.625 0.5 0
0.5 0.625 0
0.625 0.625 0
0.625 0.5 0
0.75 0.5 0
0.625 0.625 0
0.75 0.625 0
0.5 0.625 0
0.625 0.625 0
0.5 0.75 0
0.625 0.75 0
0.625 0.625 0
0.75 0.625 0
0.625 0.75 0
0.75 0.75 0
0.75 0.5 0
0.875 0.5 0
0.75 0.625 0
0.875 0.625 0
0.875 0.5 0
1 0.5 0
0.875 0.625 0
1 0.625 0
0.75 0.625 0
0.875 0.625 0
0.75 0.75 0
0.875 0.75 0
0.875 0.625 0
1 0.625 0
0.875 0.75 0
1 0.75 0
0.5 0.75 0
0.625 0.75 0
0.5 0.875 0
0.625 0.875 0
0.625 0.75 0
0.75 0.75 0
0.625 0.875 0
0.75 0.875 0
0.5 0.875 0
0.625 0.875 0
0.5 1 0
0.625 1 0
0.625 0.875 0
0.75 0.875 0
0.625 1 0
0.75 1 0
0.75 0.75 0
0.875 0.75 0
0.75 0.875 0
0.875 0.875 0
0.875 0.75 0
1 0.75 0
0.875 0.875 0
1 0.875 0
0.75 0.875 0
0.875 0.875 0
0.75 1 0
0.875 1 0
0.875 0.875 0
1 0.875 0
0.875 1 0
1 1 0
0 0 0
0.0625 0 0
0 0.0625 0
0.0625 0.0625 0
0.0625 0 0
0.125 0 0
0.0625 0.0625 0
0.125 0.0625 0
0 0.0625 0
0.0625 0.0625 0
0 0.125 0
0.0625 0.125 0
0.0625 0.0625 0
0.125 0.0625 0
0.0625 0.125 0
0.125 0.125 0
0.125 0 0
0.1875 0 0
0.125 0.0625 0
0.1875 0.0625 0
0.1875 0 0
0.25 0 0
0.1875 0.0625 0
0.25 0.0625 0
0.125 0.0625 0
0.1875 0.0625 0
0.125 0.125 0
0.1875 0.125 0
0.1875 0.0625 0
0.25 0.0625 0
0.1875 0.125 0
0.25 0.125 0
0 0.125 0
0.0625 0.125 0
0 0.1875 0
0.0625 0.1875 0
0.0625 0.125 0
0.125 0.125 0
0.0625 0.1875 0
0.125 0.1875 0
0 0.1875 0
0.0625 0.1875 0
0 0.25 0
0.0625 0.25 0
0.0625 0.1875 0
0.125 0.1875 0
0.0625 0.25 0
0.125 0.25 0
0.125 0.125 0
0.1875 0.125 0
0.125 0.1875 0
0.1875 0.1875 0
0.1875 0.125 0
0.25 0.125 0
0.1875 0.1875 0
0.25 0.1875 0
0.125 0.1875 0
0.1875 0.1875 0
0.125 0.25 0
0.1875 0.25 0
0.1875 0.1875 0
0.25 0.1875 0
0.1875 0.25 0
0.25 0.25 0
0 0.25 0
0.0625 0.25 0
0 0.3125 0
0.0625 0.3125 0
0.0625 0.25 0
0.125 0.25 0
0.0625 0.3125 0
0.125 0.3125 0
0 0.3125 0
0.0625 0.3125 0
0 0.375 0
0.0625 0.375 0
0.0625 0.3125 0
0.125 0.3125 0
0.0625 0.375 0
0.125 0.375 0
0.125 0.25 0
0.1875 0.25 0
0.125 0.3125 0
0.1875 0.3125 0
0.1875 0.25 0
0.25 0.25 0
0.1875 0.3125 0
0.25 0.3125 0
0.125 0.3125 0
0.1875 0.3125 0
0.125 0.375 0
0.1875 0.375 0
0.1875 0.3125 0
0.25 0.3125 0
0.1875 0.375 0
0.25 0.375 0
0 0.375 0
0.0625 0.375 0
0 0.4375 0
0.0625 0.4375 0
0.0625 0.375 0
0.125 0.375 0
0.0625 0.4375 0
0.125 0.4375 0
0 0.4375 0
0.0625 0.4375 0
0 0.5 0
0.0625 0.5 0
0.0625 0.4375 0
0.125 0.4375 0
0.0625 0.5 0
0.125 0.5 0
0.125 0.375 0
0.1875 0.375 0
0.125 0.4375 0
0.1875 0.4375 0
0.1875 0.375 0
0.25 0.375 0
0.1875 0.4375 0
0.25 0.4375 0
0.125 0.4375 0
0.1875 0.4375 0
0.125 0.5 0
0.1875 0.5 0
0.1875 0.4375 0
0.25 0.4375 0
0.1875 0.5 0
0.25 0.5 0
0.25 0.375 0
0.3125 0.375 0
0.25 0.4375 0
0.3125 0.4375 0
0.3125 0.375 0
0.375 0.375 0
0.3125 0.4375 0
0.375 0.4375 0
0.25 0.4375 0
0.3125 0.4375 0
0.25 0.5 0
0.3125 0.5 0
0.3125 0.4375 0
0.375 0.4375 0
0.3125 0.5 0
0.375 0.5 0
0.375 0.375 0
0.4375 0.375 0
0.375 0.4375 0
0.4375 0.4375 0
0.4375 0.375 0
0.5 0.375 0
0.4375 0.4375 0
0.5 0.4375 0
0.375 0.4375 0
0.4375 0.4375 0
0.375 0.5 0
0.4375 0.5 0
0.4375 0.4375 0
0.5 0.4375 0
0.4375 0.5 0
0.5 0.5 0
0.625 0 0
0.6875 0 0
0.625 0.0625 0
0.6875 0.0625 0
0.6875 0 0
0.75 0 0
0.6875 0.0625 0
0.75 0.0625 0
0.625 0.0625 0
0.6875 0.0625 0
0.625 0.125 0
0.6875 0.125 0
0.6875 0.0625 0
0.75 0.0625 0
0.6875 0.125 0
0.75 0.125 0
0.625 0.125 0
0.6875 0.125 0
0.625 0.1875 0
0.6875 0.1875 0
0.6875 0.125 0
0.75 0.125 0
0.6875 0.1875 0
0.75 0.1875 0
0.625 0.1875 0
0.6875 0.1875 0
0.625 0.25 0
0.6875 0.25 0
0.6875 0.1875 0
0.75 0.1875 0
0.6875 0.25 0
0.75 0.25 0
0.625 0.25 0
0.6875 0.25 0
0.625 0.3125 0
0.6875 0.3125 0
0.6875 0.25 0
0.75 0.25 0
0.6875 0.3125 0
0.75 0.3125 0
0.625 0.3125 0
0.6875 0.3125 0
0.625 0.375 0
0.6875 0.375 0
0.6875 0.3125 0
0.75 0.3125 0
0.6875 0.375 0
0.75 0.375 0
0.5 0.375 0
0.5625 0.375 0
0.5 0.4375 0
0.5625 0.4375 0
0.5625 0.375 0
0.625 0.375 0
0.5625 0.4375 0
0.625 0.4375 0
0.5 0.4375 0
0.5625 0.4375 0
0.5 0.5 0
0.5625 0.5 0
0.5625 0.4375 0
0.625 0.4375 0
0.5625 0.5 0
0.625 0.5 0
0.625 0.375 0
0.6875 0.375 0
0.625 0.4375 0
0.6875 0.4375 0
0.6875 0.375 0
0.75 0.375 0
0.6875 0.4375 0
0.75 0.4375 0
0.625 0.4375 0
0.6875 0.4375 0
0.625 0.5 0
0.6875 0.5 0
0.6875 0.4375 0
0.75 0.4375 0
0.6875 0.5 0
0.75 0.5 0
0.25 0 0
0.28125 0 0
0.25 0.03125 0
0.28125 0.03125 0
0.28125 0 0
0.3125 0 0
0.28125 0.03125 0
0.3125 0.03125 0
0.25 0.03125 0
0.28125 0.03125 0
0.25 0.0625 0
0.28125 0.0625 0
0.28125 0.03125 0
0.3125 0.03125 0
0.28125 0.0625 0
0.3125 0.0625 0
0.25 0.0625 0
0.28125 0.0625 0
0.25 0.09375 0
0.28125 0.09375 0
0.28125 0.0625 0
0.3125 0.0625 0
0.28125 0.09375 0
0.3125 0.09375 0
0.25 0.09375 0
0.28125 0.09375 0
0.25 0.125 0
0.28125 0.125 0
0.28125 0.09375 0
0.3125 0.09375 0
0.28125 0.125 0
0.3125 0.125 0
0.5625 0 0
0.59375 0 0
0.5625 0.03125 0
0.59375 0.03125 0
0.59375 0 0
0.625 0 0
0.59375 0.03125 0
0.625 0.03125 0
0.5625 0.03125 0
0.59375 0.03125 0
0.5625 0.0625 0
0.59375 0.0625 0
0.59375 0.03125 0
0.625 0.03125 0
0.59375 0.0625 0
0.625 0.0625 0
0.5625 0.0625 0
0.59375 0.0625 0
0.5625 0.09375 0
0.59375 0.09375 0
0.59375 0.0625 0
0.625 0.0625 0
0.59375 0.09375 0
0.625 0.09375 0
0.5625 0.09375 0
0.59375 0.09375 0
0.5625 0.125 0
0.59375 0.125 0
0.59375 0.09375 0
0.625 0.09375 0
0.59375 0.125 0
0.625 0.125 0
0.25 0.125 0
0.28125 0.125 0
0.25 0.15625 0
0.28125 0.15625 0
0.28125 0.125 0
0.3125 0.125 0
0.28125 0.15625 0
0.3125 0.15625 0
0.25 0.15625 0
0.28125 0.15625 0
0.25 0.1875 0
0.28125 0.1875 0
0.28125 0.15625 0
0.3125 0.15625 0
0.28125 0.1875 0
0.3125 0.1875 0
0.25 0.1875 0
0.28125 0.1875 0
0.25 0.21875 0
0.28125 0.21875 0
0.28125 0.1875 0
0.3125 0.1875 0
0.28125 0.21875 0
0.3125 0.21875 0
0.25 0.21875 0
0.28125 0.21875 0
0.25 0.25 0
0.28125 0.25 0
0.28125 0.21875 0
0.3125 0.21875 0
0.28125 0.25 0
0.3125 0.25 0
0.3125 0.1875 0
0.34375 0.1875 0
0.3125 0.21875 0
0.34375 0.21875 0
0.34375 0.1875 0
0.375 0.1875 0
0.34375 0.21875 0
0.375 0.21875 0
0.3125 0.21875 0
0.34375 0.21875 0
0.3125 0.25 0
0.34375 0.25 0
0.34375 0.21875 0
0.375 0.21875 0
0.34375 0.25 0
0.375 0.25 0
0.5625 0.125 0
0.59375 0.125 0
0.5625 0.15625 0
0.59375 0.15625 0
0.59375 0.125 0
0.625 0.125 0
0.59375 0.15625 0
0.625 0.15625 0
0.5625 0.15625 0
0.59375 0.15625 0
0.5625 0.1875 0
0.59375 0.1875 0
0.59375 0.15625 0
0.625 0.15625 0
0.59375 0.1875 0
0.625 0.1875 0
0.5625 0.1875 0
0.59375 0.1875 0
0.5625 0.21875 0
0.59375 0.21875 0
0.59375 0.1875 0
0.625 0.1875 0
0.59375 0.21875 0
0.625 0.21875 0
0.5625 0.21875 0
0.59375 0.21875 0
0.5625 0.25 0
0.59375 0.25 0
0.59375 0.21875 0
0.625 0.21875 0
0.59375 0.25 0
0.625 0.25 0
0.25 0.25 0
0.28125 0.25 0
0.25 0.28125 0
0.28125 0.28125 0
0.28125 0.25 0
0.3125 0.25 0
0.28125 0.28125 0
0.3125 0.28125 0
0.25 0.28125 0
0.28125 0.28125 0
0.25 0.3125 0
0.28125 0.3125 0
0.28125 0.28125 0
0.3125 0.28125 0
0.28125 0.3125 0
0.3125 0.3125 0
0.3125 0.25 0
0.34375 0.25 0
0.3125 0.28125 0
0.34375 0.28125 0
0.34375 0.25 0
0.375 0.25 0
0.34375 0.28125 0
0.375 0.28125 0
0.3125 0.28125 0
0.34375 0.28125 0
0.3125 0.3125 0
0.34375 0.3125 0
0.34375 0.28125 0
0.375 0.28125 0
0.34375 0.3125 0
0.375 0.3125 0
0.25 0.3125 0
0.28125 0.3125 0
0.25 0.34375 0
0.28125 0.34375 0
0.28125 0.3125 0
0.3125 0.3125 0
0.28125 0.34375 0
0.3125 0.34375 0
0.25 0.34375 0
0.28125 0.34375 0
0.25 0.375 0
0.28125 0.375 0
0.28125 0.34375 0
0.3125 0.34375 0
0.28125 0.375 0
0.3125 0.375 0
0.3125 0.3125 0
0.34375 0.3125 0
0.3125 0.34375 0
0.34375 0.34375 0
0.34375 0.3125 0
0.375 0.3125 0
0.34375 0.34375 0
0.375 0.34375 0
0.3125 0.34375 0
0.34375 0.34375 0
0.3125 0.375 0
0.34375 0.375 0
0.34375 0.34375 0
0.375 0.34375 0
0.34375 0.375 0
0.375 0.375 0
0.375 0.25 0
0.40625 0.25 0
0.375 0.28125 0
0.40625 0.28125 0
0.40625 0.25 0
0.4375 0.25 0
0.40625 0.28125 0
0.4375 0.28125 0
0.375 0.28125 0
0.40625 0.28125 0
0.375 0.3125 0
0.40625 0.3125 0
0.40625 0.28125 0
0.4375 0.28125 0
0.40625 0.3125 0
0.4375 0.3125 0
0.4375 0.25 0
0.46875 0.25 0
0.4375 0.28125 0
0.46875 0.28125 0
0.46875 0.25 0
0.5 0.25 0
0.46875 0.28125 0
0.5 0.28125 0
0.4375 0.28125 0
0.46875 0.28125 0
0.4375 0.3125 0
0.46875 0.3125 0
0.46875 0.28125 0
0.5 0.28125 0
0.46875 0.3125 0
0.5 0.3125 0
0.375 0.3125 0
0.40625 0.3125 0
0.375 0.34375 0
0.40625 0.34375 0
0.40625 0.3125 0
0.4375 0.3125 0
0.40625 0.34375 0
0.4375 0.34375 0
0.375 0.34375 0
0.40625 0.34375 0
0.375 0.375 0
0.40625 0.375 0
0.40625 0.34375 0
0.4375 0.34375 0
0.40625 0.375 0
0.4375 0.375 0
0.4375 0.3125 0
0.46875 0.3125 0
0.4375 0.34375 0
0.46875 0.34375 0
0.46875 0.3125 0
0.5 0.3125 0
0.46875 0.34375 0
0.5 0.34375 0
0.4375 0.34375 0
0.46875 0.34375 0
0.4375 0.375 0
0.46875 0.375 0
0.46875 0.34375 0
0.5 0.34375 0
0.46875 0.375 0
0.5 0.375 0
0.5 0.25 0
0.53125 0.25 0
0.5 0.28125 0
0.53125 0.28125 0
0.53125 0.25 0
0.5625 0.25 0
0.53125 0.28125 0
0.5625 0.28125 0
0.5 0.28125 0
0.53125 0.28125 0
0.5 0.3125 0
0.53125 0.3125 0
[...]
POINT_DATA 4000
VECTORS velocity double
6.95383e-06 5.26047e+09 0
1.13943e-06 5.26047e+09 0
-1.2866e-05 5.26047e+09 0
-6.85472e-06 5.26047e+09 0
1.13943e-06 5.26047e+09 0
0 5.26047e+09 0
-6.85472e-06 5.26047e+09 0
0 5.26047e+09 0
-1.2866e-05 5.26047e+09 0
-6.85472e-06 5.26047e+09 0
-1.81168e-05 5.26047e+09 0
-1.13923e-05 5.26047e+09 0
-6.85472e-06 5.26047e+09 0
0 5.26047e+09 0
-1.13923e-05 5.26047e+09 0
0 5.26047e+09 0
-1.81168e-05 5.26047e+09 0
-1.13923e-05 5.26047e+09 0
-1.31272e-05 5.26047e+09 0
-9.46351e-06 5.26047e+09 0
-1.13923e-05 5.26047e+09 0
0 5.26047e+09 0
-9.46351e-06 5.26047e+09 0
0 5.26047e+09 0
-1.31272e-05 5.26047e+09 0
-9.46351e-06 5.26047e+09 0
-3.96789e-06 5.26047e+09 0
-5.15901e-06 5.26047e+09 0
-9.46351e-06 5.26047e+09 0
0 5.26047e+09 0
-5.15901e-06 5.26047e+09 0
0 5.26047e+09 0
0 5.26047e+09 0
6.25617e-06 5.26047e+09 0
0 5.26047e+09 0
5.0625e-06 5.26047e+09 0
6.25617e-06 5.26047e+09 0
1.33425e-05 5.26047e+09 0
5.0625e-06 5.26047e+09 0
9.1548e-06 5.26047e+09 0
0 5.26047e+09 0
5.0625e-06 5.26047e+09 0
0 5.26047e+09 0
5.13326e-06 5.26047e+09 0
5.0625e-06 5.26047e+09 0
9.1548e-06 5.26047e+09 0
5.13326e-06 5.26047e+09 0
6.8869e-06 5.26047e+09 0
1.33425e-05 5.26047e+09 0
1.74334e-05 5.26047e+09 0
9.1548e-06 5.26047e+09 0
9.97739e-06 5.26047e+09 0
1.74334e-05 5.26047e+09 0
1.42799e-05 5.26047e+09 0
9.97739e-06 5.26047e+09 0
9.34071e-06 5.26047e+09 0
9.1548e-06 5.26047e+09 0
9.97739e-06 5.26047e+09 0
6.8869e-06 5.26047e+09 0
7.93752e-06 5.26047e+09 0
9.97739e-06 5.26047e+09 0
9.34071e-06 5.26047e+09 0
7.93752e-06 5.26047e+09 0
6.78274e-06 5.26047e+09 0
0 5.26047e+09 0
5.13326e-06 5.26047e+09 0
0 5.26047e+09 0
3.76983e-06 5.26047e+09 0
5.13326e-06 5.26047e+09 0
6.8869e-06 5.26047e+09 0
3.76983e-06 5.26047e+09 0
8.44657e-06 5.26047e+09 0
0 5.26047e+09 0
3.76983e-06 5.26047e+09 0
0 5.26047e+09 0
6.70749e-06 5.26047e+09 0
3.76983e-06 5.26047e+09 0
8.44657e-06 5.26047e+09 0
6.70749e-06 5.26047e+09 0
1.15232e-05 5.26047e+09 0
6.8869e-06 5.26047e+09 0
7.93752e-06 5.26047e+09 0
8.44657e-06 5.26047e+09 0
8.72379e-06 5.26047e+09 0
7.93752e-06 5.26047e+09 0
6.78274e-06 5.26047e+09 0
8.72379e-06 5.26047e+09 0
9.57977e-06 5.26047e+09 0
8.44657e-06 5.26047e+09 0
8.72379e-06 5.26047e+09 0
1.15232e-05 5.26047e+09 0
1.67644e-05 5.26047e+09 0
8.72379e-06 5.26047e+09 0
9.57977e-06 5.26047e+09 0
1.67644e-05 5.26047e+09 0
1.54544e-05 5.26047e+09 0
1.42799e-05 5.26047e+09 0
2.9163e-06 5.26047e+09 0
9.34071e-06 5.26047e+09 0
5.93813e-06 5.26047e+09 0
2.9163e-06 5.26047e+09 0
-3.96789e-06 5.26047e+09 0
5.93813e-06 5.26047e+09 0
2.81975e-06 5.26047e+09 0
9.34071e-06 5.26047e+09 0
5.93813e-06 5.26047e+09 0
6.78274e-06 5.26047e+09 0
6.92226e-06 5.26047e+09 0
5.93813e-06 5.26047e+09 0
2.81975e-06 5.26047e+09 0
6.92226e-06 5.26047e+09 0
5.51808e-06 5.26047e+09 0
-3.96789e-06 5.26047e+09 0
-5.15901e-06 5.26047e+09 0
2.81975e-06 5.26047e+09 0
3.83403e-07 5.26047e+09 0
-5.15901e-06 5.26047e+09 0
0 5.26047e+09 0
3.83403e-07 5.26047e+09 0
0 5.26047e+09 0
2.81975e-06 5.26047e+09 0
3.83403e-07 5.26047e+09 0
5.51808e-06 5.26047e+09 0
1.66468e-06 5.26047e+09 0
3.83403e-07 5.26047e+09 0
0 5.26047e+09 0
1.66468e-06 5.26047e+09 0
0 5.26047e+09 0
6.78274e-06 5.26047e+09 0
6.92226e-06 5.26047e+09 0
9.57977e-06 5.26047e+09 0
8.09299e-06 5.26047e+09 0
6.92226e-06 5.26047e+09 0
5.51808e-06 5.26047e+09 0
8.09299e-06 5.26047e+09 0
5.85941e-06 5.26047e+09 0
9.57977e-06 5.26047e+09 0
8.09299e-06 5.26047e+09 0
1.54544e-05 5.26047e+09 0
1.46419e-05 5.26047e+09 0
8.09299e-06 5.26047e+09 0
5.85941e-06 5.26047e+09 0
1.46419e-05 5.26047e+09 0
1.02792e-05 5.26047e+09 0
5.51808e-06 5.26047e+09 0
1.66468e-06 5.26047e+09 0
5.85941e-06 5.26047e+09 0
2.81164e-06 5.26047e+09 0
1.66468e-06 5.26047e+09 0
0 5.26047e+09 0
2.81164e-06 5.26047e+09 0
0 5.26047e+09 0
5.85941e-06 5.26047e+09 0
2.81164e-06 5.26047e+09 0
1.02792e-05 5.26047e+09 0
6.49915e-06 5.26047e+09 0
2.81164e-06 5.26047e+09 0
0 5.26047e+09 0
6.49915e-06 5.26047e+09 0
0 5.26047e+09 0
0 5.26047e+09 0
-5.16999e-06 5.26047e+09 0
0 5.26047e+09 0
-5.24458e-06 5.26047e+09 0
-5.16999e-06 5.26047e+09 0
-1.19633e-05 5.26047e+09 0
-5.24458e-06 5.26047e+09 0
-8.76831e-06 5.26047e+09 0
0 5.26047e+09 0
-5.24458e-06 5.26047e+09 0
0 5.26047e+09 0
-2.6603e-06 5.26047e+09 0
-5.24458e-06 5.26047e+09 0
-8.76831e-06 5.26047e+09 0
-2.6603e-06 5.26047e+09 0
-4.93779e-06 5.26047e+09 0
-1.19633e-05 5.26047e+09 0
-1.77619e-05 5.26047e+09 0
-8.76831e-06 5.26047e+09 0
-1.43758e-05 5.26047e+09 0
-1.77619e-05 5.26047e+09 0
-1.92535e-05 5.26047e+09 0
-1.43758e-05 5.26047e+09 0
-1.85223e-05 5.26047e+09 0
-8.76831e-06 5.26047e+09 0
-1.43758e-05 5.26047e+09 0
-4.93779e-06 5.26047e+09 0
-7.56506e-06 5.26047e+09 0
-1.43758e-05 5.26047e+09 0
-1.85223e-05 5.26047e+09 0
-7.56506e-06 5.26047e+09 0
-1.00483e-05 5.26047e+09 0
0 5.26047e+09 0
-2.6603e-06 5.26047e+09 0
0 5.26047e+09 0
-1.20395e-06 5.26047e+09 0
-2.6603e-06 5.26047e+09 0
-4.93779e-06 5.26047e+09 0
-1.20395e-06 5.26047e+09 0
-2.033e-07 5.26047e+09 0
0 5.26047e+09 0
-1.20395e-06 5.26047e+09 0
0 5.26047e+09 0
1.37224e-06 5.26047e+09 0
-1.20395e-06 5.26047e+09 0
-2.033e-07 5.26047e+09 0
1.37224e-06 5.26047e+09 0
4.80653e-06 5.26047e+09 0
-4.93779e-06 5.26047e+09 0
-7.56506e-06 5.26047e+09 0
-2.033e-07 5.26047e+09 0
1.19105e-06 5.26047e+09 0
-7.56506e-06 5.26047e+09 0
-1.00483e-05 5.26047e+09 0
1.19105e-06 5.26047e+09 0
3.72076e-06 5.26047e+09 0
-2.033e-07 5.26047e+09 0
1.19105e-06 5.26047e+09 0
4.80653e-06 5.26047e+09 0
8.61235e-06 5.26047e+09 0
1.19105e-06 5.26047e+09 0
3.72076e-06 5.26047e+09 0
8.61235e-06 5.26047e+09 0
1.28676e-05 5.26047e+09 0
0 5.26047e+09 0
1.37224e-06 5.26047e+09 0
0 5.26047e+09 0
4.06314e-06 5.26047e+09 0
1.37224e-06 5.26047e+09 0
4.80653e-06 5.26047e+09 0
4.06314e-06 5.26047e+09 0
7.14968e-06 5.26047e+09 0
0 5.26047e+09 0
4.06314e-06 5.26047e+09 0
0 5.26047e+09 0
5.6828e-06 5.26047e+09 0
4.06314e-06 5.26047e+09 0
7.14968e-06 5.26047e+09 0
5.6828e-06 5.26047e+09 0
8.5628e-06 5.26047e+09 0
4.80653e-06 5.26047e+09 0
8.61235e-06 5.26047e+09 0
7.14968e-06 5.26047e+09 0
1.10886e-05 5.26047e+09 0
8.61235e-06 5.26047e+09 0
1.28676e-05 5.26047e+09 0
1.10886e-05 5.26047e+09 0
1.75635e-05 5.26047e+09 0
7.14968e-06 5.26047e+09 0
1.10886e-05 5.26047e+09 0
8.5628e-06 5.26047e+09 0
1.08982e-05 5.26047e+09 0
1.10886e-05 5.26047e+09 0
1.75635e-05 5.26047e+09 0
1.08982e-05 5.26047e+09 0
1.46588e-05 5.26047e+09 0
0 5.26047e+09 0
5.6828e-06 5.26047e+09 0
0 5.26047e+09 0
4.25173e-06 5.26047e+09 0
5.6828e-06 5.26047e+09 0
8.5628e-06 5.26047e+09 0
4.25173e-06 5.26047e+09 0
7.70032e-06 5.26047e+09 0
0 5.26047e+09 0
4.25173e-06 5.26047e+09 0
0 5.26047e+09 0
2.89513e-06 5.26047e+09 0
4.25173e-06 5.26047e+09 0
7.70032e-06 5.26047e+09 0
2.89513e-06 5.26047e+09 0
6.25617e-06 5.26047e+09 0
8.5628e-06 5.26047e+09 0
1.08982e-05 5.26047e+09 0
7.70032e-06 5.26047e+09 0
9.71183e-06 5.26047e+09 0
1.08982e-05 5.26047e+09 0
1.46588e-05 5.26047e+09 0
9.71183e-06 5.26047e+09 0
1.37685e-05 5.26047e+09 0
7.70032e-06 5.26047e+09 0
9.71183e-06 5.26047e+09 0
6.25617e-06 5.26047e+09 0
9.65242e-06 5.26047e+09 0
9.71183e-06 5.26047e+09 0
1.37685e-05 5.26047e+09 0
9.65242e-06 5.26047e+09 0
1.33425e-05 5.26047e+09 0
1.46588e-05 5.26047e+09 0
2.0706e-05 5.26047e+09 0
1.37685e-05 5.26047e+09 0
1.84243e-05 5.26047e+09 0
2.0706e-05 5.26047e+09 0
2.84974e-05 5.26047e+09 0
1.84243e-05 5.26047e+09 0
2.26084e-05 5.26047e+09 0
1.37685e-05 5.26047e+09 0
1.84243e-05 5.26047e+09 0
1.33425e-05 5.26047e+09 0
1.62921e-05 5.26047e+09 0
1.84243e-05 5.26047e+09 0
2.26084e-05 5.26047e+09 0
1.62921e-05 5.26047e+09 0
1.74334e-05 5.26047e+09 0
2.84974e-05 5.26047e+09 0
2.67512e-05 5.26047e+09 0
2.26084e-05 5.26047e+09 0
2.16676e-05 5.26047e+09 0
2.67512e-05 5.26047e+09 0
1.65183e-05 5.26047e+09 0
2.16676e-05 5.26047e+09 0
1.55653e-05 5.26047e+09 0
2.26084e-05 5.26047e+09 0
2.16676e-05 5.26047e+09 0
1.74334e-05 5.26047e+09 0
1.72388e-05 5.26047e+09 0
2.16676e-05 5.26047e+09 0
1.55653e-05 5.26047e+09 0
1.72388e-05 5.26047e+09 0
1.42799e-05 5.26047e+09 0
1.09378e-05 5.26047e+09 0
1.0031e-05 5.26047e+09 0
-7.90598e-06 5.26047e+09 0
-7.59408e-06 5.26047e+09 0
1.0031e-05 5.26047e+09 0
6.95383e-06 5.26047e+09 0
-7.59408e-06 5.26047e+09 0
-4.61589e-06 5.26047e+09 0
-7.90598e-06 5.26047e+09 0
-7.59408e-06 5.26047e+09 0
-1.18359e-05 5.26047e+09 0
-1.61363e-05 5.26047e+09 0
-7.59408e-06 5.26047e+09 0
-4.61589e-06 5.26047e+09 0
-1.61363e-05 5.26047e+09 0
-1.2866e-05 5.26047e+09 0
-1.18359e-05 5.26047e+09 0
-1.61363e-05 5.26047e+09 0
-1.56681e-05 5.26047e+09 0
-1.96699e-05 5.26047e+09 0
-1.61363e-05 5.26047e+09 0
-1.2866e-05 5.26047e+09 0
-1.96699e-05 5.26047e+09 0
-1.71229e-05 5.26047e+09 0
-1.56681e-05 5.26047e+09 0
-1.96699e-05 5.26047e+09 0
-1.63409e-05 5.26047e+09 0
-1.9776e-05 5.26047e+09 0
-1.96699e-05 5.26047e+09 0
-1.71229e-05 5.26047e+09 0
-1.9776e-05 5.26047e+09 0
-1.81168e-05 5.26047e+09 0
-1.63409e-05 5.26047e+09 0
-1.9776e-05 5.26047e+09 0
-1.13904e-05 5.26047e+09 0
-1.67794e-05 5.26047e+09 0
-1.9776e-05 5.26047e+09 0
-1.81168e-05 5.26047e+09 0
-1.67794e-05 5.26047e+09 0
-1.74395e-05 5.26047e+09 0
-1.13904e-05 5.26047e+09 0
-1.67794e-05 5.26047e+09 0
-6.21762e-06 5.26047e+09 0
-1.27491e-05 5.26047e+09 0
-1.67794e-05 5.26047e+09 0
-1.74395e-05 5.26047e+09 0
-1.27491e-05 5.26047e+09 0
-1.31272e-05 5.26047e+09 0
1.65183e-05 5.26047e+09 0
3.89183e-06 5.26047e+09 0
1.55653e-05 5.26047e+09 0
7.25091e-06 5.26047e+09 0
3.89183e-06 5.26047e+09 0
-6.21762e-06 5.26047e+09 0
7.25091e-06 5.26047e+09 0
-1.26505e-06 5.26047e+09 0
1.55653e-05 5.26047e+09 0
7.25091e-06 5.26047e+09 0
1.42799e-05 5.26047e+09 0
8.76674e-06 5.26047e+09 0
7.25091e-06 5.26047e+09 0
-1.26505e-06 5.26047e+09 0
8.76674e-06 5.26047e+09 0
2.9163e-06 5.26047e+09 0
-6.21762e-06 5.26047e+09 0
-1.27491e-05 5.26047e+09 0
-1.26505e-06 5.26047e+09 0
-7.42588e-06 5.26047e+09 0
-1.27491e-05 5.26047e+09 0
-1.31272e-05 5.26047e+09 0
-7.42588e-06 5.26047e+09 0
-9.24165e-06 5.26047e+09 0
-1.26505e-06 5.26047e+09 0
-7.42588e-06 5.26047e+09 0
2.9163e-06 5.26047e+09 0
-1.47187e-06 5.26047e+09 0
-7.42588e-06 5.26047e+09 0
-9.24165e-06 5.26047e+09 0
-1.47187e-06 5.26047e+09 0
-3.96789e-06 5.26047e+09 0
-1.92535e-05 5.26047e+09 0
-2.25515e-05 5.26047e+09 0
-2.07168e-05 5.26047e+09 0
-2.29866e-05 5.26047e+09 0
-2.25515e-05 5.26047e+09 0
-2.38204e-05 5.26047e+09 0
-2.29866e-05 5.26047e+09 0
-2.35324e-05 5.26047e+09 0
-2.07168e-05 5.26047e+09 0
-2.29866e-05 5.26047e+09 0
-1.85223e-05 5.26047e+09 0
-2.03239e-05 5.26047e+09 0
-2.29866e-05 5.26047e+09 0
-2.35324e-05 5.26047e+09 0
-2.03239e-05 5.26047e+09 0
-1.93158e-05 5.26047e+09 0
-1.85223e-05 5.26047e+09 0
-2.03239e-05 5.26047e+09 0
-1.58362e-05 5.26047e+09 0
-1.72178e-05 5.26047e+09 0
-2.03239e-05 5.26047e+09 0
-1.93158e-05 5.26047e+09 0
-1.72178e-05 5.26047e+09 0
-1.54832e-05 5.26047e+09 0
-1.58362e-05 5.26047e+09 0
-1.72178e-05 5.26047e+09 0
-1.00483e-05 5.26047e+09 0
-1.06361e-05 5.26047e+09 0
-1.72178e-05 5.26047e+09 0
-1.54832e-05 5.26047e+09 0
-1.06361e-05 5.26047e+09 0
-1.07373e-05 5.26047e+09 0
-8.45869e-06 5.26047e+09 0
4.38496e-06 5.26047e+09 0
-8.83104e-06 5.26047e+09 0
-5.79029e-06 5.26047e+09 0
4.38496e-06 5.26047e+09 0
1.09378e-05 5.26047e+09 0
-5.79029e-06 5.26047e+09 0
-2.79282e-06 5.26047e+09 0
-8.83104e-06 5.26047e+09 0
-5.79029e-06 5.26047e+09 0
-7.43343e-06 5.26047e+09 0
-6.41189e-06 5.26047e+09 0
-5.79029e-06 5.26047e+09 0
-2.79282e-06 5.26047e+09 0
-6.41189e-06 5.26047e+09 0
-7.90598e-06 5.26047e+09 0
-7.43343e-06 5.26047e+09 0
-6.41189e-06 5.26047e+09 0
-2.04204e-06 5.26047e+09 0
-7.2717e-06 5.26047e+09 0
-6.41189e-06 5.26047e+09 0
-7.90598e-06 5.26047e+09 0
-7.2717e-06 5.26047e+09 0
-1.02529e-05 5.26047e+09 0
-2.04204e-06 5.26047e+09 0
-7.2717e-06 5.26047e+09 0
1.39048e-06 5.26047e+09 0
-6.35958e-06 5.26047e+09 0
-7.2717e-06 5.26047e+09 0
-1.02529e-05 5.26047e+09 0
-6.35958e-06 5.26047e+09 0
-1.18359e-05 5.26047e+09 0
-1.00483e-05 5.26047e+09 0
-1.06361e-05 5.26047e+09 0
-4.22156e-06 5.26047e+09 0
-2.6777e-06 5.26047e+09 0
-1.06361e-05 5.26047e+09 0
-1.07373e-05 5.26047e+09 0
-2.6777e-06 5.26047e+09 0
-2.08696e-06 5.26047e+09 0
-4.22156e-06 5.26047e+09 0
-2.6777e-06 5.26047e+09 0
3.72076e-06 5.26047e+09 0
5.50968e-06 5.26047e+09 0
-2.6777e-06 5.26047e+09 0
-2.08696e-06 5.26047e+09 0
5.50968e-06 5.26047e+09 0
8.82188e-06 5.26047e+09 0
3.72076e-06 5.26047e+09 0
5.50968e-06 5.26047e+09 0
8.26155e-06 5.26047e+09 0
1.18811e-05 5.26047e+09 0
5.50968e-06 5.26047e+09 0
8.82188e-06 5.26047e+09 0
1.18811e-05 5.26047e+09 0
1.55478e-05 5.26047e+09 0
8.26155e-06 5.26047e+09 0
1.18811e-05 5.26047e+09 0
1.28676e-05 5.26047e+09 0
1.56337e-05 5.26047e+09 0
1.18811e-05 5.26047e+09 0
1.55478e-05 5.26047e+09 0
1.56337e-05 5.26047e+09 0
1.96171e-05 5.26047e+09 0
8.82188e-06 5.26047e+09 0
1.04464e-05 5.26047e+09 0
1.55478e-05 5.26047e+09 0
1.86005e-05 5.26047e+09 0
1.04464e-05 5.26047e+09 0
1.14602e-05 5.26047e+09 0
1.86005e-05 5.26047e+09 0
2.39967e-05 5.26047e+09 0
1.55478e-05 5.26047e+09 0
1.86005e-05 5.26047e+09 0
1.96171e-05 5.26047e+09 0
2.26648e-05 5.26047e+09 0
1.86005e-05 5.26047e+09 0
2.39967e-05 5.26047e+09 0
2.26648e-05 5.26047e+09 0
2.81525e-05 5.26047e+09 0
1.39048e-06 5.26047e+09 0
-6.35958e-06 5.26047e+09 0
1.72737e-06 5.26047e+09 0
-6.98217e-06 5.26047e+09 0
-6.35958e-06 5.26047e+09 0
-1.18359e-05 5.26047e+09 0
-6.98217e-06 5.26047e+09 0
-1.35426e-05 5.26047e+09 0
1.72737e-06 5.26047e+09 0
-6.98217e-06 5.26047e+09 0
-4.55171e-06 5.26047e+09 0
-1.09749e-05 5.26047e+09 0
-6.98217e-06 5.26047e+09 0
-1.35426e-05 5.26047e+09 0
-1.09749e-05 5.26047e+09 0
-1.56681e-05 5.26047e+09 0
-4.55171e-06 5.26047e+09 0
-1.09749e-05 5.26047e+09 0
-7.08986e-06 5.26047e+09 0
-1.33797e-05 5.26047e+09 0
-1.09749e-05 5.26047e+09 0
-1.56681e-05 5.26047e+09 0
-1.33797e-05 5.26047e+09 0
-1.72645e-05 5.26047e+09 0
-7.08986e-06 5.26047e+09 0
-1.33797e-05 5.26047e+09 0
-8.68358e-06 5.26047e+09 0
-1.32659e-05 5.26047e+09 0
-1.33797e-05 5.26047e+09 0
-1.72645e-05 5.26047e+09 0
-1.32659e-05 5.26047e+09 0
-1.63409e-05 5.26047e+09 0
1.28676e-05 5.26047e+09 0
1.56337e-05 5.26047e+09 0
1.65068e-05 5.26047e+09 0
1.86923e-05 5.26047e+09 0
1.56337e-05 5.26047e+09 0
1.96171e-05 5.26047e+09 0
1.86923e-05 5.26047e+09 0
2.17011e-05 5.26047e+09 0
1.65068e-05 5.26047e+09 0
1.86923e-05 5.26047e+09 0
1.75635e-05 5.26047e+09 0
1.98176e-05 5.26047e+09 0
1.86923e-05 5.26047e+09 0
2.17011e-05 5.26047e+09 0
1.98176e-05 5.26047e+09 0
2.21921e-05 5.26047e+09 0
1.96171e-05 5.26047e+09 0
2.26648e-05 5.26047e+09 0
2.17011e-05 5.26047e+09 0
2.50877e-05 5.26047e+09 0
2.26648e-05 5.26047e+09 0
2.81525e-05 5.26047e+09 0
2.50877e-05 5.26047e+09 0
2.94722e-05 5.26047e+09 0
2.17011e-05 5.26047e+09 0
2.50877e-05 5.26047e+09 0
2.21921e-05 5.26047e+09 0
2.61446e-05 5.26047e+09 0
2.50877e-05 5.26047e+09 0
2.94722e-05 5.26047e+09 0
2.61446e-05 5.26047e+09 0
3.00225e-05 5.26047e+09 0
1.75635e-05 5.26047e+09 0
1.98176e-05 5.26047e+09 0
1.5721e-05 5.26047e+09 0
1.86847e-05 5.26047e+09 0
1.98176e-05 5.26047e+09 0
2.21921e-05 5.26047e+09 0
1.86847e-05 5.26047e+09 0
2.06677e-05 5.26047e+09 0
1.5721e-05 5.26047e+09 0
1.86847e-05 5.26047e+09 0
1.46588e-05 5.26047e+09 0
1.78305e-05 5.26047e+09 0
1.86847e-05 5.26047e+09 0
2.06677e-05 5.26047e+09 0
1.78305e-05 5.26047e+09 0
2.0706e-05 5.26047e+09 0
2.21921e-05 5.26047e+09 0
2.61446e-05 5.26047e+09 0
2.06677e-05 5.26047e+09 0
2.49911e-05 5.26047e+09 0
2.61446e-05 5.26047e+09 0
3.00225e-05 5.26047e+09 0
2.49911e-05 5.26047e+09 0
2.96754e-05 5.26047e+09 0
2.06677e-05 5.26047e+09 0
2.49911e-05 5.26047e+09 0
2.0706e-05 5.26047e+09 0
2.37075e-05 5.26047e+09 0
2.49911e-05 5.26047e+09 0
2.96754e-05 5.26047e+09 0
2.37075e-05 5.26047e+09 0
2.84974e-05 5.26047e+09 0
2.81525e-05 5.26047e+09 0
3.046e-05 5.26047e+09 0
2.94722e-05 5.26047e+09 0
3.12981e-05 5.26047e+09 0
3.046e-05 5.26047e+09 0
2.71976e-05 5.26047e+09 0
3.12981e-05 5.26047e+09 0
2.89547e-05 5.26047e+09 0
2.94722e-05 5.26047e+09 0
3.12981e-05 5.26047e+09 0
3.00225e-05 5.26047e+09 0
3.09053e-05 5.26047e+09 0
3.12981e-05 5.26047e+09 0
2.89547e-05 5.26047e+09 0
3.09053e-05 5.26047e+09 0
2.84552e-05 5.26047e+09 0
2.71976e-05 5.26047e+09 0
2.36266e-05 5.26047e+09 0
2.89547e-05 5.26047e+09 0
2.38626e-05 5.26047e+09 0
2.36266e-05 5.26047e+09 0
1.55315e-05 5.26047e+09 0
2.38626e-05 5.26047e+09 0
1.53842e-05 5.26047e+09 0
2.89547e-05 5.26047e+09 0
2.38626e-05 5.26047e+09 0
2.84552e-05 5.26047e+09 0
2.32242e-05 5.26047e+09 0
2.38626e-05 5.26047e+09 0
1.53842e-05 5.26047e+09 0
2.32242e-05 5.26047e+09 0
1.60507e-05 5.26047e+09 0
3.00225e-05 5.26047e+09 0
3.09053e-05 5.26047e+09 0
2.96754e-05 5.26047e+09 0
3.06939e-05 5.26047e+09 0
3.09053e-05 5.26047e+09 0
2.84552e-05 5.26047e+09 0
3.06939e-05 5.26047e+09 0
2.74172e-05 5.26047e+09 0
2.96754e-05 5.26047e+09 0
3.06939e-05 5.26047e+09 0
2.84974e-05 5.26047e+09 0
2.96587e-05 5.26047e+09 0
3.06939e-05 5.26047e+09 0
2.74172e-05 5.26047e+09 0
2.96587e-05 5.26047e+09 0
2.67512e-05 5.26047e+09 0
2.84552e-05 5.26047e+09 0
2.32242e-05 5.26047e+09 0
2.74172e-05 5.26047e+09 0
2.17975e-05 5.26047e+09 0
2.32242e-05 5.26047e+09 0
1.60507e-05 5.26047e+09 0
2.17975e-05 5.26047e+09 0
1.61876e-05 5.26047e+09 0
2.74172e-05 5.26047e+09 0
2.17975e-05 5.26047e+09 0
2.67512e-05 5.26047e+09 0
2.15343e-05 5.26047e+09 0
2.17975e-05 5.26047e+09 0
1.61876e-05 5.26047e+09 0
2.15343e-05 5.26047e+09 0
1.65183e-05 5.26047e+09 0
1.55315e-05 5.26047e+09 0
3.25083e-06 5.26047e+09 0
1.53842e-05 5.26047e+09 0
3.88825e-06 5.26047e+09 0
3.25083e-06 5.26047e+09 0
-8.68358e-06 5.26047e+09 0
3.88825e-06 5.26047e+09 0
-5.28596e-06 5.26047e+09 0
1.53842e-05 5.26047e+09 0
3.88825e-06 5.26047e+09 0
1.60507e-05 5.26047e+09 0
6.09197e-06 5.26047e+09 0
3.88825e-06 5.26047e+09 0
-5.28596e-06 5.26047e+09 0
6.09197e-06 5.26047e+09 0
-1.10773e-06 5.26047e+09 0
-8.68358e-06 5.26047e+09 0
-1.32659e-05 5.26047e+09 0
-5.28596e-06 5.26047e+09 0
-1.04702e-05 5.26047e+09 0
-1.32659e-05 5.26047e+09 0
-1.63409e-05 5.26047e+09 0
-1.04702e-05 5.26047e+09 0
-1.42607e-05 5.26047e+09 0
-5.28596e-06 5.26047e+09 0
-1.04702e-05 5.26047e+09 0
-1.10773e-06 5.26047e+09 0
-6.66806e-06 5.26047e+09 0
-1.04702e-05 5.26047e+09 0
-1.42607e-05 5.26047e+09 0
-6.66806e-06 5.26047e+09 0
-1.13904e-05 5.26047e+09 0
1.60507e-05 5.26047e+09 0
6.09197e-06 5.26047e+09 0
1.61876e-05 5.26047e+09 0
9.24663e-06 5.26047e+09 0
6.09197e-06 5.26047e+09 0
-1.10773e-06 5.26047e+09 0
9.24663e-06 5.26047e+09 0
7.53266e-07 5.26047e+09 0
1.61876e-05 5.26047e+09 0
9.24663e-06 5.26047e+09 0
1.65183e-05 5.26047e+09 0
1.0618e-05 5.26047e+09 0
9.24663e-06 5.26047e+09 0
7.53266e-07 5.26047e+09 0
1.0618e-05 5.26047e+09 0
3.89183e-06 5.26047e+09 0
-1.10773e-06 5.26047e+09 0
-6.66806e-06 5.26047e+09 0
7.53266e-07 5.26047e+09 0
-4.60084e-06 5.26047e+09 0
-6.66806e-06 5.26047e+09 0
-1.13904e-05 5.26047e+09 0
-4.60084e-06 5.26047e+09 0
-8.82333e-06 5.26047e+09 0
7.53266e-07 5.26047e+09 0
-4.60084e-06 5.26047e+09 0
3.89183e-06 5.26047e+09 0
-2.02653e-06 5.26047e+09 0
-4.60084e-06 5.26047e+09 0
-8.82333e-06 5.26047e+09 0
-2.02653e-06 5.26047e+09 0
-6.21762e-06 5.26047e+09 0
-3.84483e-05 5.26047e+09 0
-4.20447e-05 5.26047e+09 0
-3.13302e-05 5.26047e+09 0
-3.5499e-05 5.26047e+09 0
-4.20447e-05 5.26047e+09 0
-4.95738e-05 5.26047e+09 0
-3.5499e-05 5.26047e+09 0
-3.85385e-05 5.26047e+09 0
-3.13302e-05 5.26047e+09 0
-3.5499e-05 5.26047e+09 0
-2.42001e-05 5.26047e+09 0
-2.578e-05 5.26047e+09 0
-3.5499e-05 5.26047e+09 0
-3.85385e-05 5.26047e+09 0
-2.578e-05 5.26047e+09 0
-2.79292e-05 5.26047e+09 0
-4.95738e-05 5.26047e+09 0
-5.70626e-05 5.26047e+09 0
-3.85385e-05 5.26047e+09 0
-4.23731e-05 5.26047e+09 0
-5.70626e-05 5.26047e+09 0
-6.38612e-05 5.26047e+09 0
-4.23731e-05 5.26047e+09 0
-4.51515e-05 5.26047e+09 0
-3.85385e-05 5.26047e+09 0
-4.23731e-05 5.26047e+09 0
-2.79292e-05 5.26047e+09 0
-3.35069e-05 5.26047e+09 0
-4.23731e-05 5.26047e+09 0
-4.51515e-05 5.26047e+09 0
-3.35069e-05 5.26047e+09 0
-3.4682e-05 5.26047e+09 0
-2.42001e-05 5.26047e+09 0
-2.578e-05 5.26047e+09 0
-1.66527e-05 5.26047e+09 0
-1.66291e-05 5.26047e+09 0
-2.578e-05 5.26047e+09 0
-2.79292e-05 5.26047e+09 0