# vtk DataFile Version 3.0
#This file was generated by the deal.II library on 2017/1/25 at 14:59:01
ASCII
DATASET UNSTRUCTURED_GRID

POINTS 3904 double
0.75 0 0
0.875 0 0
0.75 0.125 0
0.875 0.125 0
0.875 0 0
1 0 0
0.875 0.125 0
1 0.125 0
0.75 0.125 0
0.875 0.125 0
0.75 0.25 0
0.875 0.25 0
0.875 0.125 0
1 0.125 0
0.875 0.25 0
1 0.25 0
0.75 0.25 0
0.875 0.25 0
0.75 0.375 0
0.875 0.375 0
0.875 0.25 0
1 0.25 0
0.875 0.375 0
1 0.375 0
0.75 0.375 0
0.875 0.375 0
0.75 0.5 0
0.875 0.5 0
0.875 0.375 0
1 0.375 0
0.875 0.5 0
1 0.5 0
0 0.5 0
0.125 0.5 0
0 0.625 0
0.125 0.625 0
0.125 0.5 0
0.25 0.5 0
0.125 0.625 0
0.25 0.625 0
0 0.625 0
0.125 0.625 0
0 0.75 0
0.125 0.75 0
0.125 0.625 0
0.25 0.625 0
0.125 0.75 0
0.25 0.75 0
0.25 0.5 0
0.375 0.5 0
0.25 0.625 0
0.375 0.625 0
0.375 0.5 0
0.5 0.5 0
0.375 0.625 0
0.5 0.625 0
0.25 0.625 0
0.375 0.625 0
0.25 0.75 0
0.375 0.75 0
0.375 0.625 0
0.5 0.625 0
0.375 0.75 0
0.5 0.75 0
0 0.75 0
0.125 0.75 0
0 0.875 0
0.125 0.875 0
0.125 0.75 0
0.25 0.75 0
0.125 0.875 0
0.25 0.875 0
0 0.875 0
0.125 0.875 0
0 1 0
0.125 1 0
0.125 0.875 0
0.25 0.875 0
0.125 1 0
0.25 1 0
0.25 0.75 0
0.375 0.75 0
0.25 0.875 0
0.375 0.875 0
0.375 0.75 0
0.5 0.75 0
0.375 0.875 0
0.5 0.875 0
0.25 0.875 0
0.375 0.875 0
0.25 1 0
0.375 1 0
0.375 0.875 0
0.5 0.875 0
0.375 1 0
0.5 1 0
0.5 0.5 0
0.625 0.5 0
0.5 0.625 0
0.625 0.625 0
0.625 0.5 0
0.75 0.5 0
0.625 0.625 0
0.75 0.625 0
0.5 0.625 0
0.625 0.625 0
0.5 0.75 0
0.625 0.75 0
0.625 0.625 0
0.75 0.625 0
0.625 0.75 0
0.75 0.75 0
0.75 0.5 0
0.875 0.5 0
0.75 0.625 0
0.875 0.625 0
0.875 0.5 0
1 0.5 0
0.875 0.625 0
1 0.625 0
0.75 0.625 0
0.875 0.625 0
0.75 0.75 0
0.875 0.75 0
0.875 0.625 0
1 0.625 0
0.875 0.75 0
1 0.75 0
0.5 0.75 0
0.625 0.75 0
0.5 0.875 0
0.625 0.875 0
0.625 0.75 0
0.75 0.75 0
0.625 0.875 0
0.75 0.875 0
0.5 0.875 0
0.625 0.875 0
0.5 1 0
0.625 1 0
0.625 0.875 0
0.75 0.875 0
0.625 1 0
0.75 1 0
0.75 0.75 0
0.875 0.75 0
0.75 0.875 0
0.875 0.875 0
0.875 0.75 0
1 0.75 0
0.875 0.875 0
1 0.875 0
0.75 0.875 0
0.875 0.875 0
0.75 1 0
0.875 1 0
0.875 0.875 0
1 0.875 0
0.875 1 0
1 1 0
0 0 0
0.0625 0 0
0 0.0625 0
0.0625 0.0625 0
0.0625 0 0
0.125 0 0
0.0625 0.0625 0
0.125 0.0625 0
0 0.0625 0
0.0625 0.0625 0
0 0.125 0
0.0625 0.125 0
0.0625 0.0625 0
0.125 0.0625 0
0.0625 0.125 0
0.125 0.125 0
0.125 0 0
0.1875 0 0
0.125 0.0625 0
0.1875 0.0625 0
0.1875 0 0
0.25 0 0
0.1875 0.0625 0
0.25 0.0625 0
0.125 0.0625 0
0.1875 0.0625 0
0.125 0.125 0
0.1875 0.125 0
0.1875 0.0625 0
0.25 0.0625 0
0.1875 0.125 0
0.25 0.125 0
0 0.125 0
0.0625 0.125 0
0 0.1875 0
0.0625 0.1875 0
0.0625 0.125 0
0.125 0.125 0
0.0625 0.1875 0
0.125 0.1875 0
0 0.1875 0
0.0625 0.1875 0
0 0.25 0
0.0625 0.25 0
0.0625 0.1875 0
0.125 0.1875 0
0.0625 0.25 0
0.125 0.25 0
0.125 0.125 0
0.1875 0.125 0
0.125 0.1875 0
0.1875 0.1875 0
0.1875 0.125 0
0.25 0.125 0
0.1875 0.1875 0
0.25 0.1875 0
0.125 0.1875 0
0.1875 0.1875 0
0.125 0.25 0
0.1875 0.25 0
0.1875 0.1875 0
0.25 0.1875 0
0.1875 0.25 0
0.25 0.25 0
0 0.25 0
0.0625 0.25 0
0 0.3125 0
0.0625 0.3125 0
0.0625 0.25 0
0.125 0.25 0
0.0625 0.3125 0
0.125 0.3125 0
0 0.3125 0
0.0625 0.3125 0
0 0.375 0
0.0625 0.375 0
0.0625 0.3125 0
0.125 0.3125 0
0.0625 0.375 0
0.125 0.375 0
0.125 0.25 0
0.1875 0.25 0
0.125 0.3125 0
0.1875 0.3125 0
0.1875 0.25 0
0.25 0.25 0
0.1875 0.3125 0
0.25 0.3125 0
0.125 0.3125 0
0.1875 0.3125 0
0.125 0.375 0
0.1875 0.375 0
0.1875 0.3125 0
0.25 0.3125 0
0.1875 0.375 0
0.25 0.375 0
0 0.375 0
0.0625 0.375 0
0 0.4375 0
0.0625 0.4375 0
0.0625 0.375 0
0.125 0.375 0
0.0625 0.4375 0
0.125 0.4375 0
0 0.4375 0
0.0625 0.4375 0
0 0.5 0
0.0625 0.5 0
0.0625 0.4375 0
0.125 0.4375 0
0.0625 0.5 0
0.125 0.5 0
0.125 0.375 0
0.1875 0.375 0
0.125 0.4375 0
0.1875 0.4375 0
0.1875 0.375 0
0.25 0.375 0
0.1875 0.4375 0
0.25 0.4375 0
0.125 0.4375 0
0.1875 0.4375 0
0.125 0.5 0
0.1875 0.5 0
0.1875 0.4375 0
0.25 0.4375 0
0.1875 0.5 0
0.25 0.5 0
0.25 0.375 0
0.3125 0.375 0
0.25 0.4375 0
0.3125 0.4375 0
0.3125 0.375 0
0.375 0.375 0
0.3125 0.4375 0
0.375 0.4375 0
0.25 0.4375 0
0.3125 0.4375 0
0.25 0.5 0
0.3125 0.5 0
0.3125 0.4375 0
0.375 0.4375 0
0.3125 0.5 0
0.375 0.5 0
0.375 0.375 0
0.4375 0.375 0
0.375 0.4375 0
0.4375 0.4375 0
0.4375 0.375 0
0.5 0.375 0
0.4375 0.4375 0
0.5 0.4375 0
0.375 0.4375 0
0.4375 0.4375 0
0.375 0.5 0
0.4375 0.5 0
0.4375 0.4375 0
0.5 0.4375 0
0.4375 0.5 0
0.5 0.5 0
0.625 0 0
0.6875 0 0
0.625 0.0625 0
0.6875 0.0625 0
0.6875 0 0
0.75 0 0
0.6875 0.0625 0
0.75 0.0625 0
0.625 0.0625 0
0.6875 0.0625 0
0.625 0.125 0
0.6875 0.125 0
0.6875 0.0625 0
0.75 0.0625 0
0.6875 0.125 0
0.75 0.125 0
0.625 0.125 0
0.6875 0.125 0
0.625 0.1875 0
0.6875 0.1875 0
0.6875 0.125 0
0.75 0.125 0
0.6875 0.1875 0
0.75 0.1875 0
0.625 0.1875 0
0.6875 0.1875 0
0.625 0.25 0
0.6875 0.25 0
0.6875 0.1875 0
0.75 0.1875 0
0.6875 0.25 0
0.75 0.25 0
0.625 0.25 0
0.6875 0.25 0
0.625 0.3125 0
0.6875 0.3125 0
0.6875 0.25 0
0.75 0.25 0
0.6875 0.3125 0
0.75 0.3125 0
0.625 0.3125 0
0.6875 0.3125 0
0.625 0.375 0
0.6875 0.375 0
0.6875 0.3125 0
0.75 0.3125 0
0.6875 0.375 0
0.75 0.375 0
0.5 0.375 0
0.5625 0.375 0
0.5 0.4375 0
0.5625 0.4375 0
0.5625 0.375 0
0.625 0.375 0
0.5625 0.4375 0
0.625 0.4375 0
0.5 0.4375 0
0.5625 0.4375 0
0.5 0.5 0
0.5625 0.5 0
0.5625 0.4375 0
0.625 0.4375 0
0.5625 0.5 0
0.625 0.5 0
0.625 0.375 0
0.6875 0.375 0
0.625 0.4375 0
0.6875 0.4375 0
0.6875 0.375 0
0.75 0.375 0
0.6875 0.4375 0
0.75 0.4375 0
0.625 0.4375 0
0.6875 0.4375 0
0.625 0.5 0
0.6875 0.5 0
0.6875 0.4375 0
0.75 0.4375 0
0.6875 0.5 0
0.75 0.5 0
0.25 0 0
0.28125 0 0
0.25 0.03125 0
0.28125 0.03125 0
0.28125 0 0
0.3125 0 0
0.28125 0.03125 0
0.3125 0.03125 0
0.25 0.03125 0
0.28125 0.03125 0
0.25 0.0625 0
0.28125 0.0625 0
0.28125 0.03125 0
0.3125 0.03125 0
0.28125 0.0625 0
0.3125 0.0625 0
0.25 0.0625 0
0.28125 0.0625 0
0.25 0.09375 0
0.28125 0.09375 0
0.28125 0.0625 0
0.3125 0.0625 0
0.28125 0.09375 0
0.3125 0.09375 0
0.25 0.09375 0
0.28125 0.09375 0
0.25 0.125 0
0.28125 0.125 0
0.28125 0.09375 0
0.3125 0.09375 0
0.28125 0.125 0
0.3125 0.125 0
0.5625 0 0
0.59375 0 0
0.5625 0.03125 0
0.59375 0.03125 0
0.59375 0 0
0.625 0 0
0.59375 0.03125 0
0.625 0.03125 0
0.5625 0.03125 0
0.59375 0.03125 0
0.5625 0.0625 0
0.59375 0.0625 0
0.59375 0.03125 0
0.625 0.03125 0
0.59375 0.0625 0
0.625 0.0625 0
0.5625 0.0625 0
0.59375 0.0625 0
0.5625 0.09375 0
0.59375 0.09375 0
0.59375 0.0625 0
0.625 0.0625 0
0.59375 0.09375 0
0.625 0.09375 0
0.5625 0.09375 0
0.59375 0.09375 0
0.5625 0.125 0
0.59375 0.125 0
0.59375 0.09375 0
0.625 0.09375 0
0.59375 0.125 0
0.625 0.125 0
0.25 0.125 0
0.28125 0.125 0
0.25 0.15625 0
0.28125 0.15625 0
0.28125 0.125 0
0.3125 0.125 0
0.28125 0.15625 0
0.3125 0.15625 0
0.25 0.15625 0
0.28125 0.15625 0
0.25 0.1875 0
0.28125 0.1875 0
0.28125 0.15625 0
0.3125 0.15625 0
0.28125 0.1875 0
0.3125 0.1875 0
0.25 0.1875 0
0.28125 0.1875 0
0.25 0.21875 0
0.28125 0.21875 0
0.28125 0.1875 0
0.3125 0.1875 0
0.28125 0.21875 0
0.3125 0.21875 0
0.25 0.21875 0
0.28125 0.21875 0
0.25 0.25 0
0.28125 0.25 0
0.28125 0.21875 0
0.3125 0.21875 0
0.28125 0.25 0
0.3125 0.25 0
0.3125 0.1875 0
0.34375 0.1875 0
0.3125 0.21875 0
0.34375 0.21875 0
0.34375 0.1875 0
0.375 0.1875 0
0.34375 0.21875 0
0.375 0.21875 0
0.3125 0.21875 0
0.34375 0.21875 0
0.3125 0.25 0
0.34375 0.25 0
0.34375 0.21875 0
0.375 0.21875 0
0.34375 0.25 0
0.375 0.25 0
0.5625 0.125 0
0.59375 0.125 0
0.5625 0.15625 0
0.59375 0.15625 0
0.59375 0.125 0
0.625 0.125 0
0.59375 0.15625 0
0.625 0.15625 0
0.5625 0.15625 0
0.59375 0.15625 0
0.5625 0.1875 0
0.59375 0.1875 0
0.59375 0.15625 0
0.625 0.15625 0
0.59375 0.1875 0
0.625 0.1875 0
0.5625 0.1875 0
0.59375 0.1875 0
0.5625 0.21875 0
0.59375 0.21875 0
0.59375 0.1875 0
0.625 0.1875 0
0.59375 0.21875 0
0.625 0.21875 0
0.5625 0.21875 0
0.59375 0.21875 0
0.5625 0.25 0
0.59375 0.25 0
0.59375 0.21875 0
0.625 0.21875 0
0.59375 0.25 0
0.625 0.25 0
0.25 0.25 0
0.28125 0.25 0
0.25 0.28125 0
0.28125 0.28125 0
0.28125 0.25 0
0.3125 0.25 0
0.28125 0.28125 0
0.3125 0.28125 0
0.25 0.28125 0
0.28125 0.28125 0
0.25 0.3125 0
0.28125 0.3125 0
0.28125 0.28125 0
0.3125 0.28125 0
0.28125 0.3125 0
0.3125 0.3125 0
0.3125 0.25 0
0.34375 0.25 0
0.3125 0.28125 0
0.34375 0.28125 0
0.34375 0.25 0
0.375 0.25 0
0.34375 0.28125 0
0.375 0.28125 0
0.3125 0.28125 0
0.34375 0.28125 0
0.3125 0.3125 0
0.34375 0.3125 0
0.34375 0.28125 0
0.375 0.28125 0
0.34375 0.3125 0
0.375 0.3125 0
0.25 0.3125 0
0.28125 0.3125 0
0.25 0.34375 0
0.28125 0.34375 0
0.28125 0.3125 0
0.3125 0.3125 0
0.28125 0.34375 0
0.3125 0.34375 0
0.25 0.34375 0
0.28125 0.34375 0
0.25 0.375 0
0.28125 0.375 0
0.28125 0.34375 0
0.3125 0.34375 0
0.28125 0.375 0
0.3125 0.375 0
0.3125 0.3125 0
0.34375 0.3125 0
0.3125 0.34375 0
0.34375 0.34375 0
0.34375 0.3125 0
0.375 0.3125 0
0.34375 0.34375 0
0.375 0.34375 0
0.3125 0.34375 0
0.34375 0.34375 0
0.3125 0.375 0
0.34375 0.375 0
0.34375 0.34375 0
0.375 0.34375 0
0.34375 0.375 0
0.375 0.375 0
0.375 0.25 0
0.40625 0.25 0
0.375 0.28125 0
0.40625 0.28125 0
0.40625 0.25 0
0.4375 0.25 0
0.40625 0.28125 0
0.4375 0.28125 0
0.375 0.28125 0
0.40625 0.28125 0
0.375 0.3125 0
0.40625 0.3125 0
0.40625 0.28125 0
0.4375 0.28125 0
0.40625 0.3125 0
0.4375 0.3125 0
0.4375 0.25 0
0.46875 0.25 0
0.4375 0.28125 0
0.46875 0.28125 0
0.46875 0.25 0
0.5 0.25 0
0.46875 0.28125 0
0.5 0.28125 0
0.4375 0.28125 0
0.46875 0.28125 0
0.4375 0.3125 0
0.46875 0.3125 0
0.46875 0.28125 0
0.5 0.28125 0
0.46875 0.3125 0
0.5 0.3125 0
0.375 0.3125 0
0.40625 0.3125 0
0.375 0.34375 0
0.40625 0.34375 0
0.40625 0.3125 0
0.4375 0.3125 0
0.40625 0.34375 0
0.4375 0.34375 0
0.375 0.34375 0
0.40625 0.34375 0
0.375 0.375 0
0.40625 0.375 0
0.40625 0.34375 0
0.4375 0.34375 0
0.40625 0.375 0
0.4375 0.375 0
0.4375 0.3125 0
0.46875 0.3125 0
0.4375 0.34375 0
0.46875 0.34375 0
0.46875 0.3125 0
0.5 0.3125 0
0.46875 0.34375 0
0.5 0.34375 0
0.4375 0.34375 0
0.46875 0.34375 0
0.4375 0.375 0
0.46875 0.375 0
0.46875 0.34375 0
0.5 0.34375 0
0.46875 0.375 0
0.5 0.375 0
0.5 0.25 0
0.53125 0.25 0
0.5 0.28125 0
0.53125 0.28125 0
0.53125 0.25 0
0.5625 0.25 0
0.53125 0.28125 0
0.5625 0.28125 0
0.5 0.28125 0
0.53125 0.28125 0
0.5 0.3125 0
0.53125 0.3125 0
[...]
POINT_DATA 3904
VECTORS velocity double
5.26059e-06 6.40364e+09 0
-1.6752e-06 6.40364e+09 0
-1.40022e-05 6.40364e+09 0
-7.25654e-06 6.40364e+09 0
-1.6752e-06 6.40364e+09 0
0 6.40364e+09 0
-7.25654e-06 6.40364e+09 0
0 6.40364e+09 0
-1.40022e-05 6.40364e+09 0
-7.25654e-06 6.40364e+09 0
-1.327e-05 6.40364e+09 0
-8.3152e-06 6.40364e+09 0
-7.25654e-06 6.40364e+09 0
0 6.40364e+09 0
-8.3152e-06 6.40364e+09 0
0 6.40364e+09 0
-1.327e-05 6.40364e+09 0
-8.3152e-06 6.40364e+09 0
-7.91909e-06 6.40364e+09 0
-5.5183e-06 6.40364e+09 0
-8.3152e-06 6.40364e+09 0
0 6.40364e+09 0
-5.5183e-06 6.40364e+09 0
0 6.40364e+09 0
-7.91909e-06 6.40364e+09 0
-5.5183e-06 6.40364e+09 0
-3.26458e-06 6.40364e+09 0
-2.90905e-06 6.40364e+09 0
-5.5183e-06 6.40364e+09 0
0 6.40364e+09 0
-2.90905e-06 6.40364e+09 0
0 6.40364e+09 0
0 6.40364e+09 0
4.31557e-06 6.40364e+09 0
0 6.40364e+09 0
4.21409e-06 6.40364e+09 0
4.31557e-06 6.40364e+09 0
9.38751e-06 6.40364e+09 0
4.21409e-06 6.40364e+09 0
5.96795e-06 6.40364e+09 0
0 6.40364e+09 0
4.21409e-06 6.40364e+09 0
0 6.40364e+09 0
4.58883e-06 6.40364e+09 0
4.21409e-06 6.40364e+09 0
5.96795e-06 6.40364e+09 0
4.58883e-06 6.40364e+09 0
5.3325e-06 6.40364e+09 0
9.38751e-06 6.40364e+09 0
1.16055e-05 6.40364e+09 0
5.96795e-06 6.40364e+09 0
6.67945e-06 6.40364e+09 0
1.16055e-05 6.40364e+09 0
8.61299e-06 6.40364e+09 0
6.67945e-06 6.40364e+09 0
5.08166e-06 6.40364e+09 0
5.96795e-06 6.40364e+09 0
6.67945e-06 6.40364e+09 0
5.3325e-06 6.40364e+09 0
5.58342e-06 6.40364e+09 0
6.67945e-06 6.40364e+09 0
5.08166e-06 6.40364e+09 0
5.58342e-06 6.40364e+09 0
3.92158e-06 6.40364e+09 0
0 6.40364e+09 0
4.58883e-06 6.40364e+09 0
0 6.40364e+09 0
3.14808e-06 6.40364e+09 0
4.58883e-06 6.40364e+09 0
5.3325e-06 6.40364e+09 0
3.14808e-06 6.40364e+09 0
6.28268e-06 6.40364e+09 0
0 6.40364e+09 0
3.14808e-06 6.40364e+09 0
0 6.40364e+09 0
2.14104e-06 6.40364e+09 0
3.14808e-06 6.40364e+09 0
6.28268e-06 6.40364e+09 0
2.14104e-06 6.40364e+09 0
3.77332e-06 6.40364e+09 0
5.3325e-06 6.40364e+09 0
5.58342e-06 6.40364e+09 0
6.28268e-06 6.40364e+09 0
5.51274e-06 6.40364e+09 0
5.58342e-06 6.40364e+09 0
3.92158e-06 6.40364e+09 0
5.51274e-06 6.40364e+09 0
4.04209e-06 6.40364e+09 0
6.28268e-06 6.40364e+09 0
5.51274e-06 6.40364e+09 0
3.77332e-06 6.40364e+09 0
7.71927e-06 6.40364e+09 0
5.51274e-06 6.40364e+09 0
4.04209e-06 6.40364e+09 0
7.71927e-06 6.40364e+09 0
8.00301e-06 6.40364e+09 0
8.61299e-06 6.40364e+09 0
1.97135e-06 6.40364e+09 0
5.08166e-06 6.40364e+09 0
2.98016e-06 6.40364e+09 0
1.97135e-06 6.40364e+09 0
-3.26458e-06 6.40364e+09 0
2.98016e-06 6.40364e+09 0
1.54273e-06 6.40364e+09 0
5.08166e-06 6.40364e+09 0
2.98016e-06 6.40364e+09 0
3.92158e-06 6.40364e+09 0
3.13259e-06 6.40364e+09 0
2.98016e-06 6.40364e+09 0
1.54273e-06 6.40364e+09 0
3.13259e-06 6.40364e+09 0
2.68802e-06 6.40364e+09 0
-3.26458e-06 6.40364e+09 0
-2.90905e-06 6.40364e+09 0
1.54273e-06 6.40364e+09 0
7.42795e-08 6.40364e+09 0
-2.90905e-06 6.40364e+09 0
0 6.40364e+09 0
7.42795e-08 6.40364e+09 0
0 6.40364e+09 0
1.54273e-06 6.40364e+09 0
7.42795e-08 6.40364e+09 0
2.68802e-06 6.40364e+09 0
7.79762e-07 6.40364e+09 0
7.42795e-08 6.40364e+09 0
0 6.40364e+09 0
7.79762e-07 6.40364e+09 0
0 6.40364e+09 0
3.92158e-06 6.40364e+09 0
3.13259e-06 6.40364e+09 0
4.04209e-06 6.40364e+09 0
2.86256e-06 6.40364e+09 0
3.13259e-06 6.40364e+09 0
2.68802e-06 6.40364e+09 0
2.86256e-06 6.40364e+09 0
6.63921e-07 6.40364e+09 0
4.04209e-06 6.40364e+09 0
2.86256e-06 6.40364e+09 0
8.00301e-06 6.40364e+09 0
5.8207e-06 6.40364e+09 0
2.86256e-06 6.40364e+09 0
6.63921e-07 6.40364e+09 0
5.8207e-06 6.40364e+09 0
3.86154e-06 6.40364e+09 0
2.68802e-06 6.40364e+09 0
7.79762e-07 6.40364e+09 0
6.63921e-07 6.40364e+09 0
1.14238e-06 6.40364e+09 0
7.79762e-07 6.40364e+09 0
0 6.40364e+09 0
1.14238e-06 6.40364e+09 0
0 6.40364e+09 0
6.63921e-07 6.40364e+09 0
1.14238e-06 6.40364e+09 0
3.86154e-06 6.40364e+09 0
5.80001e-07 6.40364e+09 0
1.14238e-06 6.40364e+09 0
0 6.40364e+09 0
5.80001e-07 6.40364e+09 0
0 6.40364e+09 0
0 6.40364e+09 0
-4.26093e-06 6.40364e+09 0
0 6.40364e+09 0
-2.95348e-06 6.40364e+09 0
-4.26093e-06 6.40364e+09 0
-8.00603e-06 6.40364e+09 0
-2.95348e-06 6.40364e+09 0
-5.85763e-06 6.40364e+09 0
0 6.40364e+09 0
-2.95348e-06 6.40364e+09 0
0 6.40364e+09 0
-5.19859e-07 6.40364e+09 0
-2.95348e-06 6.40364e+09 0
-5.85763e-06 6.40364e+09 0
-5.19859e-07 6.40364e+09 0
-2.46658e-06 6.40364e+09 0
-8.00603e-06 6.40364e+09 0
-1.22287e-05 6.40364e+09 0
-5.85763e-06 6.40364e+09 0
-9.79784e-06 6.40364e+09 0
-1.22287e-05 6.40364e+09 0
-1.3316e-05 6.40364e+09 0
-9.79784e-06 6.40364e+09 0
-1.30538e-05 6.40364e+09 0
-5.85763e-06 6.40364e+09 0
-9.79784e-06 6.40364e+09 0
-2.46658e-06 6.40364e+09 0
-2.77882e-06 6.40364e+09 0
-9.79784e-06 6.40364e+09 0
-1.30538e-05 6.40364e+09 0
-2.77882e-06 6.40364e+09 0
-1.37609e-06 6.40364e+09 0
0 6.40364e+09 0
-5.19859e-07 6.40364e+09 0
0 6.40364e+09 0
1.08522e-06 6.40364e+09 0
-5.19859e-07 6.40364e+09 0
-2.46658e-06 6.40364e+09 0
1.08522e-06 6.40364e+09 0
2.384e-06 6.40364e+09 0
0 6.40364e+09 0
1.08522e-06 6.40364e+09 0
0 6.40364e+09 0
3.08377e-06 6.40364e+09 0
1.08522e-06 6.40364e+09 0
2.384e-06 6.40364e+09 0
3.08377e-06 6.40364e+09 0
6.92605e-06 6.40364e+09 0
-2.46658e-06 6.40364e+09 0
-2.77882e-06 6.40364e+09 0
2.384e-06 6.40364e+09 0
5.57333e-06 6.40364e+09 0
-2.77882e-06 6.40364e+09 0
-1.37609e-06 6.40364e+09 0
5.57333e-06 6.40364e+09 0
9.27437e-06 6.40364e+09 0
2.384e-06 6.40364e+09 0
5.57333e-06 6.40364e+09 0
6.92605e-06 6.40364e+09 0
1.18619e-05 6.40364e+09 0
5.57333e-06 6.40364e+09 0
9.27437e-06 6.40364e+09 0
1.18619e-05 6.40364e+09 0
1.61219e-05 6.40364e+09 0
0 6.40364e+09 0
3.08377e-06 6.40364e+09 0
0 6.40364e+09 0
4.1831e-06 6.40364e+09 0
3.08377e-06 6.40364e+09 0
6.92605e-06 6.40364e+09 0
4.1831e-06 6.40364e+09 0
8.32667e-06 6.40364e+09 0
0 6.40364e+09 0
4.1831e-06 6.40364e+09 0
0 6.40364e+09 0
5.16466e-06 6.40364e+09 0
4.1831e-06 6.40364e+09 0
8.32667e-06 6.40364e+09 0
5.16466e-06 6.40364e+09 0
6.96195e-06 6.40364e+09 0
6.92605e-06 6.40364e+09 0
1.18619e-05 6.40364e+09 0
8.32667e-06 6.40364e+09 0
1.19906e-05 6.40364e+09 0
1.18619e-05 6.40364e+09 0
1.61219e-05 6.40364e+09 0
1.19906e-05 6.40364e+09 0
1.55553e-05 6.40364e+09 0
8.32667e-06 6.40364e+09 0
1.19906e-05 6.40364e+09 0
6.96195e-06 6.40364e+09 0
8.24649e-06 6.40364e+09 0
1.19906e-05 6.40364e+09 0
1.55553e-05 6.40364e+09 0
8.24649e-06 6.40364e+09 0
1.18623e-05 6.40364e+09 0
0 6.40364e+09 0
5.16466e-06 6.40364e+09 0
0 6.40364e+09 0
2.81729e-06 6.40364e+09 0
5.16466e-06 6.40364e+09 0
6.96195e-06 6.40364e+09 0
2.81729e-06 6.40364e+09 0
4.03712e-06 6.40364e+09 0
0 6.40364e+09 0
2.81729e-06 6.40364e+09 0
0 6.40364e+09 0
1.86781e-06 6.40364e+09 0
2.81729e-06 6.40364e+09 0
4.03712e-06 6.40364e+09 0
1.86781e-06 6.40364e+09 0
4.31557e-06 6.40364e+09 0
6.96195e-06 6.40364e+09 0
8.24649e-06 6.40364e+09 0
4.03712e-06 6.40364e+09 0
7.04226e-06 6.40364e+09 0
8.24649e-06 6.40364e+09 0
1.18623e-05 6.40364e+09 0
7.04226e-06 6.40364e+09 0
1.07862e-05 6.40364e+09 0
4.03712e-06 6.40364e+09 0
7.04226e-06 6.40364e+09 0
4.31557e-06 6.40364e+09 0
7.38981e-06 6.40364e+09 0
7.04226e-06 6.40364e+09 0
1.07862e-05 6.40364e+09 0
7.38981e-06 6.40364e+09 0
9.38751e-06 6.40364e+09 0
1.18623e-05 6.40364e+09 0
1.68926e-05 6.40364e+09 0
1.07862e-05 6.40364e+09 0
1.33965e-05 6.40364e+09 0
1.68926e-05 6.40364e+09 0
2.10197e-05 6.40364e+09 0
1.33965e-05 6.40364e+09 0
1.37681e-05 6.40364e+09 0
1.07862e-05 6.40364e+09 0
1.33965e-05 6.40364e+09 0
9.38751e-06 6.40364e+09 0
1.08309e-05 6.40364e+09 0
1.33965e-05 6.40364e+09 0
1.37681e-05 6.40364e+09 0
1.08309e-05 6.40364e+09 0
1.16055e-05 6.40364e+09 0
2.10197e-05 6.40364e+09 0
1.72564e-05 6.40364e+09 0
1.37681e-05 6.40364e+09 0
1.33241e-05 6.40364e+09 0
1.72564e-05 6.40364e+09 0
1.09612e-05 6.40364e+09 0
1.33241e-05 6.40364e+09 0
1.07291e-05 6.40364e+09 0
1.37681e-05 6.40364e+09 0
1.33241e-05 6.40364e+09 0
1.16055e-05 6.40364e+09 0
1.13945e-05 6.40364e+09 0
1.33241e-05 6.40364e+09 0
1.07291e-05 6.40364e+09 0
1.13945e-05 6.40364e+09 0
8.61299e-06 6.40364e+09 0
7.24626e-06 6.40364e+09 0
3.18291e-06 6.40364e+09 0
-1.55567e-05 6.40364e+09 0
-1.16988e-05 6.40364e+09 0
3.18291e-06 6.40364e+09 0
5.26059e-06 6.40364e+09 0
-1.16988e-05 6.40364e+09 0
-7.28203e-06 6.40364e+09 0
-1.55567e-05 6.40364e+09 0
-1.16988e-05 6.40364e+09 0
-1.62908e-05 6.40364e+09 0
-1.74774e-05 6.40364e+09 0
-1.16988e-05 6.40364e+09 0
-7.28203e-06 6.40364e+09 0
-1.74774e-05 6.40364e+09 0
-1.40022e-05 6.40364e+09 0
-1.62908e-05 6.40364e+09 0
-1.74774e-05 6.40364e+09 0
-1.42256e-05 6.40364e+09 0
-1.82068e-05 6.40364e+09 0
-1.74774e-05 6.40364e+09 0
-1.40022e-05 6.40364e+09 0
-1.82068e-05 6.40364e+09 0
-1.50189e-05 6.40364e+09 0
-1.42256e-05 6.40364e+09 0
-1.82068e-05 6.40364e+09 0
-1.45694e-05 6.40364e+09 0
-1.63056e-05 6.40364e+09 0
-1.82068e-05 6.40364e+09 0
-1.50189e-05 6.40364e+09 0
-1.63056e-05 6.40364e+09 0
-1.327e-05 6.40364e+09 0
-1.45694e-05 6.40364e+09 0
-1.63056e-05 6.40364e+09 0
-1.00692e-05 6.40364e+09 0
-1.17242e-05 6.40364e+09 0
-1.63056e-05 6.40364e+09 0
-1.327e-05 6.40364e+09 0
-1.17242e-05 6.40364e+09 0
-1.11565e-05 6.40364e+09 0
-1.00692e-05 6.40364e+09 0
-1.17242e-05 6.40364e+09 0
-3.09921e-06 6.40364e+09 0
-7.92049e-06 6.40364e+09 0
-1.17242e-05 6.40364e+09 0
-1.11565e-05 6.40364e+09 0
-7.92049e-06 6.40364e+09 0
-7.91909e-06 6.40364e+09 0
1.09612e-05 6.40364e+09 0
2.20937e-06 6.40364e+09 0
1.07291e-05 6.40364e+09 0
5.48078e-06 6.40364e+09 0
2.20937e-06 6.40364e+09 0
-3.09921e-06 6.40364e+09 0
5.48078e-06 6.40364e+09 0
-2.21738e-07 6.40364e+09 0
1.07291e-05 6.40364e+09 0
5.48078e-06 6.40364e+09 0
8.61299e-06 6.40364e+09 0
5.74215e-06 6.40364e+09 0
5.48078e-06 6.40364e+09 0
-2.21738e-07 6.40364e+09 0
5.74215e-06 6.40364e+09 0
1.97135e-06 6.40364e+09 0
-3.09921e-06 6.40364e+09 0
-7.92049e-06 6.40364e+09 0
-2.21738e-07 6.40364e+09 0
-5.65617e-06 6.40364e+09 0
-7.92049e-06 6.40364e+09 0
-7.91909e-06 6.40364e+09 0
-5.65617e-06 6.40364e+09 0
-6.03598e-06 6.40364e+09 0
-2.21738e-07 6.40364e+09 0
-5.65617e-06 6.40364e+09 0
1.97135e-06 6.40364e+09 0
-1.34386e-06 6.40364e+09 0
-5.65617e-06 6.40364e+09 0
-6.03598e-06 6.40364e+09 0
-1.34386e-06 6.40364e+09 0
-3.26458e-06 6.40364e+09 0
-1.3316e-05 6.40364e+09 0
-1.50333e-05 6.40364e+09 0
-1.51821e-05 6.40364e+09 0
-1.65024e-05 6.40364e+09 0
-1.50333e-05 6.40364e+09 0
-1.72687e-05 6.40364e+09 0
-1.65024e-05 6.40364e+09 0
-1.64551e-05 6.40364e+09 0
-1.51821e-05 6.40364e+09 0
-1.65024e-05 6.40364e+09 0
-1.30538e-05 6.40364e+09 0
-1.31371e-05 6.40364e+09 0
-1.65024e-05 6.40364e+09 0
-1.64551e-05 6.40364e+09 0
-1.31371e-05 6.40364e+09 0
-8.18784e-06 6.40364e+09 0
-1.30538e-05 6.40364e+09 0
-1.31371e-05 6.40364e+09 0
-8.13629e-06 6.40364e+09 0
-6.75095e-06 6.40364e+09 0
-1.31371e-05 6.40364e+09 0
-8.18784e-06 6.40364e+09 0
-6.75095e-06 6.40364e+09 0
-1.35001e-07 6.40364e+09 0
-8.13629e-06 6.40364e+09 0
-6.75095e-06 6.40364e+09 0
-1.37609e-06 6.40364e+09 0
7.35897e-07 6.40364e+09 0
-6.75095e-06 6.40364e+09 0
-1.35001e-07 6.40364e+09 0
7.35897e-07 6.40364e+09 0
4.14942e-06 6.40364e+09 0
-2.70999e-06 6.40364e+09 0
3.32174e-06 6.40364e+09 0
-1.74955e-05 6.40364e+09 0
-1.26287e-05 6.40364e+09 0
3.32174e-06 6.40364e+09 0
7.24626e-06 6.40364e+09 0
-1.26287e-05 6.40364e+09 0
-7.8801e-06 6.40364e+09 0
-1.74955e-05 6.40364e+09 0
-1.26287e-05 6.40364e+09 0
-1.79139e-05 6.40364e+09 0
-1.77242e-05 6.40364e+09 0
-1.26287e-05 6.40364e+09 0
-7.8801e-06 6.40364e+09 0
-1.77242e-05 6.40364e+09 0
-1.55567e-05 6.40364e+09 0
-1.79139e-05 6.40364e+09 0
-1.77242e-05 6.40364e+09 0
-1.10227e-05 6.40364e+09 0
-1.58472e-05 6.40364e+09 0
-1.77242e-05 6.40364e+09 0
-1.55567e-05 6.40364e+09 0
-1.58472e-05 6.40364e+09 0
-1.7893e-05 6.40364e+09 0
-1.10227e-05 6.40364e+09 0
-1.58472e-05 6.40364e+09 0
-4.10939e-06 6.40364e+09 0
-1.18995e-05 6.40364e+09 0
-1.58472e-05 6.40364e+09 0
-1.7893e-05 6.40364e+09 0
-1.18995e-05 6.40364e+09 0
-1.62908e-05 6.40364e+09 0
-1.37609e-06 6.40364e+09 0
7.35897e-07 6.40364e+09 0
4.62806e-06 6.40364e+09 0
5.88158e-06 6.40364e+09 0
7.35897e-07 6.40364e+09 0
4.14942e-06 6.40364e+09 0
5.88158e-06 6.40364e+09 0
8.4732e-06 6.40364e+09 0
4.62806e-06 6.40364e+09 0
5.88158e-06 6.40364e+09 0
9.27437e-06 6.40364e+09 0
1.14378e-05 6.40364e+09 0
5.88158e-06 6.40364e+09 0
8.4732e-06 6.40364e+09 0
1.14378e-05 6.40364e+09 0
1.19236e-05 6.40364e+09 0
9.27437e-06 6.40364e+09 0
1.14378e-05 6.40364e+09 0
1.20465e-05 6.40364e+09 0
1.36173e-05 6.40364e+09 0
1.14378e-05 6.40364e+09 0
1.19236e-05 6.40364e+09 0
1.36173e-05 6.40364e+09 0
1.56352e-05 6.40364e+09 0
1.20465e-05 6.40364e+09 0
1.36173e-05 6.40364e+09 0
1.61219e-05 6.40364e+09 0
1.78351e-05 6.40364e+09 0
1.36173e-05 6.40364e+09 0
1.56352e-05 6.40364e+09 0
1.78351e-05 6.40364e+09 0
1.84673e-05 6.40364e+09 0
1.19236e-05 6.40364e+09 0
1.20771e-05 6.40364e+09 0
1.56352e-05 6.40364e+09 0
1.74997e-05 6.40364e+09 0
1.20771e-05 6.40364e+09 0
1.39203e-05 6.40364e+09 0
1.74997e-05 6.40364e+09 0
2.17804e-05 6.40364e+09 0
1.56352e-05 6.40364e+09 0
1.74997e-05 6.40364e+09 0
1.84673e-05 6.40364e+09 0
1.85759e-05 6.40364e+09 0
1.74997e-05 6.40364e+09 0
2.17804e-05 6.40364e+09 0
1.85759e-05 6.40364e+09 0
2.21289e-05 6.40364e+09 0
-4.10939e-06 6.40364e+09 0
-1.18995e-05 6.40364e+09 0
1.88702e-06 6.40364e+09 0
-8.27751e-06 6.40364e+09 0
-1.18995e-05 6.40364e+09 0
-1.62908e-05 6.40364e+09 0
-8.27751e-06 6.40364e+09 0
-1.47179e-05 6.40364e+09 0
1.88702e-06 6.40364e+09 0
-8.27751e-06 6.40364e+09 0
-3.85495e-07 6.40364e+09 0
-8.92535e-06 6.40364e+09 0
-8.27751e-06 6.40364e+09 0
-1.47179e-05 6.40364e+09 0
-8.92535e-06 6.40364e+09 0
-1.42256e-05 6.40364e+09 0
-3.85495e-07 6.40364e+09 0
-8.92535e-06 6.40364e+09 0
-4.30947e-06 6.40364e+09 0
-9.71011e-06 6.40364e+09 0
-8.92535e-06 6.40364e+09 0
-1.42256e-05 6.40364e+09 0
-9.71011e-06 6.40364e+09 0
-1.55218e-05 6.40364e+09 0
-4.30947e-06 6.40364e+09 0
-9.71011e-06 6.40364e+09 0
-4.68511e-06 6.40364e+09 0
-1.03417e-05 6.40364e+09 0
-9.71011e-06 6.40364e+09 0
-1.55218e-05 6.40364e+09 0
-1.03417e-05 6.40364e+09 0
-1.45694e-05 6.40364e+09 0
1.61219e-05 6.40364e+09 0
1.78351e-05 6.40364e+09 0
1.70945e-05 6.40364e+09 0
1.78673e-05 6.40364e+09 0
1.78351e-05 6.40364e+09 0
1.84673e-05 6.40364e+09 0
1.78673e-05 6.40364e+09 0
2.00117e-05 6.40364e+09 0
1.70945e-05 6.40364e+09 0
1.78673e-05 6.40364e+09 0
1.55553e-05 6.40364e+09 0
1.76031e-05 6.40364e+09 0
1.78673e-05 6.40364e+09 0
2.00117e-05 6.40364e+09 0
1.76031e-05 6.40364e+09 0
1.98649e-05 6.40364e+09 0
1.84673e-05 6.40364e+09 0
1.85759e-05 6.40364e+09 0
2.00117e-05 6.40364e+09 0
2.09887e-05 6.40364e+09 0
1.85759e-05 6.40364e+09 0
2.21289e-05 6.40364e+09 0
2.09887e-05 6.40364e+09 0
2.24694e-05 6.40364e+09 0
2.00117e-05 6.40364e+09 0
2.09887e-05 6.40364e+09 0
1.98649e-05 6.40364e+09 0
2.12255e-05 6.40364e+09 0
2.09887e-05 6.40364e+09 0
2.24694e-05 6.40364e+09 0
2.12255e-05 6.40364e+09 0
2.33252e-05 6.40364e+09 0
1.55553e-05 6.40364e+09 0
1.76031e-05 6.40364e+09 0
1.31957e-05 6.40364e+09 0
1.48625e-05 6.40364e+09 0
1.76031e-05 6.40364e+09 0
1.98649e-05 6.40364e+09 0
1.48625e-05 6.40364e+09 0
1.79313e-05 6.40364e+09 0
1.31957e-05 6.40364e+09 0
1.48625e-05 6.40364e+09 0
1.18623e-05 6.40364e+09 0
1.52766e-05 6.40364e+09 0
1.48625e-05 6.40364e+09 0
1.79313e-05 6.40364e+09 0
1.52766e-05 6.40364e+09 0
1.68926e-05 6.40364e+09 0
1.98649e-05 6.40364e+09 0
2.12255e-05 6.40364e+09 0
1.79313e-05 6.40364e+09 0
2.0638e-05 6.40364e+09 0
2.12255e-05 6.40364e+09 0
2.33252e-05 6.40364e+09 0
2.0638e-05 6.40364e+09 0
2.20845e-05 6.40364e+09 0
1.79313e-05 6.40364e+09 0
2.0638e-05 6.40364e+09 0
1.68926e-05 6.40364e+09 0
1.84541e-05 6.40364e+09 0
2.0638e-05 6.40364e+09 0
2.20845e-05 6.40364e+09 0
1.84541e-05 6.40364e+09 0
2.10197e-05 6.40364e+09 0
2.21289e-05 6.40364e+09 0
2.30933e-05 6.40364e+09 0
2.24694e-05 6.40364e+09 0
2.31365e-05 6.40364e+09 0
2.30933e-05 6.40364e+09 0
2.25373e-05 6.40364e+09 0
2.31365e-05 6.40364e+09 0
2.28939e-05 6.40364e+09 0
2.24694e-05 6.40364e+09 0
2.31365e-05 6.40364e+09 0
2.33252e-05 6.40364e+09 0
2.34113e-05 6.40364e+09 0
2.31365e-05 6.40364e+09 0
2.28939e-05 6.40364e+09 0
2.34113e-05 6.40364e+09 0
2.18216e-05 6.40364e+09 0
2.25373e-05 6.40364e+09 0
2.27282e-05 6.40364e+09 0
2.28939e-05 6.40364e+09 0
2.10849e-05 6.40364e+09 0
2.27282e-05 6.40364e+09 0
1.66479e-05 6.40364e+09 0
2.10849e-05 6.40364e+09 0
1.48049e-05 6.40364e+09 0
2.28939e-05 6.40364e+09 0
2.10849e-05 6.40364e+09 0
2.18216e-05 6.40364e+09 0
1.85833e-05 6.40364e+09 0
2.10849e-05 6.40364e+09 0
1.48049e-05 6.40364e+09 0
1.85833e-05 6.40364e+09 0
1.19788e-05 6.40364e+09 0
2.33252e-05 6.40364e+09 0
2.34113e-05 6.40364e+09 0
2.20845e-05 6.40364e+09 0
2.15501e-05 6.40364e+09 0
2.34113e-05 6.40364e+09 0
2.18216e-05 6.40364e+09 0
2.15501e-05 6.40364e+09 0
1.84981e-05 6.40364e+09 0
2.20845e-05 6.40364e+09 0
2.15501e-05 6.40364e+09 0
2.10197e-05 6.40364e+09 0
2.04725e-05 6.40364e+09 0
2.15501e-05 6.40364e+09 0
1.84981e-05 6.40364e+09 0
2.04725e-05 6.40364e+09 0
1.72564e-05 6.40364e+09 0
2.18216e-05 6.40364e+09 0
1.85833e-05 6.40364e+09 0
1.84981e-05 6.40364e+09 0
1.57412e-05 6.40364e+09 0
1.85833e-05 6.40364e+09 0
1.19788e-05 6.40364e+09 0
1.57412e-05 6.40364e+09 0
1.14364e-05 6.40364e+09 0
1.84981e-05 6.40364e+09 0
1.57412e-05 6.40364e+09 0
1.72564e-05 6.40364e+09 0
1.37083e-05 6.40364e+09 0
1.57412e-05 6.40364e+09 0
1.14364e-05 6.40364e+09 0
1.37083e-05 6.40364e+09 0
1.09612e-05 6.40364e+09 0
1.66479e-05 6.40364e+09 0
5.77554e-06 6.40364e+09 0
1.48049e-05 6.40364e+09 0
3.96018e-06 6.40364e+09 0
5.77554e-06 6.40364e+09 0
-4.68511e-06 6.40364e+09 0
3.96018e-06 6.40364e+09 0
-3.53057e-06 6.40364e+09 0
1.48049e-05 6.40364e+09 0
3.96018e-06 6.40364e+09 0
1.19788e-05 6.40364e+09 0
4.09761e-06 6.40364e+09 0
3.96018e-06 6.40364e+09 0
-3.53057e-06 6.40364e+09 0
4.09761e-06 6.40364e+09 0
-1.95905e-06 6.40364e+09 0
-4.68511e-06 6.40364e+09 0
-1.03417e-05 6.40364e+09 0
-3.53057e-06 6.40364e+09 0
-9.00454e-06 6.40364e+09 0
-1.03417e-05 6.40364e+09 0
-1.45694e-05 6.40364e+09 0
-9.00454e-06 6.40364e+09 0
-1.27594e-05 6.40364e+09 0
-3.53057e-06 6.40364e+09 0
-9.00454e-06 6.40364e+09 0
-1.95905e-06 6.40364e+09 0
-7.37275e-06 6.40364e+09 0
-9.00454e-06 6.40364e+09 0
-1.27594e-05 6.40364e+09 0
-7.37275e-06 6.40364e+09 0
-1.00692e-05 6.40364e+09 0
1.19788e-05 6.40364e+09 0
4.09761e-06 6.40364e+09 0
1.14364e-05 6.40364e+09 0
3.50998e-06 6.40364e+09 0
4.09761e-06 6.40364e+09 0
-1.95905e-06 6.40364e+09 0
3.50998e-06 6.40364e+09 0
-1.86794e-06 6.40364e+09 0
1.14364e-05 6.40364e+09 0
3.50998e-06 6.40364e+09 0
1.09612e-05 6.40364e+09 0
7.47334e-06 6.40364e+09 0
3.50998e-06 6.40364e+09 0
-1.86794e-06 6.40364e+09 0
7.47334e-06 6.40364e+09 0
2.20937e-06 6.40364e+09 0
-1.95905e-06 6.40364e+09 0
-7.37275e-06 6.40364e+09 0
-1.86794e-06 6.40364e+09 0
-3.97087e-06 6.40364e+09 0
-7.37275e-06 6.40364e+09 0
-1.00692e-05 6.40364e+09 0
-3.97087e-06 6.40364e+09 0
-6.12903e-06 6.40364e+09 0
-1.86794e-06 6.40364e+09 0
-3.97087e-06 6.40364e+09 0
2.20937e-06 6.40364e+09 0
-1.38597e-06 6.40364e+09 0
-3.97087e-06 6.40364e+09 0
-6.12903e-06 6.40364e+09 0
-1.38597e-06 6.40364e+09 0
-3.09921e-06 6.40364e+09 0
-2.73509e-05 6.40364e+09 0
-3.10928e-05 6.40364e+09 0
-1.88727e-05 6.40364e+09 0
-1.94116e-05 6.40364e+09 0
-3.10928e-05 6.40364e+09 0
-3.37309e-05 6.40364e+09 0
-1.94116e-05 6.40364e+09 0
-2.11712e-05 6.40364e+09 0
-1.88727e-05 6.40364e+09 0
-1.94116e-05 6.40364e+09 0
-8.0819e-06 6.40364e+09 0
-7.56179e-06 6.40364e+09 0
-1.94116e-05 6.40364e+09 0
-2.11712e-05 6.40364e+09 0
-7.56179e-06 6.40364e+09 0
-9.85378e-06 6.40364e+09 0
-3.37309e-05 6.40364e+09 0
-3.60696e-05 6.40364e+09 0
-2.11712e-05 6.40364e+09 0
-2.49735e-05 6.40364e+09 0
-3.60696e-05 6.40364e+09 0
-3.99468e-05 6.40364e+09 0
-2.49735e-05 6.40364e+09 0
-2.72624e-05 6.40364e+09 0
-2.11712e-05 6.40364e+09 0
-2.49735e-05 6.40364e+09 0
-9.85378e-06 6.40364e+09 0
-1.55957e-05 6.40364e+09 0
-2.49735e-05 6.40364e+09 0
-2.72624e-05 6.40364e+09 0
-1.55957e-05 6.40364e+09 0
-1.59587e-05 6.40364e+09 0
-8.0819e-06 6.40364e+09 0
-7.56179e-06 6.40364e+09 0
2.01879e-06 6.40364e+09 0
2.8297e-06 6.40364e+09 0
-7.56179e-06 6.40364e+09 0
-9.85378e-06 6.40364e+09 0