# vtk DataFile Version 3.0
#This file was generated by the deal.II library on 2017/1/25 at 14:57:46
ASCII
DATASET UNSTRUCTURED_GRID

POINTS 3376 double
0.75 0 0
0.875 0 0
0.75 0.125 0
0.875 0.125 0
0.875 0 0
1 0 0
0.875 0.125 0
1 0.125 0
0.75 0.125 0
0.875 0.125 0
0.75 0.25 0
0.875 0.25 0
0.875 0.125 0
1 0.125 0
0.875 0.25 0
1 0.25 0
0.75 0.25 0
0.875 0.25 0
0.75 0.375 0
0.875 0.375 0
0.875 0.25 0
1 0.25 0
0.875 0.375 0
1 0.375 0
0.75 0.375 0
0.875 0.375 0
0.75 0.5 0
0.875 0.5 0
0.875 0.375 0
1 0.375 0
0.875 0.5 0
1 0.5 0
0 0.5 0
0.125 0.5 0
0 0.625 0
0.125 0.625 0
0.125 0.5 0
0.25 0.5 0
0.125 0.625 0
0.25 0.625 0
0 0.625 0
0.125 0.625 0
0 0.75 0
0.125 0.75 0
0.125 0.625 0
0.25 0.625 0
0.125 0.75 0
0.25 0.75 0
0.25 0.5 0
0.375 0.5 0
0.25 0.625 0
0.375 0.625 0
0.375 0.5 0
0.5 0.5 0
0.375 0.625 0
0.5 0.625 0
0.25 0.625 0
0.375 0.625 0
0.25 0.75 0
0.375 0.75 0
0.375 0.625 0
0.5 0.625 0
0.375 0.75 0
0.5 0.75 0
0 0.75 0
0.125 0.75 0
0 0.875 0
0.125 0.875 0
0.125 0.75 0
0.25 0.75 0
0.125 0.875 0
0.25 0.875 0
0 0.875 0
0.125 0.875 0
0 1 0
0.125 1 0
0.125 0.875 0
0.25 0.875 0
0.125 1 0
0.25 1 0
0.25 0.75 0
0.375 0.75 0
0.25 0.875 0
0.375 0.875 0
0.375 0.75 0
0.5 0.75 0
0.375 0.875 0
0.5 0.875 0
0.25 0.875 0
0.375 0.875 0
0.25 1 0
0.375 1 0
0.375 0.875 0
0.5 0.875 0
0.375 1 0
0.5 1 0
0.5 0.5 0
0.625 0.5 0
0.5 0.625 0
0.625 0.625 0
0.625 0.5 0
0.75 0.5 0
0.625 0.625 0
0.75 0.625 0
0.5 0.625 0
0.625 0.625 0
0.5 0.75 0
0.625 0.75 0
0.625 0.625 0
0.75 0.625 0
0.625 0.75 0
0.75 0.75 0
0.75 0.5 0
0.875 0.5 0
0.75 0.625 0
0.875 0.625 0
0.875 0.5 0
1 0.5 0
0.875 0.625 0
1 0.625 0
0.75 0.625 0
0.875 0.625 0
0.75 0.75 0
0.875 0.75 0
0.875 0.625 0
1 0.625 0
0.875 0.75 0
1 0.75 0
0.5 0.75 0
0.625 0.75 0
0.5 0.875 0
0.625 0.875 0
0.625 0.75 0
0.75 0.75 0
0.625 0.875 0
0.75 0.875 0
0.5 0.875 0
0.625 0.875 0
0.5 1 0
0.625 1 0
0.625 0.875 0
0.75 0.875 0
0.625 1 0
0.75 1 0
0.75 0.75 0
0.875 0.75 0
0.75 0.875 0
0.875 0.875 0
0.875 0.75 0
1 0.75 0
0.875 0.875 0
1 0.875 0
0.75 0.875 0
0.875 0.875 0
0.75 1 0
0.875 1 0
0.875 0.875 0
1 0.875 0
0.875 1 0
1 1 0
0 0 0
0.0625 0 0
0 0.0625 0
0.0625 0.0625 0
0.0625 0 0
0.125 0 0
0.0625 0.0625 0
0.125 0.0625 0
0 0.0625 0
0.0625 0.0625 0
0 0.125 0
0.0625 0.125 0
0.0625 0.0625 0
0.125 0.0625 0
0.0625 0.125 0
0.125 0.125 0
0.125 0 0
0.1875 0 0
0.125 0.0625 0
0.1875 0.0625 0
0.1875 0 0
0.25 0 0
0.1875 0.0625 0
0.25 0.0625 0
0.125 0.0625 0
0.1875 0.0625 0
0.125 0.125 0
0.1875 0.125 0
0.1875 0.0625 0
0.25 0.0625 0
0.1875 0.125 0
0.25 0.125 0
0 0.125 0
0.0625 0.125 0
0 0.1875 0
0.0625 0.1875 0
0.0625 0.125 0
0.125 0.125 0
0.0625 0.1875 0
0.125 0.1875 0
0 0.1875 0
0.0625 0.1875 0
0 0.25 0
0.0625 0.25 0
0.0625 0.1875 0
0.125 0.1875 0
0.0625 0.25 0
0.125 0.25 0
0.125 0.125 0
0.1875 0.125 0
0.125 0.1875 0
0.1875 0.1875 0
0.1875 0.125 0
0.25 0.125 0
0.1875 0.1875 0
0.25 0.1875 0
0.125 0.1875 0
0.1875 0.1875 0
0.125 0.25 0
0.1875 0.25 0
0.1875 0.1875 0
0.25 0.1875 0
0.1875 0.25 0
0.25 0.25 0
0 0.25 0
0.0625 0.25 0
0 0.3125 0
0.0625 0.3125 0
0.0625 0.25 0
0.125 0.25 0
0.0625 0.3125 0
0.125 0.3125 0
0 0.3125 0
0.0625 0.3125 0
0 0.375 0
0.0625 0.375 0
0.0625 0.3125 0
0.125 0.3125 0
0.0625 0.375 0
0.125 0.375 0
0.125 0.25 0
0.1875 0.25 0
0.125 0.3125 0
0.1875 0.3125 0
0.1875 0.25 0
0.25 0.25 0
0.1875 0.3125 0
0.25 0.3125 0
0.125 0.3125 0
0.1875 0.3125 0
0.125 0.375 0
0.1875 0.375 0
0.1875 0.3125 0
0.25 0.3125 0
0.1875 0.375 0
0.25 0.375 0
0 0.375 0
0.0625 0.375 0
0 0.4375 0
0.0625 0.4375 0
0.0625 0.375 0
0.125 0.375 0
0.0625 0.4375 0
0.125 0.4375 0
0 0.4375 0
0.0625 0.4375 0
0 0.5 0
0.0625 0.5 0
0.0625 0.4375 0
0.125 0.4375 0
0.0625 0.5 0
0.125 0.5 0
0.125 0.375 0
0.1875 0.375 0
0.125 0.4375 0
0.1875 0.4375 0
0.1875 0.375 0
0.25 0.375 0
0.1875 0.4375 0
0.25 0.4375 0
0.125 0.4375 0
0.1875 0.4375 0
0.125 0.5 0
0.1875 0.5 0
0.1875 0.4375 0
0.25 0.4375 0
0.1875 0.5 0
0.25 0.5 0
0.25 0.25 0
0.3125 0.25 0
0.25 0.3125 0
0.3125 0.3125 0
0.3125 0.25 0
0.375 0.25 0
0.3125 0.3125 0
0.375 0.3125 0
0.25 0.3125 0
0.3125 0.3125 0
0.25 0.375 0
0.3125 0.375 0
0.3125 0.3125 0
0.375 0.3125 0
0.3125 0.375 0
0.375 0.375 0
0.375 0.25 0
0.4375 0.25 0
0.375 0.3125 0
0.4375 0.3125 0
0.4375 0.25 0
0.5 0.25 0
0.4375 0.3125 0
0.5 0.3125 0
0.375 0.3125 0
0.4375 0.3125 0
0.375 0.375 0
0.4375 0.375 0
0.4375 0.3125 0
0.5 0.3125 0
0.4375 0.375 0
0.5 0.375 0
0.25 0.375 0
0.3125 0.375 0
0.25 0.4375 0
0.3125 0.4375 0
0.3125 0.375 0
0.375 0.375 0
0.3125 0.4375 0
0.375 0.4375 0
0.25 0.4375 0
0.3125 0.4375 0
0.25 0.5 0
0.3125 0.5 0
0.3125 0.4375 0
0.375 0.4375 0
0.3125 0.5 0
0.375 0.5 0
0.375 0.375 0
0.4375 0.375 0
0.375 0.4375 0
0.4375 0.4375 0
0.4375 0.375 0
0.5 0.375 0
0.4375 0.4375 0
0.5 0.4375 0
0.375 0.4375 0
0.4375 0.4375 0
0.375 0.5 0
0.4375 0.5 0
0.4375 0.4375 0
0.5 0.4375 0
0.4375 0.5 0
0.5 0.5 0
0.625 0 0
0.6875 0 0
0.625 0.0625 0
0.6875 0.0625 0
0.6875 0 0
0.75 0 0
0.6875 0.0625 0
0.75 0.0625 0
0.625 0.0625 0
0.6875 0.0625 0
0.625 0.125 0
0.6875 0.125 0
0.6875 0.0625 0
0.75 0.0625 0
0.6875 0.125 0
0.75 0.125 0
0.625 0.125 0
0.6875 0.125 0
0.625 0.1875 0
0.6875 0.1875 0
0.6875 0.125 0
0.75 0.125 0
0.6875 0.1875 0
0.75 0.1875 0
0.625 0.1875 0
0.6875 0.1875 0
0.625 0.25 0
0.6875 0.25 0
0.6875 0.1875 0
0.75 0.1875 0
0.6875 0.25 0
0.75 0.25 0
0.5 0.25 0
0.5625 0.25 0
0.5 0.3125 0
0.5625 0.3125 0
0.5625 0.25 0
0.625 0.25 0
0.5625 0.3125 0
0.625 0.3125 0
0.5 0.3125 0
0.5625 0.3125 0
0.5 0.375 0
0.5625 0.375 0
0.5625 0.3125 0
0.625 0.3125 0
0.5625 0.375 0
0.625 0.375 0
0.625 0.25 0
0.6875 0.25 0
0.625 0.3125 0
0.6875 0.3125 0
0.6875 0.25 0
0.75 0.25 0
0.6875 0.3125 0
0.75 0.3125 0
0.625 0.3125 0
0.6875 0.3125 0
0.625 0.375 0
0.6875 0.375 0
0.6875 0.3125 0
0.75 0.3125 0
0.6875 0.375 0
0.75 0.375 0
0.5 0.375 0
0.5625 0.375 0
0.5 0.4375 0
0.5625 0.4375 0
0.5625 0.375 0
0.625 0.375 0
0.5625 0.4375 0
0.625 0.4375 0
0.5 0.4375 0
0.5625 0.4375 0
0.5 0.5 0
0.5625 0.5 0
0.5625 0.4375 0
0.625 0.4375 0
0.5625 0.5 0
0.625 0.5 0
0.625 0.375 0
0.6875 0.375 0
0.625 0.4375 0
0.6875 0.4375 0
0.6875 0.375 0
0.75 0.375 0
0.6875 0.4375 0
0.75 0.4375 0
0.625 0.4375 0
0.6875 0.4375 0
0.625 0.5 0
0.6875 0.5 0
0.6875 0.4375 0
0.75 0.4375 0
0.6875 0.5 0
0.75 0.5 0
0.25 0 0
0.28125 0 0
0.25 0.03125 0
0.28125 0.03125 0
0.28125 0 0
0.3125 0 0
0.28125 0.03125 0
0.3125 0.03125 0
0.25 0.03125 0
0.28125 0.03125 0
0.25 0.0625 0
0.28125 0.0625 0
0.28125 0.03125 0
0.3125 0.03125 0
0.28125 0.0625 0
0.3125 0.0625 0
0.25 0.0625 0
0.28125 0.0625 0
0.25 0.09375 0
0.28125 0.09375 0
0.28125 0.0625 0
0.3125 0.0625 0
0.28125 0.09375 0
0.3125 0.09375 0
0.25 0.09375 0
0.28125 0.09375 0
0.25 0.125 0
0.28125 0.125 0
0.28125 0.09375 0
0.3125 0.09375 0
0.28125 0.125 0
0.3125 0.125 0
0.375 0.1875 0
0.40625 0.1875 0
0.375 0.21875 0
0.40625 0.21875 0
0.40625 0.1875 0
0.4375 0.1875 0
0.40625 0.21875 0
0.4375 0.21875 0
0.375 0.21875 0
0.40625 0.21875 0
0.375 0.25 0
0.40625 0.25 0
0.40625 0.21875 0
0.4375 0.21875 0
0.40625 0.25 0
0.4375 0.25 0
0.4375 0.1875 0
0.46875 0.1875 0
0.4375 0.21875 0
0.46875 0.21875 0
0.46875 0.1875 0
0.5 0.1875 0
0.46875 0.21875 0
0.5 0.21875 0
0.4375 0.21875 0
0.46875 0.21875 0
0.4375 0.25 0
0.46875 0.25 0
0.46875 0.21875 0
0.5 0.21875 0
0.46875 0.25 0
0.5 0.25 0
0.5625 0 0
0.59375 0 0
0.5625 0.03125 0
0.59375 0.03125 0
0.59375 0 0
0.625 0 0
0.59375 0.03125 0
0.625 0.03125 0
0.5625 0.03125 0
0.59375 0.03125 0
0.5625 0.0625 0
0.59375 0.0625 0
0.59375 0.03125 0
0.625 0.03125 0
0.59375 0.0625 0
0.625 0.0625 0
0.5625 0.0625 0
0.59375 0.0625 0
0.5625 0.09375 0
0.59375 0.09375 0
0.59375 0.0625 0
0.625 0.0625 0
0.59375 0.09375 0
0.625 0.09375 0
0.5625 0.09375 0
0.59375 0.09375 0
0.5625 0.125 0
0.59375 0.125 0
0.59375 0.09375 0
0.625 0.09375 0
0.59375 0.125 0
0.625 0.125 0
0.25 0.125 0
0.28125 0.125 0
0.25 0.15625 0
0.28125 0.15625 0
0.28125 0.125 0
0.3125 0.125 0
0.28125 0.15625 0
0.3125 0.15625 0
0.25 0.15625 0
0.28125 0.15625 0
0.25 0.1875 0
0.28125 0.1875 0
0.28125 0.15625 0
0.3125 0.15625 0
0.28125 0.1875 0
0.3125 0.1875 0
0.25 0.1875 0
0.28125 0.1875 0
0.25 0.21875 0
0.28125 0.21875 0
0.28125 0.1875 0
0.3125 0.1875 0
0.28125 0.21875 0
0.3125 0.21875 0
0.25 0.21875 0
0.28125 0.21875 0
0.25 0.25 0
0.28125 0.25 0
0.28125 0.21875 0
0.3125 0.21875 0
0.28125 0.25 0
0.3125 0.25 0
0.3125 0.1875 0
0.34375 0.1875 0
0.3125 0.21875 0
0.34375 0.21875 0
0.34375 0.1875 0
0.375 0.1875 0
0.34375 0.21875 0
0.375 0.21875 0
0.3125 0.21875 0
0.34375 0.21875 0
0.3125 0.25 0
0.34375 0.25 0
0.34375 0.21875 0
0.375 0.21875 0
0.34375 0.25 0
0.375 0.25 0
0.5625 0.125 0
0.59375 0.125 0
0.5625 0.15625 0
0.59375 0.15625 0
0.59375 0.125 0
0.625 0.125 0
0.59375 0.15625 0
0.625 0.15625 0
0.5625 0.15625 0
0.59375 0.15625 0
0.5625 0.1875 0
0.59375 0.1875 0
0.59375 0.15625 0
0.625 0.15625 0
0.59375 0.1875 0
0.625 0.1875 0
0.5 0.1875 0
0.53125 0.1875 0
0.5 0.21875 0
0.53125 0.21875 0
0.53125 0.1875 0
0.5625 0.1875 0
0.53125 0.21875 0
0.5625 0.21875 0
0.5 0.21875 0
0.53125 0.21875 0
0.5 0.25 0
0.53125 0.25 0
0.53125 0.21875 0
0.5625 0.21875 0
0.53125 0.25 0
0.5625 0.25 0
0.5625 0.1875 0
0.59375 0.1875 0
0.5625 0.21875 0
0.59375 0.21875 0
0.59375 0.1875 0
0.625 0.1875 0
0.59375 0.21875 0
0.625 0.21875 0
0.5625 0.21875 0
0.59375 0.21875 0
0.5625 0.25 0
0.59375 0.25 0
0.59375 0.21875 0
0.625 0.21875 0
0.59375 0.25 0
0.625 0.25 0
0.375 0 0
0.390625 0 0
0.375 0.015625 0
0.390625 0.015625 0
0.390625 0 0
0.40625 0 0
0.390625 0.015625 0
0.40625 0.015625 0
0.375 0.015625 0
0.390625 0.015625 0
0.375 0.03125 0
0.390625 0.03125 0
0.390625 0.015625 0
0.40625 0.015625 0
0.390625 0.03125 0
0.40625 0.03125 0
0.40625 0 0
0.421875 0 0
0.40625 0.015625 0
0.421875 0.015625 0
0.421875 0 0
0.4375 0 0
0.421875 0.015625 0
0.4375 0.015625 0
0.40625 0.015625 0
0.421875 0.015625 0
0.40625 0.03125 0
0.421875 0.03125 0
0.421875 0.015625 0
0.4375 0.015625 0
0.421875 0.03125 0
0.4375 0.03125 0
0.375 0.03125 0
0.390625 0.03125 0
0.375 0.046875 0
0.390625 0.046875 0
0.390625 0.03125 0
0.40625 0.03125 0
0.390625 0.046875 0
0.40625 0.046875 0
0.375 0.046875 0
0.390625 0.046875 0
0.375 0.0625 0
0.390625 0.0625 0
0.390625 0.046875 0
[...]
POINT_DATA 3376
VECTORS velocity double
1.78074e-06 6.0892e+09 0
-1.46471e-06 6.0892e+09 0
-9.60624e-06 6.0892e+09 0
-5.02026e-06 6.0892e+09 0
-1.46471e-06 6.0892e+09 0
0 6.0892e+09 0
-5.02026e-06 6.0892e+09 0
0 6.0892e+09 0
-9.60624e-06 6.0892e+09 0
-5.02026e-06 6.0892e+09 0
-7.17861e-06 6.0892e+09 0
-6.3638e-06 6.0892e+09 0
-5.02026e-06 6.0892e+09 0
0 6.0892e+09 0
-6.3638e-06 6.0892e+09 0
0 6.0892e+09 0
-7.17861e-06 6.0892e+09 0
-6.3638e-06 6.0892e+09 0
-4.64254e-06 6.0892e+09 0
-3.29287e-06 6.0892e+09 0
-6.3638e-06 6.0892e+09 0
0 6.0892e+09 0
-3.29287e-06 6.0892e+09 0
0 6.0892e+09 0
-4.64254e-06 6.0892e+09 0
-3.29287e-06 6.0892e+09 0
1.82586e-06 6.0892e+09 0
1.27357e-07 6.0892e+09 0
-3.29287e-06 6.0892e+09 0
0 6.0892e+09 0
1.27357e-07 6.0892e+09 0
0 6.0892e+09 0
0 6.0892e+09 0
-1.26772e-06 6.0892e+09 0
0 6.0892e+09 0
-2.31171e-07 6.0892e+09 0
-1.26772e-06 6.0892e+09 0
-1.92143e-06 6.0892e+09 0
-2.31171e-07 6.0892e+09 0
-2.36442e-06 6.0892e+09 0
0 6.0892e+09 0
-2.31171e-07 6.0892e+09 0
0 6.0892e+09 0
-3.54424e-07 6.0892e+09 0
-2.31171e-07 6.0892e+09 0
-2.36442e-06 6.0892e+09 0
-3.54424e-07 6.0892e+09 0
-5.87693e-07 6.0892e+09 0
-1.92143e-06 6.0892e+09 0
1.61045e-08 6.0892e+09 0
-2.36442e-06 6.0892e+09 0
-9.35872e-07 6.0892e+09 0
1.61045e-08 6.0892e+09 0
4.26605e-06 6.0892e+09 0
-9.35872e-07 6.0892e+09 0
1.24161e-06 6.0892e+09 0
-2.36442e-06 6.0892e+09 0
-9.35872e-07 6.0892e+09 0
-5.87693e-07 6.0892e+09 0
-7.96674e-08 6.0892e+09 0
-9.35872e-07 6.0892e+09 0
1.24161e-06 6.0892e+09 0
-7.96674e-08 6.0892e+09 0
1.67783e-06 6.0892e+09 0
0 6.0892e+09 0
-3.54424e-07 6.0892e+09 0
0 6.0892e+09 0
1.54851e-06 6.0892e+09 0
-3.54424e-07 6.0892e+09 0
-5.87693e-07 6.0892e+09 0
1.54851e-06 6.0892e+09 0
1.53339e-06 6.0892e+09 0
0 6.0892e+09 0
1.54851e-06 6.0892e+09 0
0 6.0892e+09 0
1.99257e-06 6.0892e+09 0
1.54851e-06 6.0892e+09 0
1.53339e-06 6.0892e+09 0
1.99257e-06 6.0892e+09 0
5.63916e-06 6.0892e+09 0
-5.87693e-07 6.0892e+09 0
-7.96674e-08 6.0892e+09 0
1.53339e-06 6.0892e+09 0
3.00062e-06 6.0892e+09 0
-7.96674e-08 6.0892e+09 0
1.67783e-06 6.0892e+09 0
3.00062e-06 6.0892e+09 0
4.609e-06 6.0892e+09 0
1.53339e-06 6.0892e+09 0
3.00062e-06 6.0892e+09 0
5.63916e-06 6.0892e+09 0
6.65128e-06 6.0892e+09 0
3.00062e-06 6.0892e+09 0
4.609e-06 6.0892e+09 0
6.65128e-06 6.0892e+09 0
4.51243e-06 6.0892e+09 0
4.26605e-06 6.0892e+09 0
4.47826e-06 6.0892e+09 0
1.24161e-06 6.0892e+09 0
3.66489e-06 6.0892e+09 0
4.47826e-06 6.0892e+09 0
1.82586e-06 6.0892e+09 0
3.66489e-06 6.0892e+09 0
3.97904e-06 6.0892e+09 0
1.24161e-06 6.0892e+09 0
3.66489e-06 6.0892e+09 0
1.67783e-06 6.0892e+09 0
5.47364e-06 6.0892e+09 0
3.66489e-06 6.0892e+09 0
3.97904e-06 6.0892e+09 0
5.47364e-06 6.0892e+09 0
4.88286e-06 6.0892e+09 0
1.82586e-06 6.0892e+09 0
1.27357e-07 6.0892e+09 0
3.97904e-06 6.0892e+09 0
1.61937e-06 6.0892e+09 0
1.27357e-07 6.0892e+09 0
0 6.0892e+09 0
1.61937e-06 6.0892e+09 0
0 6.0892e+09 0
3.97904e-06 6.0892e+09 0
1.61937e-06 6.0892e+09 0
4.88286e-06 6.0892e+09 0
1.52297e-06 6.0892e+09 0
1.61937e-06 6.0892e+09 0
0 6.0892e+09 0
1.52297e-06 6.0892e+09 0
0 6.0892e+09 0
1.67783e-06 6.0892e+09 0
5.47364e-06 6.0892e+09 0
4.609e-06 6.0892e+09 0
4.34038e-06 6.0892e+09 0
5.47364e-06 6.0892e+09 0
4.88286e-06 6.0892e+09 0
4.34038e-06 6.0892e+09 0
2.0084e-06 6.0892e+09 0
4.609e-06 6.0892e+09 0
4.34038e-06 6.0892e+09 0
4.51243e-06 6.0892e+09 0
4.05968e-06 6.0892e+09 0
4.34038e-06 6.0892e+09 0
2.0084e-06 6.0892e+09 0
4.05968e-06 6.0892e+09 0
2.09415e-06 6.0892e+09 0
4.88286e-06 6.0892e+09 0
1.52297e-06 6.0892e+09 0
2.0084e-06 6.0892e+09 0
-4.54964e-07 6.0892e+09 0
1.52297e-06 6.0892e+09 0
0 6.0892e+09 0
-4.54964e-07 6.0892e+09 0
0 6.0892e+09 0
2.0084e-06 6.0892e+09 0
-4.54964e-07 6.0892e+09 0
2.09415e-06 6.0892e+09 0
3.35553e-06 6.0892e+09 0
-4.54964e-07 6.0892e+09 0
0 6.0892e+09 0
3.35553e-06 6.0892e+09 0
0 6.0892e+09 0
0 6.0892e+09 0
2.35684e-06 6.0892e+09 0
0 6.0892e+09 0
-2.75767e-06 6.0892e+09 0
2.35684e-06 6.0892e+09 0
4.37941e-06 6.0892e+09 0
-2.75767e-06 6.0892e+09 0
-3.88372e-06 6.0892e+09 0
0 6.0892e+09 0
-2.75767e-06 6.0892e+09 0
0 6.0892e+09 0
-4.75895e-06 6.0892e+09 0
-2.75767e-06 6.0892e+09 0
-3.88372e-06 6.0892e+09 0
-4.75895e-06 6.0892e+09 0
-8.64094e-06 6.0892e+09 0
4.37941e-06 6.0892e+09 0
3.34854e-06 6.0892e+09 0
-3.88372e-06 6.0892e+09 0
-5.20761e-06 6.0892e+09 0
3.34854e-06 6.0892e+09 0
7.80307e-06 6.0892e+09 0
-5.20761e-06 6.0892e+09 0
-7.87285e-06 6.0892e+09 0
-3.88372e-06 6.0892e+09 0
-5.20761e-06 6.0892e+09 0
-8.64094e-06 6.0892e+09 0
-1.24562e-05 6.0892e+09 0
-5.20761e-06 6.0892e+09 0
-7.87285e-06 6.0892e+09 0
-1.24562e-05 6.0892e+09 0
-1.37501e-05 6.0892e+09 0
0 6.0892e+09 0
-4.75895e-06 6.0892e+09 0
0 6.0892e+09 0
-4.18442e-06 6.0892e+09 0
-4.75895e-06 6.0892e+09 0
-8.64094e-06 6.0892e+09 0
-4.18442e-06 6.0892e+09 0
-9.00411e-06 6.0892e+09 0
0 6.0892e+09 0
-4.18442e-06 6.0892e+09 0
0 6.0892e+09 0
-4.83618e-06 6.0892e+09 0
-4.18442e-06 6.0892e+09 0
-9.00411e-06 6.0892e+09 0
-4.83618e-06 6.0892e+09 0
-7.97653e-06 6.0892e+09 0
-8.64094e-06 6.0892e+09 0
-1.24562e-05 6.0892e+09 0
-9.00411e-06 6.0892e+09 0
-1.20552e-05 6.0892e+09 0
-1.24562e-05 6.0892e+09 0
-1.37501e-05 6.0892e+09 0
-1.20552e-05 6.0892e+09 0
-1.01361e-05 6.0892e+09 0
-9.00411e-06 6.0892e+09 0
-1.20552e-05 6.0892e+09 0
-7.97653e-06 6.0892e+09 0
-9.85293e-06 6.0892e+09 0
-1.20552e-05 6.0892e+09 0
-1.01361e-05 6.0892e+09 0
-9.85293e-06 6.0892e+09 0
-8.44e-06 6.0892e+09 0
0 6.0892e+09 0
-4.83618e-06 6.0892e+09 0
0 6.0892e+09 0
-4.05901e-06 6.0892e+09 0
-4.83618e-06 6.0892e+09 0
-7.97653e-06 6.0892e+09 0
-4.05901e-06 6.0892e+09 0
-8.24179e-06 6.0892e+09 0
0 6.0892e+09 0
-4.05901e-06 6.0892e+09 0
0 6.0892e+09 0
-4.13613e-06 6.0892e+09 0
-4.05901e-06 6.0892e+09 0
-8.24179e-06 6.0892e+09 0
-4.13613e-06 6.0892e+09 0
-5.99942e-06 6.0892e+09 0
-7.97653e-06 6.0892e+09 0
-9.85293e-06 6.0892e+09 0
-8.24179e-06 6.0892e+09 0
-8.38412e-06 6.0892e+09 0
-9.85293e-06 6.0892e+09 0
-8.44e-06 6.0892e+09 0
-8.38412e-06 6.0892e+09 0
-6.67422e-06 6.0892e+09 0
-8.24179e-06 6.0892e+09 0
-8.38412e-06 6.0892e+09 0
-5.99942e-06 6.0892e+09 0
-5.75903e-06 6.0892e+09 0
-8.38412e-06 6.0892e+09 0
-6.67422e-06 6.0892e+09 0
-5.75903e-06 6.0892e+09 0
-4.97234e-06 6.0892e+09 0
0 6.0892e+09 0
-4.13613e-06 6.0892e+09 0
0 6.0892e+09 0
-2.19411e-06 6.0892e+09 0
-4.13613e-06 6.0892e+09 0
-5.99942e-06 6.0892e+09 0
-2.19411e-06 6.0892e+09 0
-3.53084e-06 6.0892e+09 0
0 6.0892e+09 0
-2.19411e-06 6.0892e+09 0
0 6.0892e+09 0
-6.69136e-07 6.0892e+09 0
-2.19411e-06 6.0892e+09 0
-3.53084e-06 6.0892e+09 0
-6.69136e-07 6.0892e+09 0
-1.26772e-06 6.0892e+09 0
-5.99942e-06 6.0892e+09 0
-5.75903e-06 6.0892e+09 0
-3.53084e-06 6.0892e+09 0
-4.29688e-06 6.0892e+09 0
-5.75903e-06 6.0892e+09 0
-4.97234e-06 6.0892e+09 0
-4.29688e-06 6.0892e+09 0
-3.98181e-06 6.0892e+09 0
-3.53084e-06 6.0892e+09 0
-4.29688e-06 6.0892e+09 0
-1.26772e-06 6.0892e+09 0
-1.64522e-06 6.0892e+09 0
-4.29688e-06 6.0892e+09 0
-3.98181e-06 6.0892e+09 0
-1.64522e-06 6.0892e+09 0
-1.92143e-06 6.0892e+09 0
-8.44e-06 6.0892e+09 0
-4.85055e-06 6.0892e+09 0
-6.67422e-06 6.0892e+09 0
-3.02626e-06 6.0892e+09 0
-4.85055e-06 6.0892e+09 0
4.26457e-06 6.0892e+09 0
-3.02626e-06 6.0892e+09 0
5.56618e-06 6.0892e+09 0
-6.67422e-06 6.0892e+09 0
-3.02626e-06 6.0892e+09 0
-4.97234e-06 6.0892e+09 0
-2.97091e-07 6.0892e+09 0
-3.02626e-06 6.0892e+09 0
5.56618e-06 6.0892e+09 0
-2.97091e-07 6.0892e+09 0
5.03284e-06 6.0892e+09 0
4.26457e-06 6.0892e+09 0
1.64239e-05 6.0892e+09 0
5.56618e-06 6.0892e+09 0
1.32006e-05 6.0892e+09 0
1.64239e-05 6.0892e+09 0
1.95384e-05 6.0892e+09 0
1.32006e-05 6.0892e+09 0
1.40753e-05 6.0892e+09 0
5.56618e-06 6.0892e+09 0
1.32006e-05 6.0892e+09 0
5.03284e-06 6.0892e+09 0
9.1273e-06 6.0892e+09 0
1.32006e-05 6.0892e+09 0
1.40753e-05 6.0892e+09 0
9.1273e-06 6.0892e+09 0
1.0335e-05 6.0892e+09 0
-4.97234e-06 6.0892e+09 0
-2.97091e-07 6.0892e+09 0
-3.98181e-06 6.0892e+09 0
-1.56117e-06 6.0892e+09 0
-2.97091e-07 6.0892e+09 0
5.03284e-06 6.0892e+09 0
-1.56117e-06 6.0892e+09 0
1.1672e-06 6.0892e+09 0
-3.98181e-06 6.0892e+09 0
-1.56117e-06 6.0892e+09 0
-1.92143e-06 6.0892e+09 0
-1.40455e-06 6.0892e+09 0
-1.56117e-06 6.0892e+09 0
1.1672e-06 6.0892e+09 0
-1.40455e-06 6.0892e+09 0
1.61045e-08 6.0892e+09 0
5.03284e-06 6.0892e+09 0
9.1273e-06 6.0892e+09 0
1.1672e-06 6.0892e+09 0
5.38022e-06 6.0892e+09 0
9.1273e-06 6.0892e+09 0
1.0335e-05 6.0892e+09 0
5.38022e-06 6.0892e+09 0
7.41584e-06 6.0892e+09 0
1.1672e-06 6.0892e+09 0
5.38022e-06 6.0892e+09 0
1.61045e-08 6.0892e+09 0
2.56747e-06 6.0892e+09 0
5.38022e-06 6.0892e+09 0
7.41584e-06 6.0892e+09 0
2.56747e-06 6.0892e+09 0
4.26605e-06 6.0892e+09 0
4.01874e-06 6.0892e+09 0
1.31907e-06 6.0892e+09 0
-8.65768e-06 6.0892e+09 0
-8.66123e-06 6.0892e+09 0
1.31907e-06 6.0892e+09 0
1.78074e-06 6.0892e+09 0
-8.66123e-06 6.0892e+09 0
-6.58459e-06 6.0892e+09 0
-8.65768e-06 6.0892e+09 0
-8.66123e-06 6.0892e+09 0
-9.17555e-06 6.0892e+09 0
-1.20782e-05 6.0892e+09 0
-8.66123e-06 6.0892e+09 0
-6.58459e-06 6.0892e+09 0
-1.20782e-05 6.0892e+09 0
-9.60624e-06 6.0892e+09 0
-9.17555e-06 6.0892e+09 0
-1.20782e-05 6.0892e+09 0
-4.47087e-06 6.0892e+09 0
-9.34192e-06 6.0892e+09 0
-1.20782e-05 6.0892e+09 0
-9.60624e-06 6.0892e+09 0
-9.34192e-06 6.0892e+09 0
-9.26519e-06 6.0892e+09 0
-4.47087e-06 6.0892e+09 0
-9.34192e-06 6.0892e+09 0
-1.03251e-06 6.0892e+09 0
-6.62953e-06 6.0892e+09 0
-9.34192e-06 6.0892e+09 0
-9.26519e-06 6.0892e+09 0
-6.62953e-06 6.0892e+09 0
-7.17861e-06 6.0892e+09 0
1.95384e-05 6.0892e+09 0
9.8989e-06 6.0892e+09 0
1.40753e-05 6.0892e+09 0
7.7125e-06 6.0892e+09 0
9.8989e-06 6.0892e+09 0
-1.03251e-06 6.0892e+09 0
7.7125e-06 6.0892e+09 0
1.0715e-06 6.0892e+09 0
1.40753e-05 6.0892e+09 0
7.7125e-06 6.0892e+09 0
1.0335e-05 6.0892e+09 0
8.17206e-06 6.0892e+09 0
7.7125e-06 6.0892e+09 0
1.0715e-06 6.0892e+09 0
8.17206e-06 6.0892e+09 0
3.37561e-06 6.0892e+09 0
-1.03251e-06 6.0892e+09 0
-6.62953e-06 6.0892e+09 0
1.0715e-06 6.0892e+09 0
-4.88488e-06 6.0892e+09 0
-6.62953e-06 6.0892e+09 0
-7.17861e-06 6.0892e+09 0
-4.88488e-06 6.0892e+09 0
-6.3362e-06 6.0892e+09 0
1.0715e-06 6.0892e+09 0
-4.88488e-06 6.0892e+09 0
3.37561e-06 6.0892e+09 0
-2.47542e-06 6.0892e+09 0
-4.88488e-06 6.0892e+09 0
-6.3362e-06 6.0892e+09 0
-2.47542e-06 6.0892e+09 0
-4.64254e-06 6.0892e+09 0
1.0335e-05 6.0892e+09 0
8.17206e-06 6.0892e+09 0
7.41584e-06 6.0892e+09 0
6.87088e-06 6.0892e+09 0
8.17206e-06 6.0892e+09 0
3.37561e-06 6.0892e+09 0
6.87088e-06 6.0892e+09 0
3.0601e-06 6.0892e+09 0
7.41584e-06 6.0892e+09 0
6.87088e-06 6.0892e+09 0
4.26605e-06 6.0892e+09 0
5.17295e-06 6.0892e+09 0
6.87088e-06 6.0892e+09 0
3.0601e-06 6.0892e+09 0
5.17295e-06 6.0892e+09 0
4.47826e-06 6.0892e+09 0
3.37561e-06 6.0892e+09 0
-2.47542e-06 6.0892e+09 0
3.0601e-06 6.0892e+09 0
-2.21261e-07 6.0892e+09 0
-2.47542e-06 6.0892e+09 0
-4.64254e-06 6.0892e+09 0
-2.21261e-07 6.0892e+09 0
-1.33558e-06 6.0892e+09 0
3.0601e-06 6.0892e+09 0
-2.21261e-07 6.0892e+09 0
4.47826e-06 6.0892e+09 0
2.15189e-06 6.0892e+09 0
-2.21261e-07 6.0892e+09 0
-1.33558e-06 6.0892e+09 0
2.15189e-06 6.0892e+09 0
1.82586e-06 6.0892e+09 0
7.80307e-06 6.0892e+09 0
1.07004e-05 6.0892e+09 0
-1.00926e-06 6.0892e+09 0
-1.38083e-06 6.0892e+09 0
1.07004e-05 6.0892e+09 0
1.37475e-05 6.0892e+09 0
-1.38083e-06 6.0892e+09 0
1.34104e-06 6.0892e+09 0
-1.00926e-06 6.0892e+09 0
-1.38083e-06 6.0892e+09 0
-7.87285e-06 6.0892e+09 0
-7.59065e-06 6.0892e+09 0
-1.38083e-06 6.0892e+09 0
1.34104e-06 6.0892e+09 0
-7.59065e-06 6.0892e+09 0
-1.52096e-06 6.0892e+09 0
-7.87285e-06 6.0892e+09 0
-7.59065e-06 6.0892e+09 0
-1.20542e-05 6.0892e+09 0
-1.07e-05 6.0892e+09 0
-7.59065e-06 6.0892e+09 0
-1.52096e-06 6.0892e+09 0
-1.07e-05 6.0892e+09 0
-4.47229e-06 6.0892e+09 0
-1.20542e-05 6.0892e+09 0
-1.07e-05 6.0892e+09 0
-1.37501e-05 6.0892e+09 0
-1.15129e-05 6.0892e+09 0
-1.07e-05 6.0892e+09 0
-4.47229e-06 6.0892e+09 0
-1.15129e-05 6.0892e+09 0
-7.57787e-06 6.0892e+09 0
8.80501e-07 6.0892e+09 0
1.1878e-05 6.0892e+09 0
8.68985e-07 6.0892e+09 0
1.15879e-05 6.0892e+09 0
1.1878e-05 6.0892e+09 0
2.28535e-05 6.0892e+09 0
1.15879e-05 6.0892e+09 0
2.00434e-05 6.0892e+09 0
8.68985e-07 6.0892e+09 0
1.15879e-05 6.0892e+09 0
4.26457e-06 6.0892e+09 0
1.11146e-05 6.0892e+09 0
1.15879e-05 6.0892e+09 0
2.00434e-05 6.0892e+09 0
1.11146e-05 6.0892e+09 0
1.64239e-05 6.0892e+09 0
2.28535e-05 6.0892e+09 0
2.85113e-05 6.0892e+09 0
2.00434e-05 6.0892e+09 0
2.37937e-05 6.0892e+09 0
2.85113e-05 6.0892e+09 0
2.9241e-05 6.0892e+09 0
2.37937e-05 6.0892e+09 0
2.34417e-05 6.0892e+09 0
2.00434e-05 6.0892e+09 0
2.37937e-05 6.0892e+09 0
1.64239e-05 6.0892e+09 0
1.93743e-05 6.0892e+09 0
2.37937e-05 6.0892e+09 0
2.34417e-05 6.0892e+09 0
1.93743e-05 6.0892e+09 0
1.95384e-05 6.0892e+09 0
-1.12622e-05 6.0892e+09 0
-7.61838e-07 6.0892e+09 0
-9.57332e-06 6.0892e+09 0
-7.48701e-06 6.0892e+09 0
-7.61838e-07 6.0892e+09 0
4.01874e-06 6.0892e+09 0
-7.48701e-06 6.0892e+09 0
-6.54775e-06 6.0892e+09 0
-9.57332e-06 6.0892e+09 0
-7.48701e-06 6.0892e+09 0
-7.02892e-06 6.0892e+09 0
-8.71768e-06 6.0892e+09 0
-7.48701e-06 6.0892e+09 0
-6.54775e-06 6.0892e+09 0
-8.71768e-06 6.0892e+09 0
-8.65768e-06 6.0892e+09 0
-7.02892e-06 6.0892e+09 0
-8.71768e-06 6.0892e+09 0
9.38014e-07 6.0892e+09 0
-5.9541e-06 6.0892e+09 0
-8.71768e-06 6.0892e+09 0
-8.65768e-06 6.0892e+09 0
-5.9541e-06 6.0892e+09 0
-9.78845e-06 6.0892e+09 0
9.38014e-07 6.0892e+09 0
-5.9541e-06 6.0892e+09 0
6.95106e-06 6.0892e+09 0
-3.74574e-06 6.0892e+09 0
-5.9541e-06 6.0892e+09 0
-9.78845e-06 6.0892e+09 0
-3.74574e-06 6.0892e+09 0
-9.17555e-06 6.0892e+09 0
-1.37501e-05 6.0892e+09 0
-1.15129e-05 6.0892e+09 0
-1.30054e-05 6.0892e+09 0
-1.18233e-05 6.0892e+09 0
-1.15129e-05 6.0892e+09 0
-7.57787e-06 6.0892e+09 0
-1.18233e-05 6.0892e+09 0
-8.70227e-06 6.0892e+09 0
-1.30054e-05 6.0892e+09 0
-1.18233e-05 6.0892e+09 0
-1.01361e-05 6.0892e+09 0
-8.70289e-06 6.0892e+09 0
-1.18233e-05 6.0892e+09 0
-8.70227e-06 6.0892e+09 0
-8.70289e-06 6.0892e+09 0
-7.75319e-06 6.0892e+09 0
-1.01361e-05 6.0892e+09 0
-8.70289e-06 6.0892e+09 0
-9.80431e-06 6.0892e+09 0
-8.73141e-06 6.0892e+09 0
-8.70289e-06 6.0892e+09 0
-7.75319e-06 6.0892e+09 0
-8.73141e-06 6.0892e+09 0
-6.47466e-06 6.0892e+09 0
-9.80431e-06 6.0892e+09 0
-8.73141e-06 6.0892e+09 0
-8.44e-06 6.0892e+09 0
-7.37511e-06 6.0892e+09 0
-8.73141e-06 6.0892e+09 0
-6.47466e-06 6.0892e+09 0
-7.37511e-06 6.0892e+09 0
-4.85055e-06 6.0892e+09 0
-7.75319e-06 6.0892e+09 0
-7.1448e-06 6.0892e+09 0
-6.47466e-06 6.0892e+09 0
-4.0769e-06 6.0892e+09 0
-7.1448e-06 6.0892e+09 0
8.80501e-07 6.0892e+09 0
-4.0769e-06 6.0892e+09 0
8.68985e-07 6.0892e+09 0
-6.47466e-06 6.0892e+09 0
-4.0769e-06 6.0892e+09 0
-4.85055e-06 6.0892e+09 0
-1.1518e-06 6.0892e+09 0
-4.0769e-06 6.0892e+09 0
8.68985e-07 6.0892e+09 0
-1.1518e-06 6.0892e+09 0
4.26457e-06 6.0892e+09 0
6.95106e-06 6.0892e+09 0
-3.74574e-06 6.0892e+09 0
7.96575e-06 6.0892e+09 0
-9.68945e-07 6.0892e+09 0
-3.74574e-06 6.0892e+09 0
-9.17555e-06 6.0892e+09 0
-9.68945e-07 6.0892e+09 0
-6.77677e-06 6.0892e+09 0
7.96575e-06 6.0892e+09 0
-9.68945e-07 6.0892e+09 0
7.39815e-06 6.0892e+09 0
9.89904e-07 6.0892e+09 0
-9.68945e-07 6.0892e+09 0
-6.77677e-06 6.0892e+09 0
9.89904e-07 6.0892e+09 0
-4.47087e-06 6.0892e+09 0
2.9241e-05 6.0892e+09 0
1.91865e-05 6.0892e+09 0
2.34417e-05 6.0892e+09 0
1.68026e-05 6.0892e+09 0
1.91865e-05 6.0892e+09 0
7.39815e-06 6.0892e+09 0
1.68026e-05 6.0892e+09 0
8.8189e-06 6.0892e+09 0
2.34417e-05 6.0892e+09 0
1.68026e-05 6.0892e+09 0
1.95384e-05 6.0892e+09 0
1.64176e-05 6.0892e+09 0
1.68026e-05 6.0892e+09 0
8.8189e-06 6.0892e+09 0
1.64176e-05 6.0892e+09 0
9.8989e-06 6.0892e+09 0
7.39815e-06 6.0892e+09 0
9.89904e-07 6.0892e+09 0
8.8189e-06 6.0892e+09 0
3.40975e-06 6.0892e+09 0
9.89904e-07 6.0892e+09 0
-4.47087e-06 6.0892e+09 0
3.40975e-06 6.0892e+09 0
-2.59377e-06 6.0892e+09 0
8.8189e-06 6.0892e+09 0
3.40975e-06 6.0892e+09 0
9.8989e-06 6.0892e+09 0
3.31838e-06 6.0892e+09 0
3.40975e-06 6.0892e+09 0
-2.59377e-06 6.0892e+09 0
3.31838e-06 6.0892e+09 0
-1.03251e-06 6.0892e+09 0
8.53599e-07 6.0892e+09 0
-1.00339e-05 6.0892e+09 0
1.17688e-06 6.0892e+09 0
-2.70567e-06 6.0892e+09 0
-1.00339e-05 6.0892e+09 0
-1.65018e-05 6.0892e+09 0
-2.70567e-06 6.0892e+09 0
-8.43568e-06 6.0892e+09 0
1.17688e-06 6.0892e+09 0
-2.70567e-06 6.0892e+09 0
5.48529e-06 6.0892e+09 0
4.17199e-06 6.0892e+09 0
-2.70567e-06 6.0892e+09 0
-8.43568e-06 6.0892e+09 0
4.17199e-06 6.0892e+09 0
5.79322e-07 6.0892e+09 0
-1.65018e-05 6.0892e+09 0
-2.36758e-05 6.0892e+09 0
-8.43568e-06 6.0892e+09 0
-1.45096e-05 6.0892e+09 0
-2.36758e-05 6.0892e+09 0
-3.30763e-05 6.0892e+09 0
-1.45096e-05 6.0892e+09 0
-1.87633e-05 6.0892e+09 0
-8.43568e-06 6.0892e+09 0
-1.45096e-05 6.0892e+09 0
5.79322e-07 6.0892e+09 0
-6.91336e-06 6.0892e+09 0
-1.45096e-05 6.0892e+09 0
-1.87633e-05 6.0892e+09 0
-6.91336e-06 6.0892e+09 0
-7.64082e-06 6.0892e+09 0
5.48529e-06 6.0892e+09 0
4.17199e-06 6.0892e+09 0
1.05166e-05 6.0892e+09 0
9.33e-06 6.0892e+09 0
4.17199e-06 6.0892e+09 0
5.79322e-07 6.0892e+09 0
9.33e-06 6.0892e+09 0
6.59784e-06 6.0892e+09 0
1.05166e-05 6.0892e+09 0
9.33e-06 6.0892e+09 0
1.30283e-05 6.0892e+09 0
1.66377e-05 6.0892e+09 0
9.33e-06 6.0892e+09 0
6.59784e-06 6.0892e+09 0
1.66377e-05 6.0892e+09 0
1.81297e-05 6.0892e+09 0
-3.30763e-05 6.0892e+09 0
-3.44855e-05 6.0892e+09 0
-1.87633e-05 6.0892e+09 0
-2.144e-05 6.0892e+09 0
-3.44855e-05 6.0892e+09 0
-3.63191e-05 6.0892e+09 0
-2.144e-05 6.0892e+09 0
-2.16534e-05 6.0892e+09 0
-1.87633e-05 6.0892e+09 0
-2.144e-05 6.0892e+09 0
-7.64082e-06 6.0892e+09 0
-7.64106e-06 6.0892e+09 0
-2.144e-05 6.0892e+09 0
-2.16534e-05 6.0892e+09 0
-7.64106e-06 6.0892e+09 0
-9.67418e-06 6.0892e+09 0
-3.63191e-05 6.0892e+09 0
-3.7056e-05 6.0892e+09 0
-2.16534e-05 6.0892e+09 0
-2.37001e-05 6.0892e+09 0
-3.7056e-05 6.0892e+09 0
-4.20651e-05 6.0892e+09 0
-2.37001e-05 6.0892e+09 0
-2.51701e-05 6.0892e+09 0
-2.16534e-05 6.0892e+09 0
-2.37001e-05 6.0892e+09 0
-9.67418e-06 6.0892e+09 0
-1.12739e-05 6.0892e+09 0
-2.37001e-05 6.0892e+09 0
-2.51701e-05 6.0892e+09 0
-1.12739e-05 6.0892e+09 0
-1.60126e-05 6.0892e+09 0
2.64342e-06 6.0892e+09 0
6.58785e-06 6.0892e+09 0
7.96259e-07 6.0892e+09 0
6.91928e-06 6.0892e+09 0
6.58785e-06 6.0892e+09 0
9.33832e-06 6.0892e+09 0
6.91928e-06 6.0892e+09 0
1.20138e-05 6.0892e+09 0
7.96259e-07 6.0892e+09 0
6.91928e-06 6.0892e+09 0
8.80501e-07 6.0892e+09 0
6.69076e-06 6.0892e+09 0
6.91928e-06 6.0892e+09 0
1.20138e-05 6.0892e+09 0
6.69076e-06 6.0892e+09 0
1.1878e-05 6.0892e+09 0
9.33832e-06 6.0892e+09 0
1.10807e-05 6.0892e+09 0
1.20138e-05 6.0892e+09 0
1.49273e-05 6.0892e+09 0
1.10807e-05 6.0892e+09 0
1.49187e-05 6.0892e+09 0
1.49273e-05 6.0892e+09 0
1.93291e-05 6.0892e+09 0
1.20138e-05 6.0892e+09 0
1.49273e-05 6.0892e+09 0
1.1878e-05 6.0892e+09 0
1.71686e-05 6.0892e+09 0
1.49273e-05 6.0892e+09 0
1.93291e-05 6.0892e+09 0
1.71686e-05 6.0892e+09 0
2.28535e-05 6.0892e+09 0
1.49187e-05 6.0892e+09 0
2.53103e-05 6.0892e+09 0
1.93291e-05 6.0892e+09 0
2.72075e-05 6.0892e+09 0
2.53103e-05 6.0892e+09 0
3.68654e-05 6.0892e+09 0
2.72075e-05 6.0892e+09 0
3.11165e-05 6.0892e+09 0
1.93291e-05 6.0892e+09 0
2.72075e-05 6.0892e+09 0
2.28535e-05 6.0892e+09 0
2.63947e-05 6.0892e+09 0
2.72075e-05 6.0892e+09 0
3.11165e-05 6.0892e+09 0
2.63947e-05 6.0892e+09 0
2.85113e-05 6.0892e+09 0
3.68654e-05 6.0892e+09 0
3.62745e-05 6.0892e+09 0
3.11165e-05 6.0892e+09 0
3.15406e-05 6.0892e+09 0
3.62745e-05 6.0892e+09 0
3.42411e-05 6.0892e+09 0
3.15406e-05 6.0892e+09 0
2.99752e-05 6.0892e+09 0
3.11165e-05 6.0892e+09 0
3.15406e-05 6.0892e+09 0
2.85113e-05 6.0892e+09 0
2.92757e-05 6.0892e+09 0
3.15406e-05 6.0892e+09 0
2.99752e-05 6.0892e+09 0
2.92757e-05 6.0892e+09 0
2.9241e-05 6.0892e+09 0
-1.58726e-06 6.0892e+09 0
-4.01046e-06 6.0892e+09 0
2.62179e-06 6.0892e+09 0
1.24448e-07 6.0892e+09 0
-4.01046e-06 6.0892e+09 0
-7.02892e-06 6.0892e+09 0
1.24448e-07 6.0892e+09 0
-2.47165e-06 6.0892e+09 0
2.62179e-06 6.0892e+09 0
1.24448e-07 6.0892e+09 0
9.75639e-06 6.0892e+09 0
5.4105e-06 6.0892e+09 0
1.24448e-07 6.0892e+09 0
-2.47165e-06 6.0892e+09 0
5.4105e-06 6.0892e+09 0
9.38014e-07 6.0892e+09 0
9.75639e-06 6.0892e+09 0
5.4105e-06 6.0892e+09 0