# vtk DataFile Version 3.0
#This file was generated by the deal.II library on 2018/10/24 at 16:59:57
ASCII
DATASET UNSTRUCTURED_GRID

POINTS 20480 double
0 0 0
0.19635 0 0
0 0.312496 0
0.19635 0.312496 0
0.19635 0 0
0.392699 0 0
0.19635 0.312496 0
0.392699 0.312496 0
0 0.312496 0
0.19635 0.312496 0
0 0.624996 0
0.19635 0.624996 0
0.19635 0.312496 0
0.392699 0.312496 0
0.19635 0.624996 0
0.392699 0.624996 0
0.392699 0 0
0.589049 0 0
0.392699 0.312496 0
0.589049 0.312496 0
0.589049 0 0
0.785398 0 0
0.589049 0.312496 0
0.785398 0.312496 0
0.392699 0.312496 0
0.589049 0.312496 0
0.392699 0.624996 0
0.589049 0.624996 0
0.589049 0.312496 0
0.785398 0.312496 0
0.589049 0.624996 0
0.785398 0.624996 0
0 0.624996 0
0.19635 0.624996 0
0 0.937496 0
0.19635 0.937496 0
0.19635 0.624996 0
0.392699 0.624996 0
0.19635 0.937496 0
0.392699 0.937496 0
0 0.937496 0
0.19635 0.937496 0
0 1.25 0
0.19635 1.25 0
0.19635 0.937496 0
0.392699 0.937496 0
0.19635 1.25 0
0.392699 1.25 0
0.392699 0.624996 0
0.589049 0.624996 0
0.392699 0.937496 0
0.589049 0.937496 0
0.589049 0.624996 0
0.785398 0.624996 0
0.589049 0.937496 0
0.785398 0.937496 0
0.392699 0.937496 0
0.589049 0.937496 0
0.392699 1.25 0
0.589049 1.25 0
0.589049 0.937496 0
0.785398 0.937496 0
0.589049 1.25 0
0.785398 1.25 0
0.785398 0 0
0.981748 0 0
0.785398 0.312496 0
0.981748 0.312496 0
0.981748 0 0
1.1781 0 0
0.981748 0.312496 0
1.1781 0.312496 0
0.785398 0.312496 0
0.981748 0.312496 0
0.785398 0.624996 0
0.981748 0.624996 0
0.981748 0.312496 0
1.1781 0.312496 0
0.981748 0.624996 0
1.1781 0.624996 0
1.1781 0 0
1.37445 0 0
1.1781 0.312496 0
1.37445 0.312496 0
1.37445 0 0
1.5708 0 0
1.37445 0.312496 0
1.5708 0.312496 0
1.1781 0.312496 0
1.37445 0.312496 0
1.1781 0.624996 0
1.37445 0.624996 0
1.37445 0.312496 0
1.5708 0.312496 0
1.37445 0.624996 0
1.5708 0.624996 0
0.785398 0.624996 0
0.981748 0.624996 0
0.785398 0.937496 0
0.981748 0.937496 0
0.981748 0.624996 0
1.1781 0.624996 0
0.981748 0.937496 0
1.1781 0.937496 0
0.785398 0.937496 0
0.981748 0.937496 0
0.785398 1.25 0
0.981748 1.25 0
0.981748 0.937496 0
1.1781 0.937496 0
0.981748 1.25 0
1.1781 1.25 0
1.1781 0.624996 0
1.37445 0.624996 0
1.1781 0.937496 0
1.37445 0.937496 0
1.37445 0.624996 0
1.5708 0.624996 0
1.37445 0.937496 0
1.5708 0.937496 0
1.1781 0.937496 0
1.37445 0.937496 0
1.1781 1.25 0
1.37445 1.25 0
1.37445 0.937496 0
1.5708 0.937496 0
1.37445 1.25 0
1.5708 1.25 0
0 1.25 0
0.19635 1.25 0
0 1.5625 0
0.19635 1.5625 0
0.19635 1.25 0
0.392699 1.25 0
0.19635 1.5625 0
0.392699 1.5625 0
0 1.5625 0
0.19635 1.5625 0
0 1.875 0
0.19635 1.875 0
0.19635 1.5625 0
0.392699 1.5625 0
0.19635 1.875 0
0.392699 1.875 0
0.392699 1.25 0
0.589049 1.25 0
0.392699 1.5625 0
0.589049 1.5625 0
0.589049 1.25 0
0.785398 1.25 0
0.589049 1.5625 0
0.785398 1.5625 0
0.392699 1.5625 0
0.589049 1.5625 0
0.392699 1.875 0
0.589049 1.875 0
0.589049 1.5625 0
0.785398 1.5625 0
0.589049 1.875 0
0.785398 1.875 0
0 1.875 0
0.19635 1.875 0
0 2.1875 0
0.19635 2.1875 0
0.19635 1.875 0
0.392699 1.875 0
0.19635 2.1875 0
0.392699 2.1875 0
0 2.1875 0
0.19635 2.1875 0
0 2.5 0
0.19635 2.5 0
0.19635 2.1875 0
0.392699 2.1875 0
0.19635 2.5 0
0.392699 2.5 0
0.392699 1.875 0
0.589049 1.875 0
0.392699 2.1875 0
0.589049 2.1875 0
0.589049 1.875 0
0.785398 1.875 0
0.589049 2.1875 0
0.785398 2.1875 0
0.392699 2.1875 0
0.589049 2.1875 0
0.392699 2.5 0
0.589049 2.5 0
0.589049 2.1875 0
0.785398 2.1875 0
0.589049 2.5 0
0.785398 2.5 0
0.785398 1.25 0
0.981748 1.25 0
0.785398 1.5625 0
0.981748 1.5625 0
0.981748 1.25 0
1.1781 1.25 0
0.981748 1.5625 0
1.1781 1.5625 0
0.785398 1.5625 0
0.981748 1.5625 0
0.785398 1.875 0
0.981748 1.875 0
0.981748 1.5625 0
1.1781 1.5625 0
0.981748 1.875 0
1.1781 1.875 0
1.1781 1.25 0
1.37445 1.25 0
1.1781 1.5625 0
1.37445 1.5625 0
1.37445 1.25 0
1.5708 1.25 0
1.37445 1.5625 0
1.5708 1.5625 0
1.1781 1.5625 0
1.37445 1.5625 0
1.1781 1.875 0
1.37445 1.875 0
1.37445 1.5625 0
1.5708 1.5625 0
1.37445 1.875 0
1.5708 1.875 0
0.785398 1.875 0
0.981748 1.875 0
0.785398 2.1875 0
0.981748 2.1875 0
0.981748 1.875 0
1.1781 1.875 0
0.981748 2.1875 0
1.1781 2.1875 0
0.785398 2.1875 0
0.981748 2.1875 0
0.785398 2.5 0
0.981748 2.5 0
0.981748 2.1875 0
1.1781 2.1875 0
0.981748 2.5 0
1.1781 2.5 0
1.1781 1.875 0
1.37445 1.875 0
1.1781 2.1875 0
1.37445 2.1875 0
1.37445 1.875 0
1.5708 1.875 0
1.37445 2.1875 0
1.5708 2.1875 0
1.1781 2.1875 0
1.37445 2.1875 0
1.1781 2.5 0
1.37445 2.5 0
1.37445 2.1875 0
1.5708 2.1875 0
1.37445 2.5 0
1.5708 2.5 0
1.5708 0 0
1.76715 0 0
1.5708 0.312496 0
1.76715 0.312496 0
1.76715 0 0
1.9635 0 0
1.76715 0.312496 0
1.9635 0.312496 0
1.5708 0.312496 0
1.76715 0.312496 0
1.5708 0.624996 0
1.76715 0.624996 0
1.76715 0.312496 0
1.9635 0.312496 0
1.76715 0.624996 0
1.9635 0.624996 0
1.9635 0 0
2.15984 0 0
1.9635 0.312496 0
2.15984 0.312496 0
2.15984 0 0
2.35619 0 0
2.15984 0.312496 0
2.35619 0.312496 0
1.9635 0.312496 0
2.15984 0.312496 0
1.9635 0.624996 0
2.15984 0.624996 0
2.15984 0.312496 0
2.35619 0.312496 0
2.15984 0.624996 0
2.35619 0.624996 0
1.5708 0.624996 0
1.76715 0.624996 0
1.5708 0.937496 0
1.76715 0.937496 0
1.76715 0.624996 0
1.9635 0.624996 0
1.76715 0.937496 0
1.9635 0.937496 0
1.5708 0.937496 0
1.76715 0.937496 0
1.5708 1.25 0
1.76715 1.25 0
1.76715 0.937496 0
1.9635 0.937496 0
1.76715 1.25 0
1.9635 1.25 0
1.9635 0.624996 0
2.15984 0.624996 0
1.9635 0.937496 0
2.15984 0.937496 0
2.15984 0.624996 0
2.35619 0.624996 0
2.15984 0.937496 0
2.35619 0.937496 0
1.9635 0.937496 0
2.15984 0.937496 0
1.9635 1.25 0
2.15984 1.25 0
2.15984 0.937496 0
2.35619 0.937496 0
2.15984 1.25 0
2.35619 1.25 0
2.35619 0 0
2.55254 0 0
2.35619 0.312496 0
2.55254 0.312496 0
2.55254 0 0
2.74889 0 0
2.55254 0.312496 0
2.74889 0.312496 0
2.35619 0.312496 0
2.55254 0.312496 0
2.35619 0.624996 0
2.55254 0.624996 0
2.55254 0.312496 0
2.74889 0.312496 0
2.55254 0.624996 0
2.74889 0.624996 0
2.74889 0 0
2.94524 0 0
2.74889 0.312496 0
2.94524 0.312496 0
2.94524 0 0
3.14159 0 0
2.94524 0.312496 0
3.14159 0.312496 0
2.74889 0.312496 0
2.94524 0.312496 0
2.74889 0.624996 0
2.94524 0.624996 0
2.94524 0.312496 0
3.14159 0.312496 0
2.94524 0.624996 0
3.14159 0.624996 0
2.35619 0.624996 0
2.55254 0.624996 0
2.35619 0.937496 0
2.55254 0.937496 0
2.55254 0.624996 0
2.74889 0.624996 0
2.55254 0.937496 0
2.74889 0.937496 0
2.35619 0.937496 0
2.55254 0.937496 0
2.35619 1.25 0
2.55254 1.25 0
2.55254 0.937496 0
2.74889 0.937496 0
2.55254 1.25 0
2.74889 1.25 0
2.74889 0.624996 0
2.94524 0.624996 0
2.74889 0.937496 0
2.94524 0.937496 0
2.94524 0.624996 0
3.14159 0.624996 0
2.94524 0.937496 0
3.14159 0.937496 0
2.74889 0.937496 0
2.94524 0.937496 0
2.74889 1.25 0
2.94524 1.25 0
2.94524 0.937496 0
3.14159 0.937496 0
2.94524 1.25 0
3.14159 1.25 0
1.5708 1.25 0
1.76715 1.25 0
1.5708 1.5625 0
1.76715 1.5625 0
1.76715 1.25 0
1.9635 1.25 0
1.76715 1.5625 0
1.9635 1.5625 0
1.5708 1.5625 0
1.76715 1.5625 0
1.5708 1.875 0
1.76715 1.875 0
1.76715 1.5625 0
1.9635 1.5625 0
1.76715 1.875 0
1.9635 1.875 0
1.9635 1.25 0
2.15984 1.25 0
1.9635 1.5625 0
2.15984 1.5625 0
2.15984 1.25 0
2.35619 1.25 0
2.15984 1.5625 0
2.35619 1.5625 0
1.9635 1.5625 0
2.15984 1.5625 0
1.9635 1.875 0
2.15984 1.875 0
2.15984 1.5625 0
2.35619 1.5625 0
2.15984 1.875 0
2.35619 1.875 0
1.5708 1.875 0
1.76715 1.875 0
1.5708 2.1875 0
1.76715 2.1875 0
1.76715 1.875 0
1.9635 1.875 0
1.76715 2.1875 0
1.9635 2.1875 0
1.5708 2.1875 0
1.76715 2.1875 0
1.5708 2.5 0
1.76715 2.5 0
1.76715 2.1875 0
1.9635 2.1875 0
1.76715 2.5 0
1.9635 2.5 0
1.9635 1.875 0
2.15984 1.875 0
1.9635 2.1875 0
2.15984 2.1875 0
2.15984 1.875 0
2.35619 1.875 0
2.15984 2.1875 0
2.35619 2.1875 0
1.9635 2.1875 0
2.15984 2.1875 0
1.9635 2.5 0
2.15984 2.5 0
2.15984 2.1875 0
2.35619 2.1875 0
2.15984 2.5 0
2.35619 2.5 0
2.35619 1.25 0
2.55254 1.25 0
2.35619 1.5625 0
2.55254 1.5625 0
2.55254 1.25 0
2.74889 1.25 0
2.55254 1.5625 0
2.74889 1.5625 0
2.35619 1.5625 0
2.55254 1.5625 0
2.35619 1.875 0
2.55254 1.875 0
2.55254 1.5625 0
2.74889 1.5625 0
2.55254 1.875 0
2.74889 1.875 0
2.74889 1.25 0
2.94524 1.25 0
2.74889 1.5625 0
2.94524 1.5625 0
2.94524 1.25 0
3.14159 1.25 0
2.94524 1.5625 0
3.14159 1.5625 0
2.74889 1.5625 0
2.94524 1.5625 0
2.74889 1.875 0
2.94524 1.875 0
2.94524 1.5625 0
3.14159 1.5625 0
2.94524 1.875 0
3.14159 1.875 0
2.35619 1.875 0
2.55254 1.875 0
2.35619 2.1875 0
2.55254 2.1875 0
2.55254 1.875 0
2.74889 1.875 0
2.55254 2.1875 0
2.74889 2.1875 0
2.35619 2.1875 0
2.55254 2.1875 0
2.35619 2.5 0
2.55254 2.5 0
2.55254 2.1875 0
2.74889 2.1875 0
2.55254 2.5 0
2.74889 2.5 0
2.74889 1.875 0
2.94524 1.875 0
2.74889 2.1875 0
2.94524 2.1875 0
2.94524 1.875 0
3.14159 1.875 0
2.94524 2.1875 0
3.14159 2.1875 0
2.74889 2.1875 0
2.94524 2.1875 0
2.74889 2.5 0
2.94524 2.5 0
2.94524 2.1875 0
3.14159 2.1875 0
2.94524 2.5 0
3.14159 2.5 0
0 2.5 0
0.19635 2.5 0
0 2.8125 0
0.19635 2.8125 0
0.19635 2.5 0
0.392699 2.5 0
0.19635 2.8125 0
0.392699 2.8125 0
0 2.8125 0
0.19635 2.8125 0
0 3.125 0
0.19635 3.125 0
0.19635 2.8125 0
0.392699 2.8125 0
0.19635 3.125 0
0.392699 3.125 0
0.392699 2.5 0
0.589049 2.5 0
0.392699 2.8125 0
0.589049 2.8125 0
0.589049 2.5 0
0.785398 2.5 0
0.589049 2.8125 0
0.785398 2.8125 0
0.392699 2.8125 0
0.589049 2.8125 0
0.392699 3.125 0
0.589049 3.125 0
0.589049 2.8125 0
0.785398 2.8125 0
0.589049 3.125 0
0.785398 3.125 0
0 3.125 0
0.19635 3.125 0
0 3.4375 0
0.19635 3.4375 0
0.19635 3.125 0
0.392699 3.125 0
0.19635 3.4375 0
0.392699 3.4375 0
0 3.4375 0
0.19635 3.4375 0
0 3.75 0
0.19635 3.75 0
0.19635 3.4375 0
0.392699 3.4375 0
0.19635 3.75 0
0.392699 3.75 0
0.392699 3.125 0
0.589049 3.125 0
0.392699 3.4375 0
0.589049 3.4375 0
0.589049 3.125 0
0.785398 3.125 0
0.589049 3.4375 0
0.785398 3.4375 0
0.392699 3.4375 0
0.589049 3.4375 0
0.392699 3.75 0
0.589049 3.75 0
0.589049 3.4375 0
0.785398 3.4375 0
0.589049 3.75 0
0.785398 3.75 0
0.785398 2.5 0
0.981748 2.5 0
0.785398 2.8125 0
0.981748 2.8125 0
0.981748 2.5 0
1.1781 2.5 0
0.981748 2.8125 0
1.1781 2.8125 0
0.785398 2.8125 0
0.981748 2.8125 0
0.785398 3.125 0
0.981748 3.125 0
0.981748 2.8125 0
1.1781 2.8125 0
[...]
POINT_DATA 20480
VECTORS velocity double
0 0 0
0 0 0
0 -1.87247e-05 0
2.01102e-17 -1.87247e-05 0
0 0 0
0 0 0
2.01102e-17 -1.87247e-05 0
-6.24944e-17 -1.87247e-05 0
0 -1.87247e-05 0
2.01102e-17 -1.87247e-05 0
0 -1.76906e-05 0
-3.52127e-17 -1.76906e-05 0
2.01102e-17 -1.87247e-05 0
-6.24944e-17 -1.87247e-05 0
-3.52127e-17 -1.76906e-05 0
5.96876e-17 -1.76906e-05 0
0 0 0
0 0 0
-6.24944e-17 -1.87247e-05 0
1.20662e-16 -1.87247e-05 0
0 0 0
0 0 0
1.20662e-16 -1.87247e-05 0
5.06015e-17 -1.87247e-05 0
-6.24944e-17 -1.87247e-05 0
1.20662e-16 -1.87247e-05 0
5.96876e-17 -1.76906e-05 0
2.67762e-16 -1.76906e-05 0
1.20662e-16 -1.87247e-05 0
5.06015e-17 -1.87247e-05 0
2.67762e-16 -1.76906e-05 0
5.93342e-17 -1.76906e-05 0
0 -1.76906e-05 0
-3.52127e-17 -1.76906e-05 0
0 -1.76092e-05 0
1.13616e-17 -1.76092e-05 0
-3.52127e-17 -1.76906e-05 0
5.96876e-17 -1.76906e-05 0
1.13616e-17 -1.76092e-05 0
2.54269e-16 -1.76092e-05 0
0 -1.76092e-05 0
1.13616e-17 -1.76092e-05 0
0 -1.68679e-05 0
-4.37505e-17 -1.68679e-05 0
1.13616e-17 -1.76092e-05 0
2.54269e-16 -1.76092e-05 0
-4.37505e-17 -1.68679e-05 0
-2.40406e-16 -1.68679e-05 0
5.96876e-17 -1.76906e-05 0
2.67762e-16 -1.76906e-05 0
2.54269e-16 -1.76092e-05 0
-1.37776e-16 -1.76092e-05 0
2.67762e-16 -1.76906e-05 0
5.93342e-17 -1.76906e-05 0
-1.37776e-16 -1.76092e-05 0
7.27428e-17 -1.76092e-05 0
2.54269e-16 -1.76092e-05 0
-1.37776e-16 -1.76092e-05 0
-2.40406e-16 -1.68679e-05 0
2.942e-16 -1.68679e-05 0
-1.37776e-16 -1.76092e-05 0
7.27428e-17 -1.76092e-05 0
2.942e-16 -1.68679e-05 0
-9.73701e-17 -1.68679e-05 0
0 0 0
0 0 0
5.06015e-17 -1.87247e-05 0
-1.85962e-16 -1.87247e-05 0
0 0 0
0 0 0
-1.85962e-16 -1.87247e-05 0
3.05834e-17 -1.87247e-05 0
5.06015e-17 -1.87247e-05 0
-1.85962e-16 -1.87247e-05 0
5.93342e-17 -1.76906e-05 0
5.34182e-16 -1.76906e-05 0
-1.85962e-16 -1.87247e-05 0
3.05834e-17 -1.87247e-05 0
5.34182e-16 -1.76906e-05 0
1.59421e-17 -1.76906e-05 0
0 0 0
0 0 0
3.05834e-17 -1.87247e-05 0
3.74647e-16 -1.87247e-05 0
0 0 0
0 0 0
3.74647e-16 -1.87247e-05 0
6.23602e-17 -1.87247e-05 0
3.05834e-17 -1.87247e-05 0
3.74647e-16 -1.87247e-05 0
1.59421e-17 -1.76906e-05 0
-2.98282e-16 -1.76906e-05 0
3.74647e-16 -1.87247e-05 0
6.23602e-17 -1.87247e-05 0
-2.98282e-16 -1.76906e-05 0
3.66216e-16 -1.76906e-05 0
5.93342e-17 -1.76906e-05 0
5.34182e-16 -1.76906e-05 0
7.27428e-17 -1.76092e-05 0
2.94001e-16 -1.76092e-05 0
5.34182e-16 -1.76906e-05 0
1.59421e-17 -1.76906e-05 0
2.94001e-16 -1.76092e-05 0
2.25626e-16 -1.76092e-05 0
7.27428e-17 -1.76092e-05 0
2.94001e-16 -1.76092e-05 0
-9.73701e-17 -1.68679e-05 0
2.57698e-16 -1.68679e-05 0
2.94001e-16 -1.76092e-05 0
2.25626e-16 -1.76092e-05 0
2.57698e-16 -1.68679e-05 0
1.45439e-16 -1.68679e-05 0
1.59421e-17 -1.76906e-05 0
-2.98282e-16 -1.76906e-05 0
2.25626e-16 -1.76092e-05 0
1.0111e-16 -1.76092e-05 0
-2.98282e-16 -1.76906e-05 0
3.66216e-16 -1.76906e-05 0
1.0111e-16 -1.76092e-05 0
1.47821e-16 -1.76092e-05 0
2.25626e-16 -1.76092e-05 0
1.0111e-16 -1.76092e-05 0
1.45439e-16 -1.68679e-05 0
4.34145e-16 -1.68679e-05 0
1.0111e-16 -1.76092e-05 0
1.47821e-16 -1.76092e-05 0
4.34145e-16 -1.68679e-05 0
3.22331e-16 -1.68679e-05 0
0 -1.68679e-05 0
-4.37505e-17 -1.68679e-05 0
0 -1.62711e-05 0
4.73974e-17 -1.62711e-05 0
-4.37505e-17 -1.68679e-05 0
-2.40406e-16 -1.68679e-05 0
4.73974e-17 -1.62711e-05 0
2.94795e-16 -1.62711e-05 0
0 -1.62711e-05 0
4.73974e-17 -1.62711e-05 0
0 -1.56392e-05 0
-9.47943e-17 -1.56392e-05 0
4.73974e-17 -1.62711e-05 0
2.94795e-16 -1.62711e-05 0
-9.47943e-17 -1.56392e-05 0
2.16413e-16 -1.56392e-05 0
-2.40406e-16 -1.68679e-05 0
2.942e-16 -1.68679e-05 0
2.94795e-16 -1.62711e-05 0
2.97233e-17 -1.62711e-05 0
2.942e-16 -1.68679e-05 0
-9.73701e-17 -1.68679e-05 0
2.97233e-17 -1.62711e-05 0
3.33171e-16 -1.62711e-05 0
2.94795e-16 -1.62711e-05 0
2.97233e-17 -1.62711e-05 0
2.16413e-16 -1.56392e-05 0
5.79656e-16 -1.56392e-05 0
2.97233e-17 -1.62711e-05 0
3.33171e-16 -1.62711e-05 0
5.79656e-16 -1.56392e-05 0
1.65676e-16 -1.56392e-05 0
0 -1.56392e-05 0
-9.47943e-17 -1.56392e-05 0
0 -1.50233e-05 0
1.43824e-16 -1.50233e-05 0
-9.47943e-17 -1.56392e-05 0
2.16413e-16 -1.56392e-05 0
1.43824e-16 -1.50233e-05 0
6.91891e-17 -1.50233e-05 0
0 -1.50233e-05 0
1.43824e-16 -1.50233e-05 0
0 -1.44098e-05 0
9.65635e-17 -1.44098e-05 0
1.43824e-16 -1.50233e-05 0
6.91891e-17 -1.50233e-05 0
9.65635e-17 -1.44098e-05 0
1.39919e-16 -1.44098e-05 0
2.16413e-16 -1.56392e-05 0
5.79656e-16 -1.56392e-05 0
6.91891e-17 -1.50233e-05 0
3.82038e-16 -1.50233e-05 0
5.79656e-16 -1.56392e-05 0
1.65676e-16 -1.56392e-05 0
3.82038e-16 -1.50233e-05 0
4.46373e-16 -1.50233e-05 0
6.91891e-17 -1.50233e-05 0
3.82038e-16 -1.50233e-05 0
1.39919e-16 -1.44098e-05 0
3.53263e-16 -1.44098e-05 0
3.82038e-16 -1.50233e-05 0
4.46373e-16 -1.50233e-05 0
3.53263e-16 -1.44098e-05 0
3.50898e-16 -1.44098e-05 0
-9.73701e-17 -1.68679e-05 0
2.57698e-16 -1.68679e-05 0
3.33171e-16 -1.62711e-05 0
4.392e-16 -1.62711e-05 0
2.57698e-16 -1.68679e-05 0
1.45439e-16 -1.68679e-05 0
4.392e-16 -1.62711e-05 0
3.68841e-16 -1.62711e-05 0
3.33171e-16 -1.62711e-05 0
4.392e-16 -1.62711e-05 0
1.65676e-16 -1.56392e-05 0
4.52432e-16 -1.56392e-05 0
4.392e-16 -1.62711e-05 0
3.68841e-16 -1.62711e-05 0
4.52432e-16 -1.56392e-05 0
4.78423e-16 -1.56392e-05 0
1.45439e-16 -1.68679e-05 0
4.34145e-16 -1.68679e-05 0
3.68841e-16 -1.62711e-05 0
5.07453e-16 -1.62711e-05 0
4.34145e-16 -1.68679e-05 0
3.22331e-16 -1.68679e-05 0
5.07453e-16 -1.62711e-05 0
4.58144e-16 -1.62711e-05 0
3.68841e-16 -1.62711e-05 0
5.07453e-16 -1.62711e-05 0
4.78423e-16 -1.56392e-05 0
4.80486e-16 -1.56392e-05 0
5.07453e-16 -1.62711e-05 0
4.58144e-16 -1.62711e-05 0
4.80486e-16 -1.56392e-05 0
6.36346e-16 -1.56392e-05 0
1.65676e-16 -1.56392e-05 0
4.52432e-16 -1.56392e-05 0
4.46373e-16 -1.50233e-05 0
4.35427e-16 -1.50233e-05 0
4.52432e-16 -1.56392e-05 0
4.78423e-16 -1.56392e-05 0
4.35427e-16 -1.50233e-05 0
5.1638e-16 -1.50233e-05 0
4.46373e-16 -1.50233e-05 0
4.35427e-16 -1.50233e-05 0
3.50898e-16 -1.44098e-05 0
2.46549e-16 -1.44098e-05 0
4.35427e-16 -1.50233e-05 0
5.1638e-16 -1.50233e-05 0
2.46549e-16 -1.44098e-05 0
5.59815e-16 -1.44098e-05 0
4.78423e-16 -1.56392e-05 0
4.80486e-16 -1.56392e-05 0
5.1638e-16 -1.50233e-05 0
5.36118e-16 -1.50233e-05 0
4.80486e-16 -1.56392e-05 0
6.36346e-16 -1.56392e-05 0
5.36118e-16 -1.50233e-05 0
8.17992e-16 -1.50233e-05 0
5.1638e-16 -1.50233e-05 0
5.36118e-16 -1.50233e-05 0
5.59815e-16 -1.44098e-05 0
7.07203e-16 -1.44098e-05 0
5.36118e-16 -1.50233e-05 0
8.17992e-16 -1.50233e-05 0
7.07203e-16 -1.44098e-05 0
6.76453e-16 -1.44098e-05 0
0 0 0
0 0 0
6.23602e-17 -1.87247e-05 0
2.32842e-16 -1.87247e-05 0
0 0 0
0 0 0
2.32842e-16 -1.87247e-05 0
3.15168e-16 -1.87247e-05 0
6.23602e-17 -1.87247e-05 0
2.32842e-16 -1.87247e-05 0
3.66216e-16 -1.76906e-05 0
4.76498e-16 -1.76906e-05 0
2.32842e-16 -1.87247e-05 0
3.15168e-16 -1.87247e-05 0
4.76498e-16 -1.76906e-05 0
3.6297e-16 -1.76906e-05 0
0 0 0
0 0 0
3.15168e-16 -1.87247e-05 0
2.1987e-16 -1.87247e-05 0
0 0 0
0 0 0
2.1987e-16 -1.87247e-05 0
1.64428e-16 -1.87247e-05 0
3.15168e-16 -1.87247e-05 0
2.1987e-16 -1.87247e-05 0
3.6297e-16 -1.76906e-05 0
5.51698e-16 -1.76906e-05 0
2.1987e-16 -1.87247e-05 0
1.64428e-16 -1.87247e-05 0
5.51698e-16 -1.76906e-05 0
5.09581e-16 -1.76906e-05 0
3.66216e-16 -1.76906e-05 0
4.76498e-16 -1.76906e-05 0
1.47821e-16 -1.76092e-05 0
3.17848e-16 -1.76092e-05 0
4.76498e-16 -1.76906e-05 0
3.6297e-16 -1.76906e-05 0
3.17848e-16 -1.76092e-05 0
5.15212e-16 -1.76092e-05 0
1.47821e-16 -1.76092e-05 0
3.17848e-16 -1.76092e-05 0
3.22331e-16 -1.68679e-05 0
4.8437e-16 -1.68679e-05 0
3.17848e-16 -1.76092e-05 0
5.15212e-16 -1.76092e-05 0
4.8437e-16 -1.68679e-05 0
4.63332e-16 -1.68679e-05 0
3.6297e-16 -1.76906e-05 0
5.51698e-16 -1.76906e-05 0
5.15212e-16 -1.76092e-05 0
7.29152e-16 -1.76092e-05 0
5.51698e-16 -1.76906e-05 0
5.09581e-16 -1.76906e-05 0
7.29152e-16 -1.76092e-05 0
5.38566e-16 -1.76092e-05 0
5.15212e-16 -1.76092e-05 0
7.29152e-16 -1.76092e-05 0
4.63332e-16 -1.68679e-05 0
4.7525e-16 -1.68679e-05 0
7.29152e-16 -1.76092e-05 0
5.38566e-16 -1.76092e-05 0
4.7525e-16 -1.68679e-05 0
7.9294e-16 -1.68679e-05 0
0 0 0
0 0 0
1.64428e-16 -1.87247e-05 0
1.73488e-16 -1.87247e-05 0
0 0 0
0 0 0
1.73488e-16 -1.87247e-05 0
2.9076e-16 -1.87247e-05 0
1.64428e-16 -1.87247e-05 0
1.73488e-16 -1.87247e-05 0
5.09581e-16 -1.76906e-05 0
5.05675e-16 -1.76906e-05 0
1.73488e-16 -1.87247e-05 0
2.9076e-16 -1.87247e-05 0
5.05675e-16 -1.76906e-05 0
5.56235e-16 -1.76906e-05 0
0 0 0
0 0 0
2.9076e-16 -1.87247e-05 0
2.28569e-16 -1.87247e-05 0
0 0 0
0 0 0
2.28569e-16 -1.87247e-05 0
2.56344e-16 -1.87247e-05 0
2.9076e-16 -1.87247e-05 0
2.28569e-16 -1.87247e-05 0
5.56235e-16 -1.76906e-05 0
6.94486e-16 -1.76906e-05 0
2.28569e-16 -1.87247e-05 0
2.56344e-16 -1.87247e-05 0
6.94486e-16 -1.76906e-05 0
5.225e-16 -1.76906e-05 0
5.09581e-16 -1.76906e-05 0
5.05675e-16 -1.76906e-05 0
5.38566e-16 -1.76092e-05 0
6.97427e-16 -1.76092e-05 0
5.05675e-16 -1.76906e-05 0
5.56235e-16 -1.76906e-05 0
6.97427e-16 -1.76092e-05 0
7.12605e-16 -1.76092e-05 0
5.38566e-16 -1.76092e-05 0
6.97427e-16 -1.76092e-05 0
7.9294e-16 -1.68679e-05 0
8.31006e-16 -1.68679e-05 0
6.97427e-16 -1.76092e-05 0
7.12605e-16 -1.76092e-05 0
8.31006e-16 -1.68679e-05 0
8.93334e-16 -1.68679e-05 0
5.56235e-16 -1.76906e-05 0
6.94486e-16 -1.76906e-05 0
7.12605e-16 -1.76092e-05 0
5.98002e-16 -1.76092e-05 0
6.94486e-16 -1.76906e-05 0
5.225e-16 -1.76906e-05 0
5.98002e-16 -1.76092e-05 0
5.23883e-16 -1.76092e-05 0
7.12605e-16 -1.76092e-05 0
5.98002e-16 -1.76092e-05 0
8.93334e-16 -1.68679e-05 0
7.9278e-16 -1.68679e-05 0
5.98002e-16 -1.76092e-05 0
5.23883e-16 -1.76092e-05 0
7.9278e-16 -1.68679e-05 0
9.00395e-16 -1.68679e-05 0
3.22331e-16 -1.68679e-05 0
4.8437e-16 -1.68679e-05 0
4.58144e-16 -1.62711e-05 0
5.81134e-16 -1.62711e-05 0
4.8437e-16 -1.68679e-05 0
4.63332e-16 -1.68679e-05 0
5.81134e-16 -1.62711e-05 0
6.02593e-16 -1.62711e-05 0
4.58144e-16 -1.62711e-05 0
5.81134e-16 -1.62711e-05 0
6.36346e-16 -1.56392e-05 0
6.25598e-16 -1.56392e-05 0
5.81134e-16 -1.62711e-05 0
6.02593e-16 -1.62711e-05 0
6.25598e-16 -1.56392e-05 0
8.57339e-16 -1.56392e-05 0
4.63332e-16 -1.68679e-05 0
4.7525e-16 -1.68679e-05 0
6.02593e-16 -1.62711e-05 0
6.80968e-16 -1.62711e-05 0
4.7525e-16 -1.68679e-05 0
7.9294e-16 -1.68679e-05 0
6.80968e-16 -1.62711e-05 0
6.60026e-16 -1.62711e-05 0
6.02593e-16 -1.62711e-05 0
6.80968e-16 -1.62711e-05 0
8.57339e-16 -1.56392e-05 0
8.22126e-16 -1.56392e-05 0
6.80968e-16 -1.62711e-05 0
6.60026e-16 -1.62711e-05 0
8.22126e-16 -1.56392e-05 0
8.9098e-16 -1.56392e-05 0
6.36346e-16 -1.56392e-05 0
6.25598e-16 -1.56392e-05 0
8.17992e-16 -1.50233e-05 0
7.9584e-16 -1.50233e-05 0
6.25598e-16 -1.56392e-05 0
8.57339e-16 -1.56392e-05 0
7.9584e-16 -1.50233e-05 0
6.64572e-16 -1.50233e-05 0
8.17992e-16 -1.50233e-05 0
7.9584e-16 -1.50233e-05 0
6.76453e-16 -1.44098e-05 0
8.37988e-16 -1.44098e-05 0
7.9584e-16 -1.50233e-05 0
6.64572e-16 -1.50233e-05 0
8.37988e-16 -1.44098e-05 0
9.32696e-16 -1.44098e-05 0
8.57339e-16 -1.56392e-05 0
8.22126e-16 -1.56392e-05 0
6.64572e-16 -1.50233e-05 0
8.27318e-16 -1.50233e-05 0
8.22126e-16 -1.56392e-05 0
8.9098e-16 -1.56392e-05 0
8.27318e-16 -1.50233e-05 0
1.0959e-15 -1.50233e-05 0
6.64572e-16 -1.50233e-05 0
8.27318e-16 -1.50233e-05 0
9.32696e-16 -1.44098e-05 0
9.3726e-16 -1.44098e-05 0
8.27318e-16 -1.50233e-05 0
1.0959e-15 -1.50233e-05 0
9.3726e-16 -1.44098e-05 0
8.71926e-16 -1.44098e-05 0
7.9294e-16 -1.68679e-05 0
8.31006e-16 -1.68679e-05 0
6.60026e-16 -1.62711e-05 0
7.99369e-16 -1.62711e-05 0
8.31006e-16 -1.68679e-05 0
8.93334e-16 -1.68679e-05 0
7.99369e-16 -1.62711e-05 0
1.1361e-15 -1.62711e-05 0
6.60026e-16 -1.62711e-05 0
7.99369e-16 -1.62711e-05 0
8.9098e-16 -1.56392e-05 0
8.3641e-16 -1.56392e-05 0
7.99369e-16 -1.62711e-05 0
1.1361e-15 -1.62711e-05 0
8.3641e-16 -1.56392e-05 0
9.8962e-16 -1.56392e-05 0
8.93334e-16 -1.68679e-05 0
7.9278e-16 -1.68679e-05 0
1.1361e-15 -1.62711e-05 0
9.62703e-16 -1.62711e-05 0
7.9278e-16 -1.68679e-05 0
9.00395e-16 -1.68679e-05 0
9.62703e-16 -1.62711e-05 0
9.9738e-16 -1.62711e-05 0
1.1361e-15 -1.62711e-05 0
9.62703e-16 -1.62711e-05 0
9.8962e-16 -1.56392e-05 0
1.20356e-15 -1.56392e-05 0
9.62703e-16 -1.62711e-05 0
9.9738e-16 -1.62711e-05 0
1.20356e-15 -1.56392e-05 0
1.30117e-15 -1.56392e-05 0
8.9098e-16 -1.56392e-05 0
8.3641e-16 -1.56392e-05 0
1.0959e-15 -1.50233e-05 0
1.05417e-15 -1.50233e-05 0
8.3641e-16 -1.56392e-05 0
9.8962e-16 -1.56392e-05 0
1.05417e-15 -1.50233e-05 0
9.82603e-16 -1.50233e-05 0
1.0959e-15 -1.50233e-05 0
1.05417e-15 -1.50233e-05 0
8.71926e-16 -1.44098e-05 0
1.19124e-15 -1.44098e-05 0
1.05417e-15 -1.50233e-05 0
9.82603e-16 -1.50233e-05 0
1.19124e-15 -1.44098e-05 0
1.17788e-15 -1.44098e-05 0
9.8962e-16 -1.56392e-05 0
1.20356e-15 -1.56392e-05 0
9.82603e-16 -1.50233e-05 0
1.31081e-15 -1.50233e-05 0
1.20356e-15 -1.56392e-05 0
1.30117e-15 -1.56392e-05 0
1.31081e-15 -1.50233e-05 0
1.21507e-15 -1.50233e-05 0
9.82603e-16 -1.50233e-05 0
1.31081e-15 -1.50233e-05 0
1.17788e-15 -1.44098e-05 0
1.47589e-15 -1.44098e-05 0
1.31081e-15 -1.50233e-05 0
1.21507e-15 -1.50233e-05 0
1.47589e-15 -1.44098e-05 0
9.83397e-16 -1.44098e-05 0
0 -1.44098e-05 0
9.65635e-17 -1.44098e-05 0
0 -1.38021e-05 0
2.15932e-16 -1.38021e-05 0
9.65635e-17 -1.44098e-05 0
1.39919e-16 -1.44098e-05 0
2.15932e-16 -1.38021e-05 0
1.60026e-16 -1.38021e-05 0
0 -1.38021e-05 0
2.15932e-16 -1.38021e-05 0
0 -1.31989e-05 0
1.02515e-16 -1.31989e-05 0
2.15932e-16 -1.38021e-05 0
1.60026e-16 -1.38021e-05 0
1.02515e-16 -1.31989e-05 0
5.3865e-17 -1.31989e-05 0
1.39919e-16 -1.44098e-05 0
3.53263e-16 -1.44098e-05 0
1.60026e-16 -1.38021e-05 0
2.21756e-16 -1.38021e-05 0
3.53263e-16 -1.44098e-05 0
3.50898e-16 -1.44098e-05 0
2.21756e-16 -1.38021e-05 0
1.19777e-16 -1.38021e-05 0
1.60026e-16 -1.38021e-05 0
2.21756e-16 -1.38021e-05 0
5.3865e-17 -1.31989e-05 0
1.16577e-16 -1.31989e-05 0
2.21756e-16 -1.38021e-05 0
1.19777e-16 -1.38021e-05 0
1.16577e-16 -1.31989e-05 0
5.54589e-16 -1.31989e-05 0
0 -1.31989e-05 0
1.02515e-16 -1.31989e-05 0
0 -1.25999e-05 0
6.38358e-17 -1.25999e-05 0
1.02515e-16 -1.31989e-05 0
5.3865e-17 -1.31989e-05 0
6.38358e-17 -1.25999e-05 0
1.32859e-16 -1.25999e-05 0
0 -1.25999e-05 0
6.38358e-17 -1.25999e-05 0
0 -1.20045e-05 0
2.18387e-16 -1.20045e-05 0
6.38358e-17 -1.25999e-05 0
1.32859e-16 -1.25999e-05 0
2.18387e-16 -1.20045e-05 0
3.08892e-16 -1.20045e-05 0
5.3865e-17 -1.31989e-05 0
1.16577e-16 -1.31989e-05 0
1.32859e-16 -1.25999e-05 0
2.79561e-16 -1.25999e-05 0
1.16577e-16 -1.31989e-05 0
5.54589e-16 -1.31989e-05 0
2.79561e-16 -1.25999e-05 0
3.9012e-16 -1.25999e-05 0
1.32859e-16 -1.25999e-05 0
2.79561e-16 -1.25999e-05 0
3.08892e-16 -1.20045e-05 0
3.49201e-16 -1.20045e-05 0
2.79561e-16 -1.25999e-05 0
3.9012e-16 -1.25999e-05 0
3.49201e-16 -1.20045e-05 0
3.44088e-16 -1.20045e-05 0
3.50898e-16 -1.44098e-05 0
2.46549e-16 -1.44098e-05 0
1.19777e-16 -1.38021e-05 0
6.47218e-16 -1.38021e-05 0
2.46549e-16 -1.44098e-05 0
5.59815e-16 -1.44098e-05 0
6.47218e-16 -1.38021e-05 0
6.97008e-16 -1.38021e-05 0
1.19777e-16 -1.38021e-05 0
6.47218e-16 -1.38021e-05 0
5.54589e-16 -1.31989e-05 0
5.15334e-16 -1.31989e-05 0
6.47218e-16 -1.38021e-05 0
6.97008e-16 -1.38021e-05 0
5.15334e-16 -1.31989e-05 0
3.96146e-16 -1.31989e-05 0
5.59815e-16 -1.44098e-05 0
7.07203e-16 -1.44098e-05 0
6.97008e-16 -1.38021e-05 0
4.95759e-16 -1.38021e-05 0
7.07203e-16 -1.44098e-05 0
6.76453e-16 -1.44098e-05 0
4.95759e-16 -1.38021e-05 0
7.7234e-16 -1.38021e-05 0
6.97008e-16 -1.38021e-05 0
4.95759e-16 -1.38021e-05 0
3.96146e-16 -1.31989e-05 0
7.60749e-16 -1.31989e-05 0
4.95759e-16 -1.38021e-05 0
7.7234e-16 -1.38021e-05 0
7.60749e-16 -1.31989e-05 0
6.9593e-16 -1.31989e-05 0
5.54589e-16 -1.31989e-05 0
5.15334e-16 -1.31989e-05 0
3.9012e-16 -1.25999e-05 0
5.08946e-16 -1.25999e-05 0
5.15334e-16 -1.31989e-05 0
3.96146e-16 -1.31989e-05 0
5.08946e-16 -1.25999e-05 0
5.89125e-16 -1.25999e-05 0
3.9012e-16 -1.25999e-05 0
5.08946e-16 -1.25999e-05 0
3.44088e-16 -1.20045e-05 0
7.76661e-16 -1.20045e-05 0
5.08946e-16 -1.25999e-05 0
5.89125e-16 -1.25999e-05 0
7.76661e-16 -1.20045e-05 0
8.17544e-16 -1.20045e-05 0
3.96146e-16 -1.31989e-05 0
7.60749e-16 -1.31989e-05 0
5.89125e-16 -1.25999e-05 0
6.40619e-16 -1.25999e-05 0
7.60749e-16 -1.31989e-05 0
6.9593e-16 -1.31989e-05 0
6.40619e-16 -1.25999e-05 0
9.46527e-16 -1.25999e-05 0
5.89125e-16 -1.25999e-05 0
6.40619e-16 -1.25999e-05 0
8.17544e-16 -1.20045e-05 0
8.93137e-16 -1.20045e-05 0
6.40619e-16 -1.25999e-05 0
9.46527e-16 -1.25999e-05 0
8.93137e-16 -1.20045e-05 0
9.41238e-16 -1.20045e-05 0
0 -1.20045e-05 0
2.18387e-16 -1.20045e-05 0
0 -1.14118e-05 0
1.69229e-16 -1.14118e-05 0
2.18387e-16 -1.20045e-05 0
3.08892e-16 -1.20045e-05 0
1.69229e-16 -1.14118e-05 0
3.00365e-16 -1.14118e-05 0
0 -1.14118e-05 0
1.69229e-16 -1.14118e-05 0
0 -1.08204e-05 0
1.71847e-16 -1.08204e-05 0
1.69229e-16 -1.14118e-05 0
3.00365e-16 -1.14118e-05 0
1.71847e-16 -1.08204e-05 0
2.76033e-16 -1.08204e-05 0
3.08892e-16 -1.20045e-05 0
3.49201e-16 -1.20045e-05 0
3.00365e-16 -1.14118e-05 0
4.80119e-16 -1.14118e-05 0
3.49201e-16 -1.20045e-05 0
3.44088e-16 -1.20045e-05 0
4.80119e-16 -1.14118e-05 0
4.38578e-16 -1.14118e-05 0
3.00365e-16 -1.14118e-05 0
4.80119e-16 -1.14118e-05 0
2.76033e-16 -1.08204e-05 0
4.09531e-16 -1.08204e-05 0
4.80119e-16 -1.14118e-05 0
4.38578e-16 -1.14118e-05 0
4.09531e-16 -1.08204e-05 0
6.67212e-16 -1.08204e-05 0
0 -1.08204e-05 0
1.71847e-16 -1.08204e-05 0
0 -1.02288e-05 0
8.1416e-17 -1.02288e-05 0
1.71847e-16 -1.08204e-05 0
2.76033e-16 -1.08204e-05 0
8.1416e-17 -1.02288e-05 0
3.26e-16 -1.02288e-05 0
0 -1.02288e-05 0
8.1416e-17 -1.02288e-05 0
0 -9.63497e-06 0
2.10111e-16 -9.63497e-06 0
8.1416e-17 -1.02288e-05 0
3.26e-16 -1.02288e-05 0
2.10111e-16 -9.63497e-06 0
2.66309e-16 -9.63497e-06 0
2.76033e-16 -1.08204e-05 0
4.09531e-16 -1.08204e-05 0
3.26e-16 -1.02288e-05 0
4.57023e-16 -1.02288e-05 0
4.09531e-16 -1.08204e-05 0
6.67212e-16 -1.08204e-05 0
4.57023e-16 -1.02288e-05 0
5.32584e-16 -1.02288e-05 0
3.26e-16 -1.02288e-05 0
4.57023e-16 -1.02288e-05 0
2.66309e-16 -9.63497e-06 0
4.62769e-16 -9.63497e-06 0
4.57023e-16 -1.02288e-05 0
5.32584e-16 -1.02288e-05 0
4.62769e-16 -9.63497e-06 0
5.6497e-16 -9.63497e-06 0
3.44088e-16 -1.20045e-05 0
7.76661e-16 -1.20045e-05 0
4.38578e-16 -1.14118e-05 0
6.0946e-16 -1.14118e-05 0
7.76661e-16 -1.20045e-05 0
8.17544e-16 -1.20045e-05 0
6.0946e-16 -1.14118e-05 0
8.34419e-16 -1.14118e-05 0
4.38578e-16 -1.14118e-05 0
6.0946e-16 -1.14118e-05 0
6.67212e-16 -1.08204e-05 0
6.37815e-16 -1.08204e-05 0
6.0946e-16 -1.14118e-05 0
8.34419e-16 -1.14118e-05 0
6.37815e-16 -1.08204e-05 0
8.77011e-16 -1.08204e-05 0
8.17544e-16 -1.20045e-05 0
8.93137e-16 -1.20045e-05 0
8.34419e-16 -1.14118e-05 0
9.05021e-16 -1.14118e-05 0
8.93137e-16 -1.20045e-05 0
9.41238e-16 -1.20045e-05 0
9.05021e-16 -1.14118e-05 0
9.86833e-16 -1.14118e-05 0
8.34419e-16 -1.14118e-05 0
9.05021e-16 -1.14118e-05 0
8.77011e-16 -1.08204e-05 0
9.95208e-16 -1.08204e-05 0
9.05021e-16 -1.14118e-05 0
9.86833e-16 -1.14118e-05 0
9.95208e-16 -1.08204e-05 0
8.95915e-16 -1.08204e-05 0
6.67212e-16 -1.08204e-05 0
6.37815e-16 -1.08204e-05 0
5.32584e-16 -1.02288e-05 0
7.51153e-16 -1.02288e-05 0
6.37815e-16 -1.08204e-05 0
8.77011e-16 -1.08204e-05 0
7.51153e-16 -1.02288e-05 0
8.28121e-16 -1.02288e-05 0
5.32584e-16 -1.02288e-05 0
7.51153e-16 -1.02288e-05 0
5.6497e-16 -9.63497e-06 0
6.71715e-16 -9.63497e-06 0
7.51153e-16 -1.02288e-05 0
8.28121e-16 -1.02288e-05 0
6.71715e-16 -9.63497e-06 0
8.23399e-16 -9.63497e-06 0
8.77011e-16 -1.08204e-05 0
9.95208e-16 -1.08204e-05 0
8.28121e-16 -1.02288e-05 0
9.06172e-16 -1.02288e-05 0
9.95208e-16 -1.08204e-05 0
8.95915e-16 -1.08204e-05 0
9.06172e-16 -1.02288e-05 0
1.13437e-15 -1.02288e-05 0
8.28121e-16 -1.02288e-05 0
9.06172e-16 -1.02288e-05 0
8.23399e-16 -9.63497e-06 0
9.11527e-16 -9.63497e-06 0
9.06172e-16 -1.02288e-05 0
1.13437e-15 -1.02288e-05 0
9.11527e-16 -9.63497e-06 0
1.07109e-15 -9.63497e-06 0
6.76453e-16 -1.44098e-05 0
8.37988e-16 -1.44098e-05 0
7.7234e-16 -1.38021e-05 0
8.789e-16 -1.38021e-05 0
8.37988e-16 -1.44098e-05 0
9.32696e-16 -1.44098e-05 0
8.789e-16 -1.38021e-05 0
9.73935e-16 -1.38021e-05 0
7.7234e-16 -1.38021e-05 0
8.789e-16 -1.38021e-05 0