# vtk DataFile Version 3.0
#This file was generated by the deal.II library on 2018/10/24 at 17:43:00
ASCII
DATASET UNSTRUCTURED_GRID

POINTS 20480 double
0 0 0
0.19635 0 0
0 0.312483 0
0.19635 0.312483 0
0.19635 0 0
0.392699 0 0
0.19635 0.312483 0
0.392699 0.312483 0
0 0.312483 0
0.19635 0.312483 0
0 0.624984 0
0.19635 0.624984 0
0.19635 0.312483 0
0.392699 0.312483 0
0.19635 0.624984 0
0.392699 0.624984 0
0.392699 0 0
0.589049 0 0
0.392699 0.312483 0
0.589049 0.312483 0
0.589049 0 0
0.785398 0 0
0.589049 0.312483 0
0.785398 0.312483 0
0.392699 0.312483 0
0.589049 0.312483 0
0.392699 0.624984 0
0.589049 0.624984 0
0.589049 0.312483 0
0.785398 0.312483 0
0.589049 0.624984 0
0.785398 0.624984 0
0 0.624984 0
0.19635 0.624984 0
0 0.937484 0
0.19635 0.937484 0
0.19635 0.624984 0
0.392699 0.624984 0
0.19635 0.937484 0
0.392699 0.937484 0
0 0.937484 0
0.19635 0.937484 0
0 1.24998 0
0.19635 1.24998 0
0.19635 0.937484 0
0.392699 0.937484 0
0.19635 1.24998 0
0.392699 1.24998 0
0.392699 0.624984 0
0.589049 0.624984 0
0.392699 0.937484 0
0.589049 0.937484 0
0.589049 0.624984 0
0.785398 0.624984 0
0.589049 0.937484 0
0.785398 0.937484 0
0.392699 0.937484 0
0.589049 0.937484 0
0.392699 1.24998 0
0.589049 1.24998 0
0.589049 0.937484 0
0.785398 0.937484 0
0.589049 1.24998 0
0.785398 1.24998 0
0.785398 0 0
0.981748 0 0
0.785398 0.312483 0
0.981748 0.312483 0
0.981748 0 0
1.1781 0 0
0.981748 0.312483 0
1.1781 0.312483 0
0.785398 0.312483 0
0.981748 0.312483 0
0.785398 0.624984 0
0.981748 0.624984 0
0.981748 0.312483 0
1.1781 0.312483 0
0.981748 0.624984 0
1.1781 0.624984 0
1.1781 0 0
1.37445 0 0
1.1781 0.312483 0
1.37445 0.312483 0
1.37445 0 0
1.5708 0 0
1.37445 0.312483 0
1.5708 0.312483 0
1.1781 0.312483 0
1.37445 0.312483 0
1.1781 0.624984 0
1.37445 0.624984 0
1.37445 0.312483 0
1.5708 0.312483 0
1.37445 0.624984 0
1.5708 0.624984 0
0.785398 0.624984 0
0.981748 0.624984 0
0.785398 0.937484 0
0.981748 0.937484 0
0.981748 0.624984 0
1.1781 0.624984 0
0.981748 0.937484 0
1.1781 0.937484 0
0.785398 0.937484 0
0.981748 0.937484 0
0.785398 1.24998 0
0.981748 1.24998 0
0.981748 0.937484 0
1.1781 0.937484 0
0.981748 1.24998 0
1.1781 1.24998 0
1.1781 0.624984 0
1.37445 0.624984 0
1.1781 0.937484 0
1.37445 0.937484 0
1.37445 0.624984 0
1.5708 0.624984 0
1.37445 0.937484 0
1.5708 0.937484 0
1.1781 0.937484 0
1.37445 0.937484 0
1.1781 1.24998 0
1.37445 1.24998 0
1.37445 0.937484 0
1.5708 0.937484 0
1.37445 1.24998 0
1.5708 1.24998 0
0 1.24998 0
0.19635 1.24998 0
0 1.56248 0
0.19635 1.56248 0
0.19635 1.24998 0
0.392699 1.24998 0
0.19635 1.56248 0
0.392699 1.56248 0
0 1.56248 0
0.19635 1.56248 0
0 1.87499 0
0.19635 1.87499 0
0.19635 1.56248 0
0.392699 1.56248 0
0.19635 1.87499 0
0.392699 1.87499 0
0.392699 1.24998 0
0.589049 1.24998 0
0.392699 1.56248 0
0.589049 1.56248 0
0.589049 1.24998 0
0.785398 1.24998 0
0.589049 1.56248 0
0.785398 1.56248 0
0.392699 1.56248 0
0.589049 1.56248 0
0.392699 1.87499 0
0.589049 1.87499 0
0.589049 1.56248 0
0.785398 1.56248 0
0.589049 1.87499 0
0.785398 1.87499 0
0 1.87499 0
0.19635 1.87499 0
0 2.18749 0
0.19635 2.18749 0
0.19635 1.87499 0
0.392699 1.87499 0
0.19635 2.18749 0
0.392699 2.18749 0
0 2.18749 0
0.19635 2.18749 0
0 2.49999 0
0.19635 2.49999 0
0.19635 2.18749 0
0.392699 2.18749 0
0.19635 2.49999 0
0.392699 2.49999 0
0.392699 1.87499 0
0.589049 1.87499 0
0.392699 2.18749 0
0.589049 2.18749 0
0.589049 1.87499 0
0.785398 1.87499 0
0.589049 2.18749 0
0.785398 2.18749 0
0.392699 2.18749 0
0.589049 2.18749 0
0.392699 2.49999 0
0.589049 2.49999 0
0.589049 2.18749 0
0.785398 2.18749 0
0.589049 2.49999 0
0.785398 2.49999 0
0.785398 1.24998 0
0.981748 1.24998 0
0.785398 1.56248 0
0.981748 1.56248 0
0.981748 1.24998 0
1.1781 1.24998 0
0.981748 1.56248 0
1.1781 1.56248 0
0.785398 1.56248 0
0.981748 1.56248 0
0.785398 1.87499 0
0.981748 1.87499 0
0.981748 1.56248 0
1.1781 1.56248 0
0.981748 1.87499 0
1.1781 1.87499 0
1.1781 1.24998 0
1.37445 1.24998 0
1.1781 1.56248 0
1.37445 1.56248 0
1.37445 1.24998 0
1.5708 1.24998 0
1.37445 1.56248 0
1.5708 1.56248 0
1.1781 1.56248 0
1.37445 1.56248 0
1.1781 1.87499 0
1.37445 1.87499 0
1.37445 1.56248 0
1.5708 1.56248 0
1.37445 1.87499 0
1.5708 1.87499 0
0.785398 1.87499 0
0.981748 1.87499 0
0.785398 2.18749 0
0.981748 2.18749 0
0.981748 1.87499 0
1.1781 1.87499 0
0.981748 2.18749 0
1.1781 2.18749 0
0.785398 2.18749 0
0.981748 2.18749 0
0.785398 2.49999 0
0.981748 2.49999 0
0.981748 2.18749 0
1.1781 2.18749 0
0.981748 2.49999 0
1.1781 2.49999 0
1.1781 1.87499 0
1.37445 1.87499 0
1.1781 2.18749 0
1.37445 2.18749 0
1.37445 1.87499 0
1.5708 1.87499 0
1.37445 2.18749 0
1.5708 2.18749 0
1.1781 2.18749 0
1.37445 2.18749 0
1.1781 2.49999 0
1.37445 2.49999 0
1.37445 2.18749 0
1.5708 2.18749 0
1.37445 2.49999 0
1.5708 2.49999 0
1.5708 0 0
1.76715 0 0
1.5708 0.312483 0
1.76715 0.312483 0
1.76715 0 0
1.9635 0 0
1.76715 0.312483 0
1.9635 0.312483 0
1.5708 0.312483 0
1.76715 0.312483 0
1.5708 0.624984 0
1.76715 0.624984 0
1.76715 0.312483 0
1.9635 0.312483 0
1.76715 0.624984 0
1.9635 0.624984 0
1.9635 0 0
2.15984 0 0
1.9635 0.312483 0
2.15984 0.312483 0
2.15984 0 0
2.35619 0 0
2.15984 0.312483 0
2.35619 0.312483 0
1.9635 0.312483 0
2.15984 0.312483 0
1.9635 0.624984 0
2.15984 0.624984 0
2.15984 0.312483 0
2.35619 0.312483 0
2.15984 0.624984 0
2.35619 0.624984 0
1.5708 0.624984 0
1.76715 0.624984 0
1.5708 0.937484 0
1.76715 0.937484 0
1.76715 0.624984 0
1.9635 0.624984 0
1.76715 0.937484 0
1.9635 0.937484 0
1.5708 0.937484 0
1.76715 0.937484 0
1.5708 1.24998 0
1.76715 1.24998 0
1.76715 0.937484 0
1.9635 0.937484 0
1.76715 1.24998 0
1.9635 1.24998 0
1.9635 0.624984 0
2.15984 0.624984 0
1.9635 0.937484 0
2.15984 0.937484 0
2.15984 0.624984 0
2.35619 0.624984 0
2.15984 0.937484 0
2.35619 0.937484 0
1.9635 0.937484 0
2.15984 0.937484 0
1.9635 1.24998 0
2.15984 1.24998 0
2.15984 0.937484 0
2.35619 0.937484 0
2.15984 1.24998 0
2.35619 1.24998 0
2.35619 0 0
2.55254 0 0
2.35619 0.312483 0
2.55254 0.312483 0
2.55254 0 0
2.74889 0 0
2.55254 0.312483 0
2.74889 0.312483 0
2.35619 0.312483 0
2.55254 0.312483 0
2.35619 0.624984 0
2.55254 0.624984 0
2.55254 0.312483 0
2.74889 0.312483 0
2.55254 0.624984 0
2.74889 0.624984 0
2.74889 0 0
2.94524 0 0
2.74889 0.312483 0
2.94524 0.312483 0
2.94524 0 0
3.14159 0 0
2.94524 0.312483 0
3.14159 0.312483 0
2.74889 0.312483 0
2.94524 0.312483 0
2.74889 0.624984 0
2.94524 0.624984 0
2.94524 0.312483 0
3.14159 0.312483 0
2.94524 0.624984 0
3.14159 0.624984 0
2.35619 0.624984 0
2.55254 0.624984 0
2.35619 0.937484 0
2.55254 0.937484 0
2.55254 0.624984 0
2.74889 0.624984 0
2.55254 0.937484 0
2.74889 0.937484 0
2.35619 0.937484 0
2.55254 0.937484 0
2.35619 1.24998 0
2.55254 1.24998 0
2.55254 0.937484 0
2.74889 0.937484 0
2.55254 1.24998 0
2.74889 1.24998 0
2.74889 0.624984 0
2.94524 0.624984 0
2.74889 0.937484 0
2.94524 0.937484 0
2.94524 0.624984 0
3.14159 0.624984 0
2.94524 0.937484 0
3.14159 0.937484 0
2.74889 0.937484 0
2.94524 0.937484 0
2.74889 1.24998 0
2.94524 1.24998 0
2.94524 0.937484 0
3.14159 0.937484 0
2.94524 1.24998 0
3.14159 1.24998 0
1.5708 1.24998 0
1.76715 1.24998 0
1.5708 1.56248 0
1.76715 1.56248 0
1.76715 1.24998 0
1.9635 1.24998 0
1.76715 1.56248 0
1.9635 1.56248 0
1.5708 1.56248 0
1.76715 1.56248 0
1.5708 1.87499 0
1.76715 1.87499 0
1.76715 1.56248 0
1.9635 1.56248 0
1.76715 1.87499 0
1.9635 1.87499 0
1.9635 1.24998 0
2.15984 1.24998 0
1.9635 1.56248 0
2.15984 1.56248 0
2.15984 1.24998 0
2.35619 1.24998 0
2.15984 1.56248 0
2.35619 1.56248 0
1.9635 1.56248 0
2.15984 1.56248 0
1.9635 1.87499 0
2.15984 1.87499 0
2.15984 1.56248 0
2.35619 1.56248 0
2.15984 1.87499 0
2.35619 1.87499 0
1.5708 1.87499 0
1.76715 1.87499 0
1.5708 2.18749 0
1.76715 2.18749 0
1.76715 1.87499 0
1.9635 1.87499 0
1.76715 2.18749 0
1.9635 2.18749 0
1.5708 2.18749 0
1.76715 2.18749 0
1.5708 2.49999 0
1.76715 2.49999 0
1.76715 2.18749 0
1.9635 2.18749 0
1.76715 2.49999 0
1.9635 2.49999 0
1.9635 1.87499 0
2.15984 1.87499 0
1.9635 2.18749 0
2.15984 2.18749 0
2.15984 1.87499 0
2.35619 1.87499 0
2.15984 2.18749 0
2.35619 2.18749 0
1.9635 2.18749 0
2.15984 2.18749 0
1.9635 2.49999 0
2.15984 2.49999 0
2.15984 2.18749 0
2.35619 2.18749 0
2.15984 2.49999 0
2.35619 2.49999 0
2.35619 1.24998 0
2.55254 1.24998 0
2.35619 1.56248 0
2.55254 1.56248 0
2.55254 1.24998 0
2.74889 1.24998 0
2.55254 1.56248 0
2.74889 1.56248 0
2.35619 1.56248 0
2.55254 1.56248 0
2.35619 1.87499 0
2.55254 1.87499 0
2.55254 1.56248 0
2.74889 1.56248 0
2.55254 1.87499 0
2.74889 1.87499 0
2.74889 1.24998 0
2.94524 1.24998 0
2.74889 1.56248 0
2.94524 1.56248 0
2.94524 1.24998 0
3.14159 1.24998 0
2.94524 1.56248 0
3.14159 1.56248 0
2.74889 1.56248 0
2.94524 1.56248 0
2.74889 1.87499 0
2.94524 1.87499 0
2.94524 1.56248 0
3.14159 1.56248 0
2.94524 1.87499 0
3.14159 1.87499 0
2.35619 1.87499 0
2.55254 1.87499 0
2.35619 2.18749 0
2.55254 2.18749 0
2.55254 1.87499 0
2.74889 1.87499 0
2.55254 2.18749 0
2.74889 2.18749 0
2.35619 2.18749 0
2.55254 2.18749 0
2.35619 2.49999 0
2.55254 2.49999 0
2.55254 2.18749 0
2.74889 2.18749 0
2.55254 2.49999 0
2.74889 2.49999 0
2.74889 1.87499 0
2.94524 1.87499 0
2.74889 2.18749 0
2.94524 2.18749 0
2.94524 1.87499 0
3.14159 1.87499 0
2.94524 2.18749 0
3.14159 2.18749 0
2.74889 2.18749 0
2.94524 2.18749 0
2.74889 2.49999 0
2.94524 2.49999 0
2.94524 2.18749 0
3.14159 2.18749 0
2.94524 2.49999 0
3.14159 2.49999 0
0 2.49999 0
0.19635 2.49999 0
0 2.81249 0
0.19635 2.81249 0
0.19635 2.49999 0
0.392699 2.49999 0
0.19635 2.81249 0
0.392699 2.81249 0
0 2.81249 0
0.19635 2.81249 0
0 3.12499 0
0.19635 3.12499 0
0.19635 2.81249 0
0.392699 2.81249 0
0.19635 3.12499 0
0.392699 3.12499 0
0.392699 2.49999 0
0.589049 2.49999 0
0.392699 2.81249 0
0.589049 2.81249 0
0.589049 2.49999 0
0.785398 2.49999 0
0.589049 2.81249 0
0.785398 2.81249 0
0.392699 2.81249 0
0.589049 2.81249 0
0.392699 3.12499 0
0.589049 3.12499 0
0.589049 2.81249 0
0.785398 2.81249 0
0.589049 3.12499 0
0.785398 3.12499 0
0 3.12499 0
0.19635 3.12499 0
0 3.43749 0
0.19635 3.43749 0
0.19635 3.12499 0
0.392699 3.12499 0
0.19635 3.43749 0
[...]
POINT_DATA 20480
VECTORS uf double
0 1 0
-4.54249e-15 1 0
0 1.00001 0
5.56013e-15 1.00001 0
-4.54249e-15 1 0
-4.69872e-15 1 0
5.56013e-15 1.00001 0
1.17461e-14 1.00001 0
0 1.00001 0
1.28511e-14 1.00001 0
0 1 0
-1.85307e-14 1 0
1.28511e-14 1.00001 0
-1.28394e-14 1.00001 0
-1.85307e-14 1 0
1.13444e-14 1 0
-4.69872e-15 1 0
-3.453e-14 1 0
1.17461e-14 1.00001 0
5.10161e-14 1.00001 0
-3.453e-14 1 0
-5.16499e-14 1 0
5.10161e-14 1.00001 0
6.87073e-14 1.00001 0
-1.28394e-14 1.00001 0
-4.95837e-14 1.00001 0
1.13444e-14 1 0
4.81585e-14 1 0
-4.95837e-14 1.00001 0
-4.40217e-14 1.00001 0
4.81585e-14 1 0
4.88091e-14 1 0
0 1 0
6.45309e-15 1 0
0 1 0
-6.07252e-15 1 0
6.45309e-15 1 0
-1.38899e-14 1 0
-6.07252e-15 1 0
1.06316e-14 1 0
0 1 0
1.07198e-14 1 0
0 1 0
-1.1773e-14 1 0
1.07198e-14 1 0
-6.8993e-15 1 0
-1.1773e-14 1 0
3.28185e-15 1 0
-1.38899e-14 1 0
-3.39358e-14 1 0
1.06316e-14 1 0
2.89002e-14 1 0
-3.39358e-14 1 0
-4.9425e-14 1 0
2.89002e-14 1 0
4.07965e-14 1 0
-6.8993e-15 1 0
-5.19955e-14 1 0
3.28185e-15 1 0
7.15793e-14 1 0
-5.19955e-14 1 0
-6.61066e-14 1 0
7.15793e-14 1 0
8.22862e-14 1 0
-5.16499e-14 1 0
-2.10764e-14 1 0
6.87073e-14 1.00001 0
1.6876e-14 1.00001 0
-2.10764e-14 1 0
-3.02363e-14 1 0
1.6876e-14 1.00001 0
4.201e-14 1.00001 0
-4.40217e-14 1.00001 0
-5.34035e-15 1.00001 0
4.88091e-14 1 0
1.52237e-14 1 0
-5.34035e-15 1.00001 0
-5.42331e-14 1.00001 0
1.52237e-14 1 0
6.68775e-14 1 0
-3.02363e-14 1 0
-5.33678e-14 1 0
4.201e-14 1.00001 0
7.18716e-14 1.00001 0
-5.33678e-14 1 0
-4.13485e-14 1 0
7.18716e-14 1.00001 0
5.58116e-14 1.00001 0
-5.42331e-14 1.00001 0
-5.09488e-14 1.00001 0
6.68775e-14 1 0
5.15444e-14 1 0
-5.09488e-14 1.00001 0
-3.08107e-14 1.00001 0
5.15444e-14 1 0
3.17107e-14 1 0
-4.9425e-14 1 0
-1.79935e-14 1 0
4.07965e-14 1 0
1.58506e-14 1 0
-1.79935e-14 1 0
-6.49813e-14 1 0
1.58506e-14 1 0
5.7382e-14 1 0
-6.61066e-14 1 0
-3.67219e-14 1 0
8.22862e-14 1 0
5.44422e-14 1 0
-3.67219e-14 1 0
-6.27271e-14 1 0
5.44422e-14 1 0
7.12345e-14 1 0
-6.49813e-14 1 0
-5.7526e-14 1 0
5.7382e-14 1 0
4.95252e-14 1 0
-5.7526e-14 1 0
-6.31842e-14 1 0
4.95252e-14 1 0
6.80528e-14 1 0
-6.27271e-14 1 0
-4.75606e-14 1 0
7.12345e-14 1 0
6.03608e-14 1 0
-4.75606e-14 1 0
-6.31522e-14 1 0
6.03608e-14 1 0
7.18203e-14 1 0
0 1 0
1.06411e-14 1 0
0 1 0
-1.48506e-14 1 0
1.06411e-14 1 0
-5.18324e-15 1 0
-1.48506e-14 1 0
8.4637e-15 1 0
0 1 0
1.94744e-14 1 0
0 1 0
-1.66582e-14 1 0
1.94744e-14 1 0
-1.69681e-14 1 0
-1.66582e-14 1 0
1.94471e-14 1 0
-5.18324e-15 1 0
-9.43435e-14 1 0
8.4637e-15 1 0
8.7379e-14 1 0
-9.43435e-14 1 0
-9.35005e-14 1 0
8.7379e-14 1 0
8.52773e-14 1 0
-1.69681e-14 1 0
-6.71596e-14 1 0
1.94471e-14 1 0
6.43917e-14 1 0
-6.71596e-14 1 0
-7.33887e-14 1 0
6.43917e-14 1 0
7.15493e-14 1 0
0 1 0
5.18066e-15 1 0
0 1 0
-2.86101e-15 1 0
5.18066e-15 1 0
-7.65867e-15 1 0
-2.86101e-15 1 0
5.01018e-15 1 0
0 1 0
1.55631e-14 1 0
0 1 0
-1.74385e-14 1 0
1.55631e-14 1 0
-1.57234e-14 1 0
-1.74385e-14 1 0
1.71066e-14 1 0
-7.65867e-15 1 0
-6.2139e-14 1 0
5.01018e-15 1 0
5.72625e-14 1 0
-6.2139e-14 1 0
-6.73856e-14 1 0
5.72625e-14 1 0
6.80975e-14 1 0
-1.57234e-14 1 0
-4.20003e-14 1 0
1.71066e-14 1 0
3.96204e-14 1 0
-4.20003e-14 1 0
-5.20521e-14 1 0
3.96204e-14 1 0
4.56996e-14 1 0
-9.35005e-14 1 0
-6.35303e-14 1 0
8.52773e-14 1 0
5.89444e-14 1 0
-6.35303e-14 1 0
-6.86246e-14 1 0
5.89444e-14 1 0
6.06495e-14 1 0
-7.33887e-14 1 0
-5.75842e-14 1 0
7.15493e-14 1 0
5.5889e-14 1 0
-5.75842e-14 1 0
-5.74688e-14 1 0
5.5889e-14 1 0
5.48054e-14 1 0
-6.86246e-14 1 0
-6.6234e-14 1 0
6.06495e-14 1 0
7.12821e-14 1 0
-6.6234e-14 1 0
-6.70575e-14 1 0
7.12821e-14 1 0
6.19593e-14 1 0
-5.74688e-14 1 0
-6.54862e-14 1 0
5.48054e-14 1 0
5.42299e-14 1 0
-6.54862e-14 1 0
-5.87171e-14 1 0
5.42299e-14 1 0
5.75728e-14 1 0
-6.73856e-14 1 0
-3.7344e-14 1 0
6.80975e-14 1 0
3.55063e-14 1 0
-3.7344e-14 1 0
-4.23246e-14 1 0
3.55063e-14 1 0
4.55208e-14 1 0
-5.20521e-14 1 0
-4.76681e-14 1 0
4.56996e-14 1 0
5.17085e-14 1 0
-4.76681e-14 1 0
-4.71556e-14 1 0
5.17085e-14 1 0
4.91554e-14 1 0
-4.23246e-14 1 0
-4.3983e-14 1 0
4.55208e-14 1 0
4.59531e-14 1 0
-4.3983e-14 1 0
-4.42679e-14 1 0
4.59531e-14 1 0
4.43996e-14 1 0
-4.71556e-14 1 0
-4.25381e-14 1 0
4.91554e-14 1 0
4.3109e-14 1 0
-4.25381e-14 1 0
-4.99467e-14 1 0
4.3109e-14 1 0
5.45425e-14 1 0
-4.13485e-14 1 0
-5.9494e-14 1 0
5.58116e-14 1.00001 0
8.52449e-14 1.00001 0
-5.9494e-14 1 0
-5.30001e-14 1 0
8.52449e-14 1.00001 0
7.20362e-14 1.00001 0
-3.08107e-14 1.00001 0
-7.38661e-14 1.00001 0
3.17107e-14 1 0
7.30149e-14 1 0
-7.38661e-14 1.00001 0
-5.99502e-14 1.00001 0
7.30149e-14 1 0
6.35145e-14 1 0
-5.30001e-14 1 0
-5.5517e-14 1 0
7.20362e-14 1.00001 0
7.66902e-14 1.00001 0
-5.5517e-14 1 0
-4.02585e-14 1 0
7.66902e-14 1.00001 0
5.78407e-14 1.00001 0
-5.99502e-14 1.00001 0
-6.58688e-14 1.00001 0
6.35145e-14 1 0
6.39002e-14 1 0
-6.58688e-14 1.00001 0
-6.80663e-14 1.00001 0
6.39002e-14 1 0
7.54945e-14 1 0
-6.31842e-14 1 0
-7.49705e-14 1 0
6.80528e-14 1 0
6.68855e-14 1 0
-7.49705e-14 1 0
-6.34244e-14 1 0
6.68855e-14 1 0
6.0543e-14 1 0
-6.31522e-14 1 0
-5.7215e-14 1 0
7.18203e-14 1 0
7.0884e-14 1 0
-5.7215e-14 1 0
-6.06881e-14 1 0
7.0884e-14 1 0
6.61841e-14 1 0
-6.34244e-14 1 0
-7.64655e-14 1 0
6.0543e-14 1 0
7.79551e-14 1 0
-7.64655e-14 1 0
-8.30512e-14 1 0
7.79551e-14 1 0
7.68221e-14 1 0
-6.06881e-14 1 0
-6.48077e-14 1 0
6.61841e-14 1 0
6.76877e-14 1 0
-6.48077e-14 1 0
-5.58106e-14 1 0
6.76877e-14 1 0
6.90639e-14 1 0
-4.02585e-14 1 0
-5.26389e-14 1 0
5.78407e-14 1.00001 0
7.21147e-14 1.00001 0
-5.26389e-14 1 0
-5.52638e-14 1 0
7.21147e-14 1.00001 0
7.67624e-14 1.00001 0
-6.80663e-14 1.00001 0
-6.91081e-14 1.00001 0
7.54945e-14 1 0
7.74894e-14 1 0
-6.91081e-14 1.00001 0
-6.75258e-14 1.00001 0
7.74894e-14 1 0
5.98874e-14 1 0
-5.52638e-14 1 0
-6.33007e-14 1 0
7.67624e-14 1.00001 0
8.74152e-14 1.00001 0
-6.33007e-14 1 0
-3.18787e-14 1 0
8.74152e-14 1.00001 0
4.59004e-14 1.00001 0
-6.75258e-14 1.00001 0
-6.18166e-14 1.00001 0
5.98874e-14 1 0
4.90706e-14 1 0
-6.18166e-14 1.00001 0
-3.65699e-14 1.00001 0
4.90706e-14 1 0
3.67257e-14 1 0
-8.30512e-14 1 0
-8.46829e-14 1 0
7.68221e-14 1 0
8.23108e-14 1 0
-8.46829e-14 1 0
-6.71587e-14 1 0
8.23108e-14 1 0
7.50025e-14 1 0
-5.58106e-14 1 0
-5.97051e-14 1 0
6.90639e-14 1 0
5.9522e-14 1 0
-5.97051e-14 1 0
-5.42054e-14 1 0
5.9522e-14 1 0
5.36808e-14 1 0
-6.71587e-14 1 0
-6.12407e-14 1 0
7.50025e-14 1 0
6.74385e-14 1 0
-6.12407e-14 1 0
-5.9121e-14 1 0
6.74385e-14 1 0
6.41334e-14 1 0
-5.42054e-14 1 0
-5.19738e-14 1 0
5.36808e-14 1 0
5.71579e-14 1 0
-5.19738e-14 1 0
-5.78343e-14 1 0
5.71579e-14 1 0
7.11911e-14 1 0
-6.70575e-14 1 0
-6.22524e-14 1 0
6.19593e-14 1 0
5.47344e-14 1 0
-6.22524e-14 1 0
-5.89051e-14 1 0
5.47344e-14 1 0
6.19364e-14 1 0
-5.87171e-14 1 0
-6.0769e-14 1 0
5.75728e-14 1 0
6.85205e-14 1 0
-6.0769e-14 1 0
-6.29963e-14 1 0
6.85205e-14 1 0
6.0482e-14 1 0
-5.89051e-14 1 0
-5.79813e-14 1 0
6.19364e-14 1 0
6.786e-14 1 0
-5.79813e-14 1 0
-5.73092e-14 1 0
6.786e-14 1 0
5.07423e-14 1 0
-6.29963e-14 1 0
-7.10999e-14 1 0
6.0482e-14 1 0
6.75054e-14 1 0
-7.10999e-14 1 0
-5.45389e-14 1 0
6.75054e-14 1 0
6.52371e-14 1 0
-4.42679e-14 1 0
-4.73832e-14 1 0
4.43996e-14 1 0
4.21672e-14 1 0
-4.73832e-14 1 0
-4.07761e-14 1 0
4.21672e-14 1 0
4.83767e-14 1 0
-4.99467e-14 1 0
-4.64887e-14 1 0
5.45425e-14 1 0
4.47139e-14 1 0
-4.64887e-14 1 0
-5.41239e-14 1 0
4.47139e-14 1 0
5.76754e-14 1 0
-4.07761e-14 1 0
-4.5098e-14 1 0
4.83767e-14 1 0
4.56207e-14 1 0
-4.5098e-14 1 0
-5.12153e-14 1 0
4.56207e-14 1 0
5.07594e-14 1 0
-5.41239e-14 1 0
-4.48772e-14 1 0
5.76754e-14 1 0
4.72324e-14 1 0
-4.48772e-14 1 0
-4.03929e-14 1 0
4.72324e-14 1 0
3.82296e-14 1 0
-5.73092e-14 1 0
-3.96479e-14 1 0
5.07423e-14 1 0
4.13973e-14 1 0
-3.96479e-14 1 0
-4.2749e-14 1 0
4.13973e-14 1 0
6.24716e-14 1 0
-5.45389e-14 1 0
-5.67185e-14 1 0
6.52371e-14 1 0
6.51783e-14 1 0
-5.67185e-14 1 0
-6.98708e-14 1 0
6.51783e-14 1 0
5.92301e-14 1 0
-4.2749e-14 1 0
-1.65576e-14 1 0
6.24716e-14 1 0
2.02709e-14 1 0
-1.65576e-14 1 0
-4.4448e-14 1 0
2.02709e-14 1 0
5.01432e-14 1 0
-6.98708e-14 1 0
-4.82922e-14 1 0
5.92301e-14 1 0
5.59665e-14 1 0
-4.82922e-14 1 0
-6.21576e-14 1 0
5.59665e-14 1 0
5.62318e-14 1 0
-5.12153e-14 1 0
-5.36258e-14 1 0
5.07594e-14 1 0
5.95534e-14 1 0
-5.36258e-14 1 0
-4.26884e-14 1 0
5.95534e-14 1 0
5.00861e-14 1 0
-4.03929e-14 1 0
-6.24041e-14 1 0
3.82296e-14 1 0
6.10237e-14 1 0
-6.24041e-14 1 0
-4.422e-14 1 0
6.10237e-14 1 0
4.91744e-14 1 0
-4.26884e-14 1 0
-4.72979e-14 1 0
5.00861e-14 1 0
4.42665e-14 1 0
-4.72979e-14 1 0
-3.64744e-14 1 0
4.42665e-14 1 0
4.02196e-14 1 0
-4.422e-14 1 0
-6.1635e-15 1 0
4.91744e-14 1 0
2.31687e-16 1 0
-6.1635e-15 1 0
-2.3138e-14 1 0
2.31687e-16 1 0
2.28557e-14 1 0
0 1 0
1.93833e-14 1 0
0 1 0
-1.47303e-14 1 0
1.93833e-14 1 0
-1.49979e-14 1 0
-1.47303e-14 1 0
2.36318e-14 1 0
0 1 0
1.05538e-14 1 0
0 1 0
-1.14844e-14 1 0
1.05538e-14 1 0
-1.85466e-14 1 0
-1.14844e-14 1 0
1.37727e-14 1 0
-1.49979e-14 1 0
-3.68279e-14 1 0
2.36318e-14 1 0
3.80583e-14 1 0
-3.68279e-14 1 0
-3.47022e-14 1 0
3.80583e-14 1 0
4.29942e-14 1 0
-1.85466e-14 1 0
-3.83006e-14 1 0
1.37727e-14 1 0
4.41852e-14 1 0
-3.83006e-14 1 0
-4.82985e-14 1 0
4.41852e-14 1 0
5.3729e-14 1 0
0 1 0
7.0999e-15 1 0
0 1 0
-8.02484e-15 1 0
7.0999e-15 1 0
-1.00718e-14 1 0
-8.02484e-15 1 0
8.9106e-15 1 0
0 1 0
1.23277e-14 1 0
0 1 0
-1.0465e-14 1 0
1.23277e-14 1 0
-1.65493e-14 1 0
-1.0465e-14 1 0
1.28884e-14 1 0
-1.00718e-14 1 0
-5.15273e-14 1 0
8.9106e-15 1 0
5.54121e-14 1 0
-5.15273e-14 1 0
-6.30299e-14 1 0
5.54121e-14 1 0
5.87393e-14 1 0
-1.65493e-14 1 0
-5.65439e-14 1 0
1.28884e-14 1 0
5.06687e-14 1 0
-5.65439e-14 1 0
-5.64151e-14 1 0
5.06687e-14 1 0
5.63531e-14 1 0
-3.47022e-14 1 0
-3.58158e-14 1 0
4.29942e-14 1 0
3.94905e-14 1 0
-3.58158e-14 1 0
-4.50795e-14 1 0
3.94905e-14 1 0
5.50286e-14 1 0
-4.82985e-14 1 0
-4.16005e-14 1 0
5.3729e-14 1 0
4.77534e-14 1 0
-4.16005e-14 1 0
-5.167e-14 1 0
4.77534e-14 1 0
5.00014e-14 1 0
-4.50795e-14 1 0
-2.82262e-14 1 0
5.50286e-14 1 0
2.833e-14 1 0
-2.82262e-14 1 0
-4.61661e-14 1 0
2.833e-14 1 0
5.30821e-14 1 0
-5.167e-14 1 0
-3.38902e-14 1 0
5.00014e-14 1 0
4.05256e-14 1 0
-3.38902e-14 1 0
-5.21868e-14 1 0
4.05256e-14 1 0
5.62911e-14 1 0
-6.30299e-14 1 0
-5.55832e-14 1 0
5.87393e-14 1 0
5.34564e-14 1 0
-5.55832e-14 1 0
-4.27054e-14 1 0
5.34564e-14 1 0
4.23831e-14 1 0
-5.64151e-14 1 0
-6.04712e-14 1 0
5.63531e-14 1 0
7.01246e-14 1 0
-6.04712e-14 1 0
-5.47974e-14 1 0
7.01246e-14 1 0
6.14464e-14 1 0
-4.27054e-14 1 0
-3.19671e-14 1 0
4.23831e-14 1 0
4.1859e-14 1 0
-3.19671e-14 1 0
-4.57527e-14 1 0
4.1859e-14 1 0
4.58486e-14 1 0
-5.47974e-14 1 0
-5.7524e-14 1 0
6.14464e-14 1 0
5.51073e-14 1 0
-5.7524e-14 1 0
-6.03494e-14 1 0
5.51073e-14 1 0
6.34982e-14 1 0
0 1 0
9.49324e-15 1 0
0 1 0
-8.07693e-15 1 0
9.49324e-15 1 0
1.92974e-16 1 0
-8.07693e-15 1 0
1.2619e-15 1 0
0 1 0
1.05496e-14 1 0
0 1 0
-1.41589e-14 1 0
1.05496e-14 1 0
-2.55129e-15 1 0
-1.41589e-14 1 0
9.32552e-15 1 0
1.92974e-16 1 0
-3.57811e-14 1 0
1.2619e-15 1 0
4.06889e-14 1 0
-3.57811e-14 1 0
-3.76351e-14 1 0
4.06889e-14 1 0
3.17082e-14 1 0
-2.55129e-15 1 0
-4.00067e-14 1 0
9.32552e-15 1 0
3.77944e-14 1 0
-4.00067e-14 1 0
-3.76114e-14 1 0
3.77944e-14 1 0
4.67049e-14 1 0
0 1 0
8.55821e-15 1 0
0 1 0
-7.35288e-15 1 0
8.55821e-15 1 0
-1.28068e-14 1 0
-7.35288e-15 1 0
6.16192e-15 1 0
0 1 0
6.90673e-15 1 0
0 1 0
-4.40637e-15 1 0
6.90673e-15 1 0
5.97781e-15 1 0
-4.40637e-15 1 0
-5.58571e-15 1 0
-1.28068e-14 1 0
-3.21652e-14 1 0
6.16192e-15 1 0
3.14356e-14 1 0
-3.21652e-14 1 0
-4.04843e-14 1 0
3.14356e-14 1 0
4.11806e-14 1 0
5.97781e-15 1 0
-2.93249e-14 1 0
-5.58571e-15 1 0
2.8218e-14 1 0
-2.93249e-14 1 0
-4.43701e-14 1 0
2.8218e-14 1 0
4.3522e-14 1 0
-3.76351e-14 1 0
-7.02581e-14 1 0
3.17082e-14 1 0
6.59622e-14 1 0
-7.02581e-14 1 0
-6.88783e-14 1 0
6.59622e-14 1 0
6.32206e-14 1 0
-3.76114e-14 1 0
-5.11373e-14 1 0
4.67049e-14 1 0
4.97613e-14 1 0
-5.11373e-14 1 0
-4.71286e-14 1 0
4.97613e-14 1 0
5.43561e-14 1 0
-6.88783e-14 1 0
-6.02034e-14 1 0
6.32206e-14 1 0
6.41333e-14 1 0
-6.02034e-14 1 0
-7.18225e-14 1 0
6.41333e-14 1 0
6.4413e-14 1 0
-4.71286e-14 1 0
-4.95198e-14 1 0
5.43561e-14 1 0
4.55143e-14 1 0
-4.95198e-14 1 0
-4.16097e-14 1 0
4.55143e-14 1 0
3.83312e-14 1 0
-4.04843e-14 1 0
-3.77256e-14 1 0
4.11806e-14 1 0
4.30524e-14 1 0
-3.77256e-14 1 0
-3.96922e-14 1 0
4.30524e-14 1 0
3.50905e-14 1 0
-4.43701e-14 1 0
-5.70394e-14 1 0
4.3522e-14 1 0
4.88673e-14 1 0
-5.70394e-14 1 0
-5.19684e-14 1 0
4.88673e-14 1 0
5.34852e-14 1 0
-3.96922e-14 1 0
-2.80482e-14 1 0
3.50905e-14 1 0
2.32385e-14 1 0
-2.80482e-14 1 0
-2.61075e-14 1 0
2.32385e-14 1 0
3.15304e-14 1 0
-5.19684e-14 1 0
-3.74938e-14 1 0
5.34852e-14 1 0
4.29602e-14 1 0
-3.74938e-14 1 0
-4.87945e-14 1 0
4.29602e-14 1 0
5.64766e-14 1 0
-4.61661e-14 1 0
-3.9108e-14 1 0
5.30821e-14 1 0
5.07422e-14 1 0
-3.9108e-14 1 0
-4.44946e-14 1 0
5.07422e-14 1 0
4.33587e-14 1 0
-5.21868e-14 1 0
-4.87469e-14 1 0
5.62911e-14 1 0
5.16419e-14 1 0
-4.87469e-14 1 0
-4.496e-14 1 0
5.16419e-14 1 0
5.43152e-14 1 0
-4.44946e-14 1 0
-3.50672e-14 1 0
4.33587e-14 1 0
3.83867e-14 1 0
-3.50672e-14 1 0
-2.85291e-14 1 0
3.83867e-14 1 0
3.76042e-14 1 0
-4.496e-14 1 0
-3.86772e-14 1 0
5.43152e-14 1 0
3.99943e-14 1 0
-3.86772e-14 1 0
-5.11788e-14 1 0
3.99943e-14 1 0
5.60413e-14 1 0
-4.57527e-14 1 0
-4.03936e-14 1 0
4.58486e-14 1 0
4.31711e-14 1 0
-4.03936e-14 1 0
-4.74797e-14 1 0
4.31711e-14 1 0
4.26704e-14 1 0
-6.03494e-14 1 0
-5.53178e-14 1 0
6.34982e-14 1 0
5.56825e-14 1 0
-5.53178e-14 1 0
-5.4408e-14 1 0
5.56825e-14 1 0
6.29373e-14 1 0
-4.74797e-14 1 0
-2.91989e-14 1 0
4.26704e-14 1 0
3.37432e-14 1 0
-2.91989e-14 1 0
-4.19592e-14 1 0
3.37432e-14 1 0
4.59112e-14 1 0
-5.4408e-14 1 0
-5.07367e-14 1 0
6.29373e-14 1 0
5.9429e-14 1 0
-5.07367e-14 1 0
-5.68983e-14 1 0
5.9429e-14 1 0
5.86165e-14 1 0
-2.85291e-14 1 0
-3.14677e-14 1 0
3.76042e-14 1 0
2.86424e-14 1 0
-3.14677e-14 1 0
-3.31766e-14 1 0
2.86424e-14 1 0
3.46922e-14 1 0
-5.11788e-14 1 0
-3.70814e-14 1 0
5.60413e-14 1 0
4.57137e-14 1 0
-3.70814e-14 1 0
-4.46689e-14 1 0
4.57137e-14 1 0
5.11923e-14 1 0
-3.31766e-14 1 0
4.29781e-15 1 0
3.46922e-14 1 0
9.23684e-15 1 0
4.29781e-15 1 0
-2.66913e-14 1 0
9.23684e-15 1 0
4.29086e-14 1 0
-4.46689e-14 1 0
-1.89222e-14 1 0
5.11923e-14 1 0
3.53369e-14 1 0
-1.89222e-14 1 0
-4.61608e-14 1 0
3.53369e-14 1 0
4.83214e-14 1 0
-4.19592e-14 1 0
-3.46796e-14 1 0
4.59112e-14 1 0
3.76955e-14 1 0
-3.46796e-14 1 0
-3.22224e-14 1 0
3.76955e-14 1 0
3.52209e-14 1 0
-5.68983e-14 1 0
-3.81485e-14 1 0
5.86165e-14 1 0
3.80369e-14 1 0
-3.81485e-14 1 0
-4.2567e-14 1 0
3.80369e-14 1 0
4.2957e-14 1 0
-3.22224e-14 1 0
-4.43681e-14 1 0
3.52209e-14 1 0
4.26287e-14 1 0
-4.43681e-14 1 0
-4.15291e-14 1 0
4.26287e-14 1 0
4.84537e-14 1 0
-4.2567e-14 1 0
-2.18621e-14 1 0
4.2957e-14 1 0
2.07995e-14 1 0
-2.18621e-14 1 0
-4.17518e-14 1 0
2.07995e-14 1 0
4.31898e-14 1 0
-7.18225e-14 1 0
-6.26601e-14 1 0
6.4413e-14 1 0
6.06822e-14 1 0
-6.26601e-14 1 0
-6.46325e-14 1 0
6.06822e-14 1 0
5.82955e-14 1 0
-4.16097e-14 1 0
-4.87611e-14 1 0
3.83312e-14 1 0
5.60255e-14 1 0
-4.87611e-14 1 0
-4.0158e-14 1 0
5.60255e-14 1 0
4.26983e-14 1 0
-6.46325e-14 1 0
-6.60932e-14 1 0
5.82955e-14 1 0
6.3076e-14 1 0
-6.60932e-14 1 0
-6.36058e-14 1 0
6.3076e-14 1 0
7.04841e-14 1 0
-4.0158e-14 1 0
-4.57079e-14 1 0
4.26983e-14 1 0
4.34797e-14 1 0
-4.57079e-14 1 0
-5.54614e-14 1 0
4.34797e-14 1 0
5.41965e-14 1 0
-2.61075e-14 1 0
-3.94372e-14 1 0
3.15304e-14 1 0
3.61269e-14 1 0
-3.94372e-14 1 0
-3.06283e-14 1 0
3.61269e-14 1 0
2.88267e-14 1 0
-4.87945e-14 1 0
-5.09705e-14 1 0
5.64766e-14 1 0
5.57657e-14 1 0
-5.09705e-14 1 0
-3.85738e-14 1 0
5.57657e-14 1 0
4.97696e-14 1 0
-3.06283e-14 1 0
-2.74367e-14 1 0
2.88267e-14 1 0
3.66987e-14 1 0
-2.74367e-14 1 0
-2.86247e-14 1 0
3.66987e-14 1 0
2.60227e-14 1 0
-3.85738e-14 1 0
-4.42312e-14 1 0
4.97696e-14 1 0
4.70326e-14 1 0
-4.42312e-14 1 0
-4.04409e-14 1 0
4.70326e-14 1 0
4.50912e-14 1 0
-6.36058e-14 1 0
-2.28513e-14 1 0
7.04841e-14 1 0
2.41014e-14 1 0
-2.28513e-14 1 0
-4.58288e-14 1 0
2.41014e-14 1 0
5.76331e-14 1 0
-5.54614e-14 1 0
-2.84817e-14 1 0
5.41965e-14 1 0
3.91613e-14 1 0
-2.84817e-14 1 0
-5.2266e-14 1 0
3.91613e-14 1 0
5.71089e-14 1 0
-4.58288e-14 1 0
-1.10986e-14 1 0
5.76331e-14 1 0
1.98804e-14 1 0
-1.10986e-14 1 0
-4.68841e-14 1 0
1.98804e-14 1 0
5.37948e-14 1 0
-5.2266e-14 1 0
-3.58552e-14 1 0
5.71089e-14 1 0
3.95476e-14 1 0
-3.58552e-14 1 0
-4.56072e-14 1 0
3.95476e-14 1 0
4.17889e-14 1 0
-2.86247e-14 1 0
-2.83557e-14 1 0
2.60227e-14 1 0
2.45942e-14 1 0
-2.83557e-14 1 0
-3.32492e-14 1 0
2.45942e-14 1 0
2.41102e-14 1 0
-4.04409e-14 1 0
-2.78603e-14 1 0
4.50912e-14 1 0
3.21443e-14 1 0
-2.78603e-14 1 0
-3.09157e-14 1 0
3.21443e-14 1 0
3.47752e-14 1 0
-3.32492e-14 1 0
-2.98884e-14 1 0
2.41102e-14 1 0
2.70801e-14 1 0
-2.98884e-14 1 0
-2.93778e-14 1 0
2.70801e-14 1 0
2.70511e-14 1 0
-3.09157e-14 1 0
-1.51289e-14 1 0
3.47752e-14 1 0
1.67492e-14 1 0
-1.51289e-14 1 0
-2.75862e-14 1 0
1.67492e-14 1 0
2.96499e-14 1 0
-3.18787e-14 1 0
-1.18895e-14 1 0
4.59004e-14 1.00001 0
1.03641e-14 1.00001 0
-1.18895e-14 1 0
-5.42496e-14 1 0
1.03641e-14 1.00001 0
7.58866e-14 1.00001 0
-3.65699e-14 1.00001 0
-1.3281e-14 1.00001 0
3.67257e-14 1 0
1.92682e-14 1 0
-1.3281e-14 1.00001 0
-6.57147e-14 1.00001 0
1.92682e-14 1 0
6.03112e-14 1 0
-5.42496e-14 1 0
-4.99263e-14 1 0
7.58866e-14 1.00001 0
6.85077e-14 1.00001 0
-4.99263e-14 1 0
-4.62023e-14 1 0
6.85077e-14 1.00001 0
7.7696e-14 1.00001 0
-6.57147e-14 1.00001 0
-5.72574e-14 1.00001 0
6.03112e-14 1 0
5.79917e-14 1 0
-5.72574e-14 1.00001 0
-9.11315e-14 1.00001 0
5.79917e-14 1 0
9.65448e-14 1 0
-5.9121e-14 1 0
-2.2295e-14 1 0
6.41334e-14 1 0
2.9526e-14 1 0
-2.2295e-14 1 0
-5.29172e-14 1 0
2.9526e-14 1 0
6.19395e-14 1 0
-5.78343e-14 1 0
-4.49137e-14 1 0
7.11911e-14 1 0
7.14715e-14 1 0
-4.49137e-14 1 0
-6.04561e-14 1 0
7.14715e-14 1 0
7.42859e-14 1 0
-5.29172e-14 1 0
-6.43464e-14 1 0
6.19395e-14 1 0
7.72901e-14 1 0
-6.43464e-14 1 0
-7.64033e-14 1 0
7.72901e-14 1 0
8.06914e-14 1 0
-6.04561e-14 1 0
-6.80642e-14 1 0
7.42859e-14 1 0
6.91502e-14 1 0
-6.80642e-14 1 0
-7.62818e-14 1 0
6.91502e-14 1 0
7.57048e-14 1 0
-4.62023e-14 1 0
-4.05717e-14 1 0
7.7696e-14 1.00001 0
5.03951e-14 1.00001 0
-4.05717e-14 1 0
-1.1089e-14 1 0
5.03951e-14 1.00001 0
2.6324e-14 1.00001 0
-9.11315e-14 1.00001 0
-1.6743e-14 1.00001 0
9.65448e-14 1 0
2.09209e-14 1 0
-1.6743e-14 1.00001 0
-1.94876e-14 1.00001 0
2.09209e-14 1 0
2.9258e-14 1 0
-1.1089e-14 1 0
-2.75423e-14 1 0
2.6324e-14 1.00001 0
4.54853e-14 1.00001 0
-2.75423e-14 1 0
-2.69955e-14 1 0
4.54853e-14 1.00001 0
4.6357e-14 1.00001 0
-1.94876e-14 1.00001 0
-3.29469e-14 1.00001 0
2.9258e-14 1 0
3.80266e-14 1 0
-3.29469e-14 1.00001 0
-5.44904e-14 1.00001 0
3.80266e-14 1 0
5.825e-14 1 0
-7.64033e-14 1 0
-9.05754e-15 1 0
8.06914e-14 1 0
1.83064e-14 1 0
-9.05754e-15 1 0
-3.73361e-14 1 0
1.83064e-14 1 0
4.62769e-14 1 0
-7.62818e-14 1 0
-6.94155e-15 1 0
7.57048e-14 1 0
5.0477e-15 1 0
-6.94155e-15 1 0
-3.74795e-14 1 0
5.0477e-15 1 0
4.72715e-14 1 0
-3.73361e-14 1 0
-3.9077e-14 1 0
4.62769e-14 1 0
5.3601e-14 1 0
-3.9077e-14 1 0
-3.90579e-14 1 0
5.3601e-14 1 0
4.19418e-14 1 0
-3.74795e-14 1 0
-3.83312e-14 1 0
4.72715e-14 1 0
4.4975e-14 1 0
-3.83312e-14 1 0
-2.2905e-14 1 0
4.4975e-14 1 0
4.29596e-14 1 0
-4.4448e-14 1 0
-5.51068e-14 1 0
5.01432e-14 1 0
6.16929e-14 1 0
-5.51068e-14 1 0
-5.72755e-14 1 0
6.16929e-14 1 0
6.32798e-14 1 0
-6.21576e-14 1 0
-6.48706e-14 1 0
5.62318e-14 1 0
6.60598e-14 1 0
-6.48706e-14 1 0
-6.13289e-14 1 0
6.60598e-14 1 0
6.13214e-14 1 0
-5.72755e-14 1 0
-5.32601e-14 1 0
6.32798e-14 1 0
6.41912e-14 1 0
-5.32601e-14 1 0
-6.4569e-14 1 0
6.41912e-14 1 0
7.73585e-14 1 0
-6.13289e-14 1 0
-6.34819e-14 1 0
6.13214e-14 1 0
6.51613e-14 1 0
-6.34819e-14 1 0
-6.59595e-14 1 0
6.51613e-14 1 0
6.46808e-14 1 0
-3.64744e-14 1 0
-5.09722e-14 1 0
4.02196e-14 1 0
5.29488e-14 1 0
-5.09722e-14 1 0
-4.29228e-14 1 0
5.29488e-14 1 0
4.88583e-14 1 0
-2.3138e-14 1 0
-4.37154e-14 1 0
2.28557e-14 1 0
4.13795e-14 1 0
-4.37154e-14 1 0
-4.55366e-14 1 0
4.13795e-14 1 0
5.30802e-14 1 0
-4.29228e-14 1 0
-4.48011e-14 1 0
4.88583e-14 1 0
5.52e-14 1 0