# vtk DataFile Version 3.0
#This file was generated by the deal.II library on 2018/10/24 at 17:14:12
ASCII
DATASET UNSTRUCTURED_GRID

POINTS 20480 double
0 0 0
0.19635 0 0
0 0.312492 0
0.19635 0.312492 0
0.19635 0 0
0.392699 0 0
0.19635 0.312492 0
0.392699 0.312492 0
0 0.312492 0
0.19635 0.312492 0
0 0.624992 0
0.19635 0.624992 0
0.19635 0.312492 0
0.392699 0.312492 0
0.19635 0.624992 0
0.392699 0.624992 0
0.392699 0 0
0.589049 0 0
0.392699 0.312492 0
0.589049 0.312492 0
0.589049 0 0
0.785398 0 0
0.589049 0.312492 0
0.785398 0.312492 0
0.392699 0.312492 0
0.589049 0.312492 0
0.392699 0.624992 0
0.589049 0.624992 0
0.589049 0.312492 0
0.785398 0.312492 0
0.589049 0.624992 0
0.785398 0.624992 0
0 0.624992 0
0.19635 0.624992 0
0 0.937492 0
0.19635 0.937492 0
0.19635 0.624992 0
0.392699 0.624992 0
0.19635 0.937492 0
0.392699 0.937492 0
0 0.937492 0
0.19635 0.937492 0
0 1.24999 0
0.19635 1.24999 0
0.19635 0.937492 0
0.392699 0.937492 0
0.19635 1.24999 0
0.392699 1.24999 0
0.392699 0.624992 0
0.589049 0.624992 0
0.392699 0.937492 0
0.589049 0.937492 0
0.589049 0.624992 0
0.785398 0.624992 0
0.589049 0.937492 0
0.785398 0.937492 0
0.392699 0.937492 0
0.589049 0.937492 0
0.392699 1.24999 0
0.589049 1.24999 0
0.589049 0.937492 0
0.785398 0.937492 0
0.589049 1.24999 0
0.785398 1.24999 0
0.785398 0 0
0.981748 0 0
0.785398 0.312492 0
0.981748 0.312492 0
0.981748 0 0
1.1781 0 0
0.981748 0.312492 0
1.1781 0.312492 0
0.785398 0.312492 0
0.981748 0.312492 0
0.785398 0.624992 0
0.981748 0.624992 0
0.981748 0.312492 0
1.1781 0.312492 0
0.981748 0.624992 0
1.1781 0.624992 0
1.1781 0 0
1.37445 0 0
1.1781 0.312492 0
1.37445 0.312492 0
1.37445 0 0
1.5708 0 0
1.37445 0.312492 0
1.5708 0.312492 0
1.1781 0.312492 0
1.37445 0.312492 0
1.1781 0.624992 0
1.37445 0.624992 0
1.37445 0.312492 0
1.5708 0.312492 0
1.37445 0.624992 0
1.5708 0.624992 0
0.785398 0.624992 0
0.981748 0.624992 0
0.785398 0.937492 0
0.981748 0.937492 0
0.981748 0.624992 0
1.1781 0.624992 0
0.981748 0.937492 0
1.1781 0.937492 0
0.785398 0.937492 0
0.981748 0.937492 0
0.785398 1.24999 0
0.981748 1.24999 0
0.981748 0.937492 0
1.1781 0.937492 0
0.981748 1.24999 0
1.1781 1.24999 0
1.1781 0.624992 0
1.37445 0.624992 0
1.1781 0.937492 0
1.37445 0.937492 0
1.37445 0.624992 0
1.5708 0.624992 0
1.37445 0.937492 0
1.5708 0.937492 0
1.1781 0.937492 0
1.37445 0.937492 0
1.1781 1.24999 0
1.37445 1.24999 0
1.37445 0.937492 0
1.5708 0.937492 0
1.37445 1.24999 0
1.5708 1.24999 0
0 1.24999 0
0.19635 1.24999 0
0 1.56249 0
0.19635 1.56249 0
0.19635 1.24999 0
0.392699 1.24999 0
0.19635 1.56249 0
0.392699 1.56249 0
0 1.56249 0
0.19635 1.56249 0
0 1.87499 0
0.19635 1.87499 0
0.19635 1.56249 0
0.392699 1.56249 0
0.19635 1.87499 0
0.392699 1.87499 0
0.392699 1.24999 0
0.589049 1.24999 0
0.392699 1.56249 0
0.589049 1.56249 0
0.589049 1.24999 0
0.785398 1.24999 0
0.589049 1.56249 0
0.785398 1.56249 0
0.392699 1.56249 0
0.589049 1.56249 0
0.392699 1.87499 0
0.589049 1.87499 0
0.589049 1.56249 0
0.785398 1.56249 0
0.589049 1.87499 0
0.785398 1.87499 0
0 1.87499 0
0.19635 1.87499 0
0 2.18749 0
0.19635 2.18749 0
0.19635 1.87499 0
0.392699 1.87499 0
0.19635 2.18749 0
0.392699 2.18749 0
0 2.18749 0
0.19635 2.18749 0
0 2.49999 0
0.19635 2.49999 0
0.19635 2.18749 0
0.392699 2.18749 0
0.19635 2.49999 0
0.392699 2.49999 0
0.392699 1.87499 0
0.589049 1.87499 0
0.392699 2.18749 0
0.589049 2.18749 0
0.589049 1.87499 0
0.785398 1.87499 0
0.589049 2.18749 0
0.785398 2.18749 0
0.392699 2.18749 0
0.589049 2.18749 0
0.392699 2.49999 0
0.589049 2.49999 0
0.589049 2.18749 0
0.785398 2.18749 0
0.589049 2.49999 0
0.785398 2.49999 0
0.785398 1.24999 0
0.981748 1.24999 0
0.785398 1.56249 0
0.981748 1.56249 0
0.981748 1.24999 0
1.1781 1.24999 0
0.981748 1.56249 0
1.1781 1.56249 0
0.785398 1.56249 0
0.981748 1.56249 0
0.785398 1.87499 0
0.981748 1.87499 0
0.981748 1.56249 0
1.1781 1.56249 0
0.981748 1.87499 0
1.1781 1.87499 0
1.1781 1.24999 0
1.37445 1.24999 0
1.1781 1.56249 0
1.37445 1.56249 0
1.37445 1.24999 0
1.5708 1.24999 0
1.37445 1.56249 0
1.5708 1.56249 0
1.1781 1.56249 0
1.37445 1.56249 0
1.1781 1.87499 0
1.37445 1.87499 0
1.37445 1.56249 0
1.5708 1.56249 0
1.37445 1.87499 0
1.5708 1.87499 0
0.785398 1.87499 0
0.981748 1.87499 0
0.785398 2.18749 0
0.981748 2.18749 0
0.981748 1.87499 0
1.1781 1.87499 0
0.981748 2.18749 0
1.1781 2.18749 0
0.785398 2.18749 0
0.981748 2.18749 0
0.785398 2.49999 0
0.981748 2.49999 0
0.981748 2.18749 0
1.1781 2.18749 0
0.981748 2.49999 0
1.1781 2.49999 0
1.1781 1.87499 0
1.37445 1.87499 0
1.1781 2.18749 0
1.37445 2.18749 0
1.37445 1.87499 0
1.5708 1.87499 0
1.37445 2.18749 0
1.5708 2.18749 0
1.1781 2.18749 0
1.37445 2.18749 0
1.1781 2.49999 0
1.37445 2.49999 0
1.37445 2.18749 0
1.5708 2.18749 0
1.37445 2.49999 0
1.5708 2.49999 0
1.5708 0 0
1.76715 0 0
1.5708 0.312492 0
1.76715 0.312492 0
1.76715 0 0
1.9635 0 0
1.76715 0.312492 0
1.9635 0.312492 0
1.5708 0.312492 0
1.76715 0.312492 0
1.5708 0.624992 0
1.76715 0.624992 0
1.76715 0.312492 0
1.9635 0.312492 0
1.76715 0.624992 0
1.9635 0.624992 0
1.9635 0 0
2.15984 0 0
1.9635 0.312492 0
2.15984 0.312492 0
2.15984 0 0
2.35619 0 0
2.15984 0.312492 0
2.35619 0.312492 0
1.9635 0.312492 0
2.15984 0.312492 0
1.9635 0.624992 0
2.15984 0.624992 0
2.15984 0.312492 0
2.35619 0.312492 0
2.15984 0.624992 0
2.35619 0.624992 0
1.5708 0.624992 0
1.76715 0.624992 0
1.5708 0.937492 0
1.76715 0.937492 0
1.76715 0.624992 0
1.9635 0.624992 0
1.76715 0.937492 0
1.9635 0.937492 0
1.5708 0.937492 0
1.76715 0.937492 0
1.5708 1.24999 0
1.76715 1.24999 0
1.76715 0.937492 0
1.9635 0.937492 0
1.76715 1.24999 0
1.9635 1.24999 0
1.9635 0.624992 0
2.15984 0.624992 0
1.9635 0.937492 0
2.15984 0.937492 0
2.15984 0.624992 0
2.35619 0.624992 0
2.15984 0.937492 0
2.35619 0.937492 0
1.9635 0.937492 0
2.15984 0.937492 0
1.9635 1.24999 0
2.15984 1.24999 0
2.15984 0.937492 0
2.35619 0.937492 0
2.15984 1.24999 0
2.35619 1.24999 0
2.35619 0 0
2.55254 0 0
2.35619 0.312492 0
2.55254 0.312492 0
2.55254 0 0
2.74889 0 0
2.55254 0.312492 0
2.74889 0.312492 0
2.35619 0.312492 0
2.55254 0.312492 0
2.35619 0.624992 0
2.55254 0.624992 0
2.55254 0.312492 0
2.74889 0.312492 0
2.55254 0.624992 0
2.74889 0.624992 0
2.74889 0 0
2.94524 0 0
2.74889 0.312492 0
2.94524 0.312492 0
2.94524 0 0
3.14159 0 0
2.94524 0.312492 0
3.14159 0.312492 0
2.74889 0.312492 0
2.94524 0.312492 0
2.74889 0.624992 0
2.94524 0.624992 0
2.94524 0.312492 0
3.14159 0.312492 0
2.94524 0.624992 0
3.14159 0.624992 0
2.35619 0.624992 0
2.55254 0.624992 0
2.35619 0.937492 0
2.55254 0.937492 0
2.55254 0.624992 0
2.74889 0.624992 0
2.55254 0.937492 0
2.74889 0.937492 0
2.35619 0.937492 0
2.55254 0.937492 0
2.35619 1.24999 0
2.55254 1.24999 0
2.55254 0.937492 0
2.74889 0.937492 0
2.55254 1.24999 0
2.74889 1.24999 0
2.74889 0.624992 0
2.94524 0.624992 0
2.74889 0.937492 0
2.94524 0.937492 0
2.94524 0.624992 0
3.14159 0.624992 0
2.94524 0.937492 0
3.14159 0.937492 0
2.74889 0.937492 0
2.94524 0.937492 0
2.74889 1.24999 0
2.94524 1.24999 0
2.94524 0.937492 0
3.14159 0.937492 0
2.94524 1.24999 0
3.14159 1.24999 0
1.5708 1.24999 0
1.76715 1.24999 0
1.5708 1.56249 0
1.76715 1.56249 0
1.76715 1.24999 0
1.9635 1.24999 0
1.76715 1.56249 0
1.9635 1.56249 0
1.5708 1.56249 0
1.76715 1.56249 0
1.5708 1.87499 0
1.76715 1.87499 0
1.76715 1.56249 0
1.9635 1.56249 0
1.76715 1.87499 0
1.9635 1.87499 0
1.9635 1.24999 0
2.15984 1.24999 0
1.9635 1.56249 0
2.15984 1.56249 0
2.15984 1.24999 0
2.35619 1.24999 0
2.15984 1.56249 0
2.35619 1.56249 0
1.9635 1.56249 0
2.15984 1.56249 0
1.9635 1.87499 0
2.15984 1.87499 0
2.15984 1.56249 0
2.35619 1.56249 0
2.15984 1.87499 0
2.35619 1.87499 0
1.5708 1.87499 0
1.76715 1.87499 0
1.5708 2.18749 0
1.76715 2.18749 0
1.76715 1.87499 0
1.9635 1.87499 0
1.76715 2.18749 0
1.9635 2.18749 0
1.5708 2.18749 0
1.76715 2.18749 0
1.5708 2.49999 0
1.76715 2.49999 0
1.76715 2.18749 0
1.9635 2.18749 0
1.76715 2.49999 0
1.9635 2.49999 0
1.9635 1.87499 0
2.15984 1.87499 0
1.9635 2.18749 0
2.15984 2.18749 0
2.15984 1.87499 0
2.35619 1.87499 0
2.15984 2.18749 0
2.35619 2.18749 0
1.9635 2.18749 0
2.15984 2.18749 0
1.9635 2.49999 0
2.15984 2.49999 0
2.15984 2.18749 0
2.35619 2.18749 0
2.15984 2.49999 0
2.35619 2.49999 0
2.35619 1.24999 0
2.55254 1.24999 0
2.35619 1.56249 0
2.55254 1.56249 0
2.55254 1.24999 0
2.74889 1.24999 0
2.55254 1.56249 0
2.74889 1.56249 0
2.35619 1.56249 0
2.55254 1.56249 0
2.35619 1.87499 0
2.55254 1.87499 0
2.55254 1.56249 0
2.74889 1.56249 0
2.55254 1.87499 0
2.74889 1.87499 0
2.74889 1.24999 0
2.94524 1.24999 0
2.74889 1.56249 0
2.94524 1.56249 0
2.94524 1.24999 0
3.14159 1.24999 0
2.94524 1.56249 0
3.14159 1.56249 0
2.74889 1.56249 0
2.94524 1.56249 0
2.74889 1.87499 0
2.94524 1.87499 0
2.94524 1.56249 0
3.14159 1.56249 0
2.94524 1.87499 0
3.14159 1.87499 0
2.35619 1.87499 0
2.55254 1.87499 0
2.35619 2.18749 0
2.55254 2.18749 0
2.55254 1.87499 0
2.74889 1.87499 0
2.55254 2.18749 0
2.74889 2.18749 0
2.35619 2.18749 0
2.55254 2.18749 0
2.35619 2.49999 0
2.55254 2.49999 0
2.55254 2.18749 0
2.74889 2.18749 0
2.55254 2.49999 0
2.74889 2.49999 0
2.74889 1.87499 0
2.94524 1.87499 0
2.74889 2.18749 0
2.94524 2.18749 0
2.94524 1.87499 0
3.14159 1.87499 0
2.94524 2.18749 0
3.14159 2.18749 0
2.74889 2.18749 0
2.94524 2.18749 0
2.74889 2.49999 0
2.94524 2.49999 0
2.94524 2.18749 0
3.14159 2.18749 0
2.94524 2.49999 0
3.14159 2.49999 0
0 2.49999 0
0.19635 2.49999 0
0 2.81249 0
0.19635 2.81249 0
0.19635 2.49999 0
0.392699 2.49999 0
0.19635 2.81249 0
0.392699 2.81249 0
0 2.81249 0
0.19635 2.81249 0
0 3.12499 0
0.19635 3.12499 0
0.19635 2.81249 0
0.392699 2.81249 0
0.19635 3.12499 0
0.392699 3.12499 0
0.392699 2.49999 0
0.589049 2.49999 0
0.392699 2.81249 0
0.589049 2.81249 0
0.589049 2.49999 0
0.785398 2.49999 0
0.589049 2.81249 0
0.785398 2.81249 0
0.392699 2.81249 0
0.589049 2.81249 0
0.392699 3.12499 0
0.589049 3.12499 0
0.589049 2.81249 0
0.785398 2.81249 0
0.589049 3.12499 0
0.785398 3.12499 0
0 3.12499 0
0.19635 3.12499 0
0 3.43749 0
0.19635 3.43749 0
0.19635 3.12499 0
0.392699 3.12499 0
0.19635 3.43749 0
[...]
POINT_DATA 20480
VECTORS uf double
0 1 0
-1.63069e-15 1 0
0 1.00001 0
-9.46037e-15 1.00001 0
-1.63069e-15 1 0
-2.76029e-14 1 0
-9.46037e-15 1.00001 0
2.57537e-14 1.00001 0
0 1.00001 0
2.40939e-14 1.00001 0
0 1 0
-1.70788e-14 1 0
2.40939e-14 1.00001 0
-1.26866e-14 1.00001 0
-1.70788e-14 1 0
1.43202e-14 1 0
-2.76029e-14 1 0
-5.1478e-14 1 0
2.57537e-14 1.00001 0
6.45855e-14 1.00001 0
-5.1478e-14 1 0
-8.57689e-14 1 0
6.45855e-14 1.00001 0
1.08398e-13 1.00001 0
-1.26866e-14 1.00001 0
-7.59345e-14 1.00001 0
1.43202e-14 1 0
8.8764e-14 1 0
-7.59345e-14 1.00001 0
-8.16258e-14 1.00001 0
8.8764e-14 1 0
7.5614e-14 1 0
0 1 0
1.27443e-14 1 0
0 1 0
-1.46742e-14 1 0
1.27443e-14 1 0
-2.25393e-14 1 0
-1.46742e-14 1 0
3.68627e-14 1 0
0 1 0
2.56873e-14 1 0
0 1 0
-2.73811e-14 1 0
2.56873e-14 1 0
-3.28524e-14 1 0
-2.73811e-14 1 0
2.42184e-14 1 0
-2.25393e-14 1 0
-8.80177e-14 1 0
3.68627e-14 1 0
9.17226e-14 1 0
-8.80177e-14 1 0
-7.89736e-14 1 0
9.17226e-14 1 0
9.39733e-14 1 0
-3.28524e-14 1 0
-8.7906e-14 1 0
2.42184e-14 1 0
8.93496e-14 1 0
-8.7906e-14 1 0
-1.03725e-13 1 0
8.93496e-14 1 0
1.09732e-13 1 0
-8.57689e-14 1 0
-3.7915e-14 1 0
1.08398e-13 1.00001 0
3.77518e-14 1.00001 0
-3.7915e-14 1 0
-6.87116e-14 1 0
3.77518e-14 1.00001 0
8.23798e-14 1.00001 0
-8.16258e-14 1.00001 0
-2.90176e-14 1.00001 0
7.5614e-14 1 0
2.42193e-14 1 0
-2.90176e-14 1.00001 0
-7.30219e-14 1.00001 0
2.42193e-14 1 0
8.65906e-14 1 0
-6.87116e-14 1 0
-7.87637e-14 1 0
8.23798e-14 1.00001 0
9.97879e-14 1.00001 0
-7.87637e-14 1 0
-7.70101e-14 1 0
9.97879e-14 1.00001 0
8.20775e-14 1.00001 0
-7.30219e-14 1.00001 0
-8.13916e-14 1.00001 0
8.65906e-14 1 0
7.85243e-14 1 0
-8.13916e-14 1.00001 0
-4.18734e-14 1.00001 0
7.85243e-14 1 0
5.91296e-14 1 0
-7.89736e-14 1 0
-5.57936e-15 1 0
9.39733e-14 1 0
2.2378e-14 1 0
-5.57936e-15 1 0
-9.98453e-14 1 0
2.2378e-14 1 0
1.07445e-13 1 0
-1.03725e-13 1 0
-6.39679e-14 1 0
1.09732e-13 1 0
7.44854e-14 1 0
-6.39679e-14 1 0
-1.02714e-13 1 0
7.44854e-14 1 0
1.01742e-13 1 0
-9.98453e-14 1 0
-8.5814e-14 1 0
1.07445e-13 1 0
9.69338e-14 1 0
-8.5814e-14 1 0
-1.00397e-13 1 0
9.69338e-14 1 0
1.08554e-13 1 0
-1.02714e-13 1 0
-9.44403e-14 1 0
1.01742e-13 1 0
9.83732e-14 1 0
-9.44403e-14 1 0
-9.22186e-14 1 0
9.83732e-14 1 0
9.1312e-14 1 0
0 1 0
2.67254e-14 1 0
0 1 0
-2.58398e-14 1 0
2.67254e-14 1 0
-1.98215e-14 1 0
-2.58398e-14 1 0
2.49247e-14 1 0
0 1 0
2.06056e-14 1 0
0 1 0
-2.08997e-14 1 0
2.06056e-14 1 0
-3.39166e-14 1 0
-2.08997e-14 1 0
2.93628e-14 1 0
-1.98215e-14 1 0
-1.33269e-13 1 0
2.49247e-14 1 0
1.51178e-13 1 0
-1.33269e-13 1 0
-1.39474e-13 1 0
1.51178e-13 1 0
1.52702e-13 1 0
-3.39166e-14 1 0
-1.31248e-13 1 0
2.93628e-14 1 0
1.23586e-13 1 0
-1.31248e-13 1 0
-1.51702e-13 1 0
1.23586e-13 1 0
1.51929e-13 1 0
0 1 0
1.98524e-14 1 0
0 1 0
-1.39984e-14 1 0
1.98524e-14 1 0
-2.90982e-15 1 0
-1.39984e-14 1 0
8.54323e-15 1 0
0 1 0
1.64865e-14 1 0
0 1 0
-2.02612e-14 1 0
1.64865e-14 1 0
-3.25337e-14 1 0
-2.02612e-14 1 0
3.19554e-14 1 0
-2.90982e-15 1 0
-1.03041e-13 1 0
8.54323e-15 1 0
9.18768e-14 1 0
-1.03041e-13 1 0
-1.20878e-13 1 0
9.18768e-14 1 0
1.03209e-13 1 0
-3.25337e-14 1 0
-7.7257e-14 1 0
3.19554e-14 1 0
6.78212e-14 1 0
-7.7257e-14 1 0
-9.08753e-14 1 0
6.78212e-14 1 0
8.68744e-14 1 0
-1.39474e-13 1 0
-9.23214e-14 1 0
1.52702e-13 1 0
1.02148e-13 1 0
-9.23214e-14 1 0
-1.0376e-13 1 0
1.02148e-13 1 0
1.01796e-13 1 0
-1.51702e-13 1 0
-8.52671e-14 1 0
1.51929e-13 1 0
8.77684e-14 1 0
-8.52671e-14 1 0
-8.58364e-14 1 0
8.77684e-14 1 0
8.91126e-14 1 0
-1.0376e-13 1 0
-9.76316e-14 1 0
1.01796e-13 1 0
1.02459e-13 1 0
-9.76316e-14 1 0
-9.02143e-14 1 0
1.02459e-13 1 0
9.6769e-14 1 0
-8.58364e-14 1 0
-9.49074e-14 1 0
8.91126e-14 1 0
8.69186e-14 1 0
-9.49074e-14 1 0
-9.74427e-14 1 0
8.69186e-14 1 0
9.87391e-14 1 0
-1.20878e-13 1 0
-5.77872e-14 1 0
1.03209e-13 1 0
5.24575e-14 1 0
-5.77872e-14 1 0
-6.03035e-14 1 0
5.24575e-14 1 0
5.66098e-14 1 0
-9.08753e-14 1 0
-8.61152e-14 1 0
8.68744e-14 1 0
8.75864e-14 1 0
-8.61152e-14 1 0
-8.25811e-14 1 0
8.75864e-14 1 0
8.71315e-14 1 0
-6.03035e-14 1 0
-5.64082e-14 1 0
5.66098e-14 1 0
6.37042e-14 1 0
-5.64082e-14 1 0
-6.82478e-14 1 0
6.37042e-14 1 0
7.38042e-14 1 0
-8.25811e-14 1 0
-8.87072e-14 1 0
8.71315e-14 1 0
8.80085e-14 1 0
-8.87072e-14 1 0
-9.37914e-14 1 0
8.80085e-14 1 0
9.10369e-14 1 0
-7.70101e-14 1 0
-8.28281e-14 1 0
8.20775e-14 1.00001 0
9.94309e-14 1.00001 0
-8.28281e-14 1 0
-7.81583e-14 1 0
9.94309e-14 1.00001 0
9.11939e-14 1.00001 0
-4.18734e-14 1.00001 0
-8.35214e-14 1.00001 0
5.91296e-14 1 0
9.28578e-14 1 0
-8.35214e-14 1.00001 0
-7.6859e-14 1.00001 0
9.28578e-14 1 0
8.96385e-14 1 0
-7.81583e-14 1 0
-9.16828e-14 1 0
9.11939e-14 1.00001 0
1.15363e-13 1.00001 0
-9.16828e-14 1 0
-7.67991e-14 1 0
1.15363e-13 1.00001 0
1.09212e-13 1.00001 0
-7.6859e-14 1.00001 0
-9.72254e-14 1.00001 0
8.96385e-14 1 0
9.56814e-14 1 0
-9.72254e-14 1.00001 0
-1.21994e-13 1.00001 0
9.56814e-14 1 0
1.26787e-13 1 0
-1.00397e-13 1 0
-1.12578e-13 1 0
1.08554e-13 1 0
1.21967e-13 1 0
-1.12578e-13 1 0
-1.07917e-13 1 0
1.21967e-13 1 0
1.14027e-13 1 0
-9.22186e-14 1 0
-9.48612e-14 1 0
9.1312e-14 1 0
9.21612e-14 1 0
-9.48612e-14 1 0
-8.34339e-14 1 0
9.21612e-14 1 0
8.74495e-14 1 0
-1.07917e-13 1 0
-1.19736e-13 1 0
1.14027e-13 1 0
1.28565e-13 1 0
-1.19736e-13 1 0
-1.39663e-13 1 0
1.28565e-13 1 0
1.33455e-13 1 0
-8.34339e-14 1 0
-8.45437e-14 1 0
8.74495e-14 1 0
8.83303e-14 1 0
-8.45437e-14 1 0
-8.16579e-14 1 0
8.83303e-14 1 0
9.35385e-14 1 0
-7.67991e-14 1 0
-6.68136e-14 1 0
1.09212e-13 1.00001 0
8.88379e-14 1.00001 0
-6.68136e-14 1 0
-8.59263e-14 1 0
8.88379e-14 1.00001 0
1.16186e-13 1.00001 0
-1.21994e-13 1.00001 0
-9.56693e-14 1.00001 0
1.26787e-13 1 0
1.01395e-13 1 0
-9.56693e-14 1.00001 0
-9.57105e-14 1.00001 0
1.01395e-13 1 0
9.31601e-14 1 0
-8.59263e-14 1 0
-9.2374e-14 1 0
1.16186e-13 1.00001 0
1.26092e-13 1.00001 0
-9.2374e-14 1 0
-4.65108e-14 1 0
1.26092e-13 1.00001 0
5.63679e-14 1.00001 0
-9.57105e-14 1.00001 0
-1.0374e-13 1.00001 0
9.31601e-14 1 0
1.01257e-13 1 0
-1.0374e-13 1.00001 0
-4.59165e-14 1.00001 0
1.01257e-13 1 0
6.24326e-14 1 0
-1.39663e-13 1 0
-1.24746e-13 1 0
1.33455e-13 1 0
1.35786e-13 1 0
-1.24746e-13 1 0
-1.24566e-13 1 0
1.35786e-13 1 0
1.39703e-13 1 0
-8.16579e-14 1 0
-8.36446e-14 1 0
9.35385e-14 1 0
9.03914e-14 1 0
-8.36446e-14 1 0
-8.96051e-14 1 0
9.03914e-14 1 0
9.14125e-14 1 0
-1.24566e-13 1 0
-1.27035e-13 1 0
1.39703e-13 1 0
1.31745e-13 1 0
-1.27035e-13 1 0
-1.06879e-13 1 0
1.31745e-13 1 0
1.24029e-13 1 0
-8.96051e-14 1 0
-8.08084e-14 1 0
9.14125e-14 1 0
7.84215e-14 1 0
-8.08084e-14 1 0
-9.62014e-14 1 0
7.84215e-14 1 0
9.89049e-14 1 0
-9.02143e-14 1 0
-9.35249e-14 1 0
9.6769e-14 1 0
1.00221e-13 1 0
-9.35249e-14 1 0
-9.14914e-14 1 0
1.00221e-13 1 0
9.55429e-14 1 0
-9.74427e-14 1 0
-1.02148e-13 1 0
9.87391e-14 1 0
1.03422e-13 1 0
-1.02148e-13 1 0
-9.72224e-14 1 0
1.03422e-13 1 0
9.58478e-14 1 0
-9.14914e-14 1 0
-8.82438e-14 1 0
9.55429e-14 1 0
9.69458e-14 1 0
-8.82438e-14 1 0
-1.01849e-13 1 0
9.69458e-14 1 0
1.08314e-13 1 0
-9.72224e-14 1 0
-1.00628e-13 1 0
9.58478e-14 1 0
9.81948e-14 1 0
-1.00628e-13 1 0
-1.08371e-13 1 0
9.81948e-14 1 0
1.08557e-13 1 0
-6.82478e-14 1 0
-6.19577e-14 1 0
7.38042e-14 1 0
6.30438e-14 1 0
-6.19577e-14 1 0
-6.03363e-14 1 0
6.30438e-14 1 0
6.42893e-14 1 0
-9.37914e-14 1 0
-8.9437e-14 1 0
9.10369e-14 1 0
9.03531e-14 1 0
-8.9437e-14 1 0
-8.74255e-14 1 0
9.03531e-14 1 0
9.30773e-14 1 0
-6.03363e-14 1 0
-6.33519e-14 1 0
6.42893e-14 1 0
6.24808e-14 1 0
-6.33519e-14 1 0
-6.96049e-14 1 0
6.24808e-14 1 0
6.5757e-14 1 0
-8.74255e-14 1 0
-8.03325e-14 1 0
9.30773e-14 1 0
9.27931e-14 1 0
-8.03325e-14 1 0
-7.17626e-14 1 0
9.27931e-14 1 0
7.91587e-14 1 0
-1.01849e-13 1 0
-7.55433e-14 1 0
1.08314e-13 1 0
7.13566e-14 1 0
-7.55433e-14 1 0
-8.28122e-14 1 0
7.13566e-14 1 0
8.88508e-14 1 0
-1.08371e-13 1 0
-8.91397e-14 1 0
1.08557e-13 1 0
1.01885e-13 1 0
-8.91397e-14 1 0
-9.09123e-14 1 0
1.01885e-13 1 0
9.42275e-14 1 0
-8.28122e-14 1 0
-2.90586e-14 1 0
8.88508e-14 1 0
4.5496e-14 1 0
-2.90586e-14 1 0
-8.00945e-14 1 0
4.5496e-14 1 0
9.64805e-14 1 0
-9.09123e-14 1 0
-8.74401e-14 1 0
9.42275e-14 1 0
9.16834e-14 1 0
-8.74401e-14 1 0
-1.08514e-13 1 0
9.16834e-14 1 0
1.01343e-13 1 0
-6.96049e-14 1 0
-7.30746e-14 1 0
6.5757e-14 1 0
7.94717e-14 1 0
-7.30746e-14 1 0
-5.84515e-14 1 0
7.94717e-14 1 0
5.62553e-14 1 0
-7.17626e-14 1 0
-1.15681e-13 1 0
7.91587e-14 1 0
1.2582e-13 1 0
-1.15681e-13 1 0
-7.33665e-14 1 0
1.2582e-13 1 0
8.49133e-14 1 0
-5.84515e-14 1 0
-6.89229e-14 1 0
5.62553e-14 1 0
6.82673e-14 1 0
-6.89229e-14 1 0
-6.45269e-14 1 0
6.82673e-14 1 0
6.52184e-14 1 0
-7.33665e-14 1 0
-3.50767e-14 1 0
8.49133e-14 1 0
2.34221e-14 1 0
-3.50767e-14 1 0
-6.19321e-14 1 0
2.34221e-14 1 0
6.67e-14 1 0
0 1 0
2.07138e-14 1 0
0 1 0
-1.83794e-14 1 0
2.07138e-14 1 0
-1.67759e-14 1 0
-1.83794e-14 1 0
1.69787e-14 1 0
0 1 0
1.3515e-14 1 0
0 1 0
-1.08649e-14 1 0
1.3515e-14 1 0
-2.22323e-14 1 0
-1.08649e-14 1 0
2.36731e-14 1 0
-1.67759e-14 1 0
-4.70168e-14 1 0
1.69787e-14 1 0
5.05132e-14 1 0
-4.70168e-14 1 0
-6.59476e-14 1 0
5.05132e-14 1 0
6.46611e-14 1 0
-2.22323e-14 1 0
-5.79955e-14 1 0
2.36731e-14 1 0
6.30384e-14 1 0
-5.79955e-14 1 0
-7.45718e-14 1 0
6.30384e-14 1 0
8.8594e-14 1 0
0 1 0
3.94175e-15 1 0
0 1 0
-2.80412e-15 1 0
3.94175e-15 1 0
-2.86803e-14 1 0
-2.80412e-15 1 0
3.02465e-14 1 0
0 1 0
9.30537e-15 1 0
0 1 0
-1.44042e-14 1 0
9.30537e-15 1 0
-3.52345e-14 1 0
-1.44042e-14 1 0
3.47139e-14 1 0
-2.86803e-14 1 0
-6.24632e-14 1 0
3.02465e-14 1 0
6.66644e-14 1 0
-6.24632e-14 1 0
-8.60477e-14 1 0
6.66644e-14 1 0
8.40067e-14 1 0
-3.52345e-14 1 0
-7.55012e-14 1 0
3.47139e-14 1 0
7.32028e-14 1 0
-7.55012e-14 1 0
-8.83711e-14 1 0
7.32028e-14 1 0
8.98534e-14 1 0
-6.59476e-14 1 0
-6.14485e-14 1 0
6.46611e-14 1 0
5.36252e-14 1 0
-6.14485e-14 1 0
-7.29889e-14 1 0
5.36252e-14 1 0
6.90837e-14 1 0
-7.45718e-14 1 0
-6.04321e-14 1 0
8.8594e-14 1 0
6.90214e-14 1 0
-6.04321e-14 1 0
-6.98038e-14 1 0
6.90214e-14 1 0
7.59619e-14 1 0
-7.29889e-14 1 0
-7.31003e-14 1 0
6.90837e-14 1 0
8.12418e-14 1 0
-7.31003e-14 1 0
-7.23537e-14 1 0
8.12418e-14 1 0
7.34449e-14 1 0
-6.98038e-14 1 0
-8.3564e-14 1 0
7.59619e-14 1 0
8.03901e-14 1 0
-8.3564e-14 1 0
-7.84498e-14 1 0
8.03901e-14 1 0
8.06466e-14 1 0
-8.60477e-14 1 0
-6.70937e-14 1 0
8.40067e-14 1 0
7.84637e-14 1 0
-6.70937e-14 1 0
-6.64023e-14 1 0
7.84637e-14 1 0
7.24537e-14 1 0
-8.83711e-14 1 0
-9.04174e-14 1 0
8.98534e-14 1 0
9.17685e-14 1 0
-9.04174e-14 1 0
-8.86752e-14 1 0
9.17685e-14 1 0
9.74062e-14 1 0
-6.64023e-14 1 0
-6.89102e-14 1 0
7.24537e-14 1 0
7.74308e-14 1 0
-6.89102e-14 1 0
-6.24292e-14 1 0
7.74308e-14 1 0
7.00339e-14 1 0
-8.86752e-14 1 0
-9.13839e-14 1 0
9.74062e-14 1 0
9.07386e-14 1 0
-9.13839e-14 1 0
-8.46094e-14 1 0
9.07386e-14 1 0
8.26983e-14 1 0
0 1 0
1.40896e-14 1 0
0 1 0
-2.29262e-15 1 0
1.40896e-14 1 0
-1.59177e-14 1 0
-2.29262e-15 1 0
2.13733e-14 1 0
0 1 0
3.83582e-15 1 0
0 1 0
-7.08147e-15 1 0
3.83582e-15 1 0
-2.1837e-14 1 0
-7.08147e-15 1 0
1.71617e-14 1 0
-1.59177e-14 1 0
-4.88438e-14 1 0
2.13733e-14 1 0
4.65889e-14 1 0
-4.88438e-14 1 0
-7.21485e-14 1 0
4.65889e-14 1 0
6.24941e-14 1 0
-2.1837e-14 1 0
-4.91445e-14 1 0
1.71617e-14 1 0
5.43617e-14 1 0
-4.91445e-14 1 0
-6.09164e-14 1 0
5.43617e-14 1 0
6.40585e-14 1 0
0 1 0
-1.22207e-15 1 0
0 1 0
-5.00058e-16 1 0
-1.22207e-15 1 0
-1.61964e-14 1 0
-5.00058e-16 1 0
1.30516e-14 1 0
0 1 0
6.80054e-15 1 0
0 1 0
-4.10264e-15 1 0
6.80054e-15 1 0
3.11403e-16 1 0
-4.10264e-15 1 0
1.64198e-15 1 0
-1.61964e-14 1 0
-6.09847e-14 1 0
1.30516e-14 1 0
5.92249e-14 1 0
-6.09847e-14 1 0
-5.85266e-14 1 0
5.92249e-14 1 0
6.12339e-14 1 0
3.11403e-16 1 0
-5.06194e-14 1 0
1.64198e-15 1 0
4.94166e-14 1 0
-5.06194e-14 1 0
-6.22812e-14 1 0
4.94166e-14 1 0
6.45381e-14 1 0
-7.21485e-14 1 0
-8.84395e-14 1 0
6.24941e-14 1 0
8.65798e-14 1 0
-8.84395e-14 1 0
-9.38671e-14 1 0
8.65798e-14 1 0
8.90586e-14 1 0
-6.09164e-14 1 0
-6.8613e-14 1 0
6.40585e-14 1 0
6.64225e-14 1 0
-6.8613e-14 1 0
-7.12357e-14 1 0
6.64225e-14 1 0
6.66047e-14 1 0
-9.38671e-14 1 0
-8.48986e-14 1 0
8.90586e-14 1 0
9.64234e-14 1 0
-8.48986e-14 1 0
-8.28757e-14 1 0
9.64234e-14 1 0
8.52527e-14 1 0
-7.12357e-14 1 0
-7.77798e-14 1 0
6.66047e-14 1 0
6.55608e-14 1 0
-7.77798e-14 1 0
-6.03724e-14 1 0
6.55608e-14 1 0
6.35647e-14 1 0
-5.85266e-14 1 0
-4.72564e-14 1 0
6.12339e-14 1 0
4.02147e-14 1 0
-4.72564e-14 1 0
-5.17013e-14 1 0
4.02147e-14 1 0
5.50694e-14 1 0
-6.22812e-14 1 0
-6.06718e-14 1 0
6.45381e-14 1 0
7.35603e-14 1 0
-6.06718e-14 1 0
-7.82755e-14 1 0
7.35603e-14 1 0
7.72672e-14 1 0
-5.17013e-14 1 0
-4.90692e-14 1 0
5.50694e-14 1 0
4.98582e-14 1 0
-4.90692e-14 1 0
-4.80865e-14 1 0
4.98582e-14 1 0
3.54557e-14 1 0
-7.82755e-14 1 0
-7.37859e-14 1 0
7.72672e-14 1 0
7.2839e-14 1 0
-7.37859e-14 1 0
-6.03389e-14 1 0
7.2839e-14 1 0
7.659e-14 1 0
-7.23537e-14 1 0
-7.32758e-14 1 0
7.34449e-14 1 0
7.86407e-14 1 0
-7.32758e-14 1 0
-6.80862e-14 1 0
7.86407e-14 1 0
6.75936e-14 1 0
-7.84498e-14 1 0
-8.1461e-14 1 0
8.06466e-14 1 0
8.25897e-14 1 0
-8.1461e-14 1 0
-7.54262e-14 1 0
8.25897e-14 1 0
8.33154e-14 1 0
-6.80862e-14 1 0
-7.0188e-14 1 0
6.75936e-14 1 0
7.00709e-14 1 0
-7.0188e-14 1 0
-6.15745e-14 1 0
7.00709e-14 1 0
6.65209e-14 1 0
-7.54262e-14 1 0
-8.04904e-14 1 0
8.33154e-14 1 0
8.2942e-14 1 0
-8.04904e-14 1 0
-8.03263e-14 1 0
8.2942e-14 1 0
8.19484e-14 1 0
-6.24292e-14 1 0
-6.94769e-14 1 0
7.00339e-14 1 0
7.69629e-14 1 0
-6.94769e-14 1 0
-7.1453e-14 1 0
7.69629e-14 1 0
7.83034e-14 1 0
-8.46094e-14 1 0
-8.93355e-14 1 0
8.26983e-14 1 0
8.8081e-14 1 0
-8.93355e-14 1 0
-9.13044e-14 1 0
8.8081e-14 1 0
9.33388e-14 1 0
-7.1453e-14 1 0
-6.79962e-14 1 0
7.83034e-14 1 0
7.44287e-14 1 0
-6.79962e-14 1 0
-6.74698e-14 1 0
7.44287e-14 1 0
7.2811e-14 1 0
-9.13044e-14 1 0
-8.49381e-14 1 0
9.33388e-14 1 0
8.37296e-14 1 0
-8.49381e-14 1 0
-8.32799e-14 1 0
8.37296e-14 1 0
8.83653e-14 1 0
-6.15745e-14 1 0
-7.43376e-14 1 0
6.65209e-14 1 0
6.41293e-14 1 0
-7.43376e-14 1 0
-6.38251e-14 1 0
6.41293e-14 1 0
6.67571e-14 1 0
-8.03263e-14 1 0
-8.06329e-14 1 0
8.19484e-14 1 0
8.57039e-14 1 0
-8.06329e-14 1 0
-7.31789e-14 1 0
8.57039e-14 1 0
7.78571e-14 1 0
-6.38251e-14 1 0
-6.25006e-15 1 0
6.67571e-14 1 0
1.8611e-14 1 0
-6.25006e-15 1 0
-5.13339e-14 1 0
1.8611e-14 1 0
6.19957e-14 1 0
-7.31789e-14 1 0
-3.07283e-14 1 0
7.78571e-14 1 0
3.87007e-14 1 0
-3.07283e-14 1 0
-8.1012e-14 1 0
3.87007e-14 1 0
7.97075e-14 1 0
-6.74698e-14 1 0
-6.56466e-14 1 0
7.2811e-14 1 0
6.36581e-14 1 0
-6.56466e-14 1 0
-6.47828e-14 1 0
6.36581e-14 1 0
6.05012e-14 1 0
-8.32799e-14 1 0
-4.7585e-14 1 0
8.83653e-14 1 0
4.98634e-14 1 0
-4.7585e-14 1 0
-7.08437e-14 1 0
4.98634e-14 1 0
8.10793e-14 1 0
-6.47828e-14 1 0
-5.69035e-14 1 0
6.05012e-14 1 0
5.69945e-14 1 0
-5.69035e-14 1 0
-6.53545e-14 1 0
5.69945e-14 1 0
7.18665e-14 1 0
-7.08437e-14 1 0
-3.16039e-14 1 0
8.10793e-14 1 0
2.9506e-14 1 0
-3.16039e-14 1 0
-7.20376e-14 1 0
2.9506e-14 1 0
8.33131e-14 1 0
-8.28757e-14 1 0
-8.56201e-14 1 0
8.52527e-14 1 0
9.39219e-14 1 0
-8.56201e-14 1 0
-8.79271e-14 1 0
9.39219e-14 1 0
8.76139e-14 1 0
-6.03724e-14 1 0
-7.11058e-14 1 0
6.35647e-14 1 0
6.4995e-14 1 0
-7.11058e-14 1 0
-6.96333e-14 1 0
6.4995e-14 1 0
7.19554e-14 1 0
-8.79271e-14 1 0
-7.98196e-14 1 0
8.76139e-14 1 0
9.19357e-14 1 0
-7.98196e-14 1 0
-8.63569e-14 1 0
9.19357e-14 1 0
8.96772e-14 1 0
-6.96333e-14 1 0
-7.15825e-14 1 0
7.19554e-14 1 0
6.93844e-14 1 0
-7.15825e-14 1 0
-6.8712e-14 1 0
6.93844e-14 1 0
6.8104e-14 1 0
-4.80865e-14 1 0
-5.30627e-14 1 0
3.54557e-14 1 0
4.96232e-14 1 0
-5.30627e-14 1 0
-5.37897e-14 1 0
4.96232e-14 1 0
4.72045e-14 1 0
-6.03389e-14 1 0
-6.9125e-14 1 0
7.659e-14 1 0
7.32941e-14 1 0
-6.9125e-14 1 0
-6.8509e-14 1 0
7.32941e-14 1 0
7.4649e-14 1 0
-5.37897e-14 1 0
-4.88294e-14 1 0
4.72045e-14 1 0
4.45853e-14 1 0
-4.88294e-14 1 0
-5.12358e-14 1 0
4.45853e-14 1 0
5.29588e-14 1 0
-6.8509e-14 1 0
-6.96772e-14 1 0
7.4649e-14 1 0
7.72838e-14 1 0
-6.96772e-14 1 0
-6.98e-14 1 0
7.72838e-14 1 0
7.23101e-14 1 0
-8.63569e-14 1 0
-4.64783e-14 1 0
8.96772e-14 1 0
4.83221e-14 1 0
-4.64783e-14 1 0
-7.66328e-14 1 0
4.83221e-14 1 0
7.92286e-14 1 0
-6.8712e-14 1 0
-5.54094e-14 1 0
6.8104e-14 1 0
6.64247e-14 1 0
-5.54094e-14 1 0
-6.79116e-14 1 0
6.64247e-14 1 0
6.98504e-14 1 0
-7.66328e-14 1 0
-1.453e-14 1 0
7.92286e-14 1 0
2.89824e-14 1 0
-1.453e-14 1 0
-8.101e-14 1 0
2.89824e-14 1 0
8.07303e-14 1 0
-6.79116e-14 1 0
-5.20877e-14 1 0
6.98504e-14 1 0
6.1926e-14 1 0
-5.20877e-14 1 0
-6.24158e-14 1 0
6.1926e-14 1 0
5.86501e-14 1 0
-5.12358e-14 1 0
-4.51898e-14 1 0
5.29588e-14 1 0
3.99851e-14 1 0
-4.51898e-14 1 0
-5.18236e-14 1 0
3.99851e-14 1 0
5.80666e-14 1 0
-6.98e-14 1 0
-4.35894e-14 1 0
7.23101e-14 1 0
5.05784e-14 1 0
-4.35894e-14 1 0
-7.39605e-14 1 0
5.05784e-14 1 0
7.35828e-14 1 0
-5.18236e-14 1 0
-4.52786e-14 1 0
5.80666e-14 1 0
2.93002e-14 1 0
-4.52786e-14 1 0
-4.46613e-14 1 0
2.93002e-14 1 0
4.1435e-14 1 0
-7.39605e-14 1 0
-1.46279e-14 1 0
7.35828e-14 1 0
2.00671e-14 1 0
-1.46279e-14 1 0
-5.55752e-14 1 0
2.00671e-14 1 0
7.08677e-14 1 0
-4.65108e-14 1 0
-2.10129e-14 1 0
5.63679e-14 1.00001 0
1.48993e-14 1.00001 0
-2.10129e-14 1 0
-7.15529e-14 1 0
1.48993e-14 1.00001 0
9.90473e-14 1.00001 0
-4.59165e-14 1.00001 0
3.99039e-16 1.00001 0
6.24326e-14 1 0
1.34069e-14 1 0
3.99039e-16 1.00001 0
-9.69585e-14 1.00001 0
1.34069e-14 1 0
1.03464e-13 1 0
-7.15529e-14 1 0
-8.79359e-14 1 0
9.90473e-14 1.00001 0
1.18012e-13 1.00001 0
-8.79359e-14 1 0
-5.47576e-14 1 0
1.18012e-13 1.00001 0
8.38412e-14 1.00001 0
-9.69585e-14 1.00001 0
-9.46094e-14 1.00001 0
1.03464e-13 1 0
1.0733e-13 1 0
-9.46094e-14 1.00001 0
-1.06768e-13 1.00001 0
1.0733e-13 1 0
1.34125e-13 1 0
-1.06879e-13 1 0
-4.85532e-14 1 0
1.24029e-13 1 0
6.98081e-14 1 0
-4.85532e-14 1 0
-7.917e-14 1 0
6.98081e-14 1 0
8.08801e-14 1 0
-9.62014e-14 1 0
-7.36807e-14 1 0
9.89049e-14 1 0
9.92726e-14 1 0
-7.36807e-14 1 0
-7.7474e-14 1 0
9.92726e-14 1 0
9.61581e-14 1 0
-7.917e-14 1 0
-1.08002e-13 1 0
8.08801e-14 1 0
1.14962e-13 1 0
-1.08002e-13 1 0
-1.08858e-13 1 0
1.14962e-13 1 0
1.11695e-13 1 0
-7.7474e-14 1 0
-8.57776e-14 1 0
9.61581e-14 1 0
9.21968e-14 1 0
-8.57776e-14 1 0
-1.05995e-13 1 0
9.21968e-14 1 0
1.08999e-13 1 0
-5.47576e-14 1 0
-6.48042e-14 1 0
8.38412e-14 1.00001 0
9.60693e-14 1.00001 0
-6.48042e-14 1 0
-2.54994e-14 1 0
9.60693e-14 1.00001 0
3.57753e-14 1.00001 0
-1.06768e-13 1.00001 0
-5.03139e-14 1.00001 0
1.34125e-13 1 0
3.15371e-14 1 0
-5.03139e-14 1.00001 0
-1.87716e-14 1.00001 0
3.15371e-14 1 0
3.87345e-14 1 0
-2.54994e-14 1 0
-3.59868e-14 1 0
3.57753e-14 1.00001 0
5.70036e-14 1.00001 0
-3.59868e-14 1 0
-4.7356e-14 1 0
5.70036e-14 1.00001 0
8.05638e-14 1.00001 0
-1.87716e-14 1.00001 0
-4.85921e-14 1.00001 0
3.87345e-14 1 0
5.43738e-14 1 0
-4.85921e-14 1.00001 0
-9.28946e-14 1.00001 0
5.43738e-14 1 0
9.4637e-14 1 0
-1.08858e-13 1 0
-1.01654e-14 1 0
1.11695e-13 1 0
1.72068e-14 1 0
-1.01654e-14 1 0
-6.91491e-14 1 0
1.72068e-14 1 0
7.91613e-14 1 0
-1.05995e-13 1 0
6.07848e-15 1 0
1.08999e-13 1 0
5.58413e-15 1 0
6.07848e-15 1 0
-3.60635e-14 1 0
5.58413e-15 1 0
4.78393e-14 1 0
-6.91491e-14 1 0
-7.44026e-14 1 0
7.91613e-14 1 0
7.93259e-14 1 0
-7.44026e-14 1 0
-8.02387e-14 1 0
7.93259e-14 1 0
8.04081e-14 1 0
-3.60635e-14 1 0
-3.05101e-14 1 0
4.78393e-14 1 0
5.98653e-14 1 0
-3.05101e-14 1 0
-3.29164e-14 1 0
5.98653e-14 1 0
5.1426e-14 1 0
-8.00945e-14 1 0
-9.22926e-14 1 0
9.64805e-14 1 0
9.24782e-14 1 0
-9.22926e-14 1 0
-8.80073e-14 1 0
9.24782e-14 1 0
8.91036e-14 1 0
-1.08514e-13 1 0
-9.44633e-14 1 0
1.01343e-13 1 0
9.70336e-14 1 0
-9.44633e-14 1 0
-8.47232e-14 1 0
9.70336e-14 1 0
8.3221e-14 1 0
-8.80073e-14 1 0
-8.79344e-14 1 0
8.91036e-14 1 0
8.90663e-14 1 0
-8.79344e-14 1 0
-9.87545e-14 1 0
8.90663e-14 1 0
1.00338e-13 1 0
-8.47232e-14 1 0
-8.74419e-14 1 0
8.3221e-14 1 0
8.90845e-14 1 0
-8.74419e-14 1 0
-7.94357e-14 1 0
8.90845e-14 1 0
8.72283e-14 1 0
-6.45269e-14 1 0
-6.07719e-14 1 0
6.52184e-14 1 0
6.38229e-14 1 0
-6.07719e-14 1 0
-4.82322e-14 1 0
6.38229e-14 1 0
5.87758e-14 1 0
-6.19321e-14 1 0
-7.88171e-14 1 0
6.67e-14 1 0
9.04306e-14 1 0
-7.88171e-14 1 0
-7.23499e-14 1 0
9.04306e-14 1 0
7.92738e-14 1 0
-4.82322e-14 1 0
-5.61731e-14 1 0