# vtk DataFile Version 3.0
#This file was generated by the deal.II library on 2018/10/24 at 17:50:46
ASCII
DATASET UNSTRUCTURED_GRID

POINTS 20480 double
0 0 0
0.19635 0 0
0 0.31248 0
0.19635 0.31248 0
0.19635 0 0
0.392699 0 0
0.19635 0.31248 0
0.392699 0.31248 0
0 0.31248 0
0.19635 0.31248 0
0 0.624981 0
0.19635 0.624981 0
0.19635 0.31248 0
0.392699 0.31248 0
0.19635 0.624981 0
0.392699 0.624981 0
0.392699 0 0
0.589049 0 0
0.392699 0.31248 0
0.589049 0.31248 0
0.589049 0 0
0.785398 0 0
0.589049 0.31248 0
0.785398 0.31248 0
0.392699 0.31248 0
0.589049 0.31248 0
0.392699 0.624981 0
0.589049 0.624981 0
0.589049 0.31248 0
0.785398 0.31248 0
0.589049 0.624981 0
0.785398 0.624981 0
0 0.624981 0
0.19635 0.624981 0
0 0.937481 0
0.19635 0.937481 0
0.19635 0.624981 0
0.392699 0.624981 0
0.19635 0.937481 0
0.392699 0.937481 0
0 0.937481 0
0.19635 0.937481 0
0 1.24998 0
0.19635 1.24998 0
0.19635 0.937481 0
0.392699 0.937481 0
0.19635 1.24998 0
0.392699 1.24998 0
0.392699 0.624981 0
0.589049 0.624981 0
0.392699 0.937481 0
0.589049 0.937481 0
0.589049 0.624981 0
0.785398 0.624981 0
0.589049 0.937481 0
0.785398 0.937481 0
0.392699 0.937481 0
0.589049 0.937481 0
0.392699 1.24998 0
0.589049 1.24998 0
0.589049 0.937481 0
0.785398 0.937481 0
0.589049 1.24998 0
0.785398 1.24998 0
0.785398 0 0
0.981748 0 0
0.785398 0.31248 0
0.981748 0.31248 0
0.981748 0 0
1.1781 0 0
0.981748 0.31248 0
1.1781 0.31248 0
0.785398 0.31248 0
0.981748 0.31248 0
0.785398 0.624981 0
0.981748 0.624981 0
0.981748 0.31248 0
1.1781 0.31248 0
0.981748 0.624981 0
1.1781 0.624981 0
1.1781 0 0
1.37445 0 0
1.1781 0.31248 0
1.37445 0.31248 0
1.37445 0 0
1.5708 0 0
1.37445 0.31248 0
1.5708 0.31248 0
1.1781 0.31248 0
1.37445 0.31248 0
1.1781 0.624981 0
1.37445 0.624981 0
1.37445 0.31248 0
1.5708 0.31248 0
1.37445 0.624981 0
1.5708 0.624981 0
0.785398 0.624981 0
0.981748 0.624981 0
0.785398 0.937481 0
0.981748 0.937481 0
0.981748 0.624981 0
1.1781 0.624981 0
0.981748 0.937481 0
1.1781 0.937481 0
0.785398 0.937481 0
0.981748 0.937481 0
0.785398 1.24998 0
0.981748 1.24998 0
0.981748 0.937481 0
1.1781 0.937481 0
0.981748 1.24998 0
1.1781 1.24998 0
1.1781 0.624981 0
1.37445 0.624981 0
1.1781 0.937481 0
1.37445 0.937481 0
1.37445 0.624981 0
1.5708 0.624981 0
1.37445 0.937481 0
1.5708 0.937481 0
1.1781 0.937481 0
1.37445 0.937481 0
1.1781 1.24998 0
1.37445 1.24998 0
1.37445 0.937481 0
1.5708 0.937481 0
1.37445 1.24998 0
1.5708 1.24998 0
0 1.24998 0
0.19635 1.24998 0
0 1.56248 0
0.19635 1.56248 0
0.19635 1.24998 0
0.392699 1.24998 0
0.19635 1.56248 0
0.392699 1.56248 0
0 1.56248 0
0.19635 1.56248 0
0 1.87498 0
0.19635 1.87498 0
0.19635 1.56248 0
0.392699 1.56248 0
0.19635 1.87498 0
0.392699 1.87498 0
0.392699 1.24998 0
0.589049 1.24998 0
0.392699 1.56248 0
0.589049 1.56248 0
0.589049 1.24998 0
0.785398 1.24998 0
0.589049 1.56248 0
0.785398 1.56248 0
0.392699 1.56248 0
0.589049 1.56248 0
0.392699 1.87498 0
0.589049 1.87498 0
0.589049 1.56248 0
0.785398 1.56248 0
0.589049 1.87498 0
0.785398 1.87498 0
0 1.87498 0
0.19635 1.87498 0
0 2.18748 0
0.19635 2.18748 0
0.19635 1.87498 0
0.392699 1.87498 0
0.19635 2.18748 0
0.392699 2.18748 0
0 2.18748 0
0.19635 2.18748 0
0 2.49998 0
0.19635 2.49998 0
0.19635 2.18748 0
0.392699 2.18748 0
0.19635 2.49998 0
0.392699 2.49998 0
0.392699 1.87498 0
0.589049 1.87498 0
0.392699 2.18748 0
0.589049 2.18748 0
0.589049 1.87498 0
0.785398 1.87498 0
0.589049 2.18748 0
0.785398 2.18748 0
0.392699 2.18748 0
0.589049 2.18748 0
0.392699 2.49998 0
0.589049 2.49998 0
0.589049 2.18748 0
0.785398 2.18748 0
0.589049 2.49998 0
0.785398 2.49998 0
0.785398 1.24998 0
0.981748 1.24998 0
0.785398 1.56248 0
0.981748 1.56248 0
0.981748 1.24998 0
1.1781 1.24998 0
0.981748 1.56248 0
1.1781 1.56248 0
0.785398 1.56248 0
0.981748 1.56248 0
0.785398 1.87498 0
0.981748 1.87498 0
0.981748 1.56248 0
1.1781 1.56248 0
0.981748 1.87498 0
1.1781 1.87498 0
1.1781 1.24998 0
1.37445 1.24998 0
1.1781 1.56248 0
1.37445 1.56248 0
1.37445 1.24998 0
1.5708 1.24998 0
1.37445 1.56248 0
1.5708 1.56248 0
1.1781 1.56248 0
1.37445 1.56248 0
1.1781 1.87498 0
1.37445 1.87498 0
1.37445 1.56248 0
1.5708 1.56248 0
1.37445 1.87498 0
1.5708 1.87498 0
0.785398 1.87498 0
0.981748 1.87498 0
0.785398 2.18748 0
0.981748 2.18748 0
0.981748 1.87498 0
1.1781 1.87498 0
0.981748 2.18748 0
1.1781 2.18748 0
0.785398 2.18748 0
0.981748 2.18748 0
0.785398 2.49998 0
0.981748 2.49998 0
0.981748 2.18748 0
1.1781 2.18748 0
0.981748 2.49998 0
1.1781 2.49998 0
1.1781 1.87498 0
1.37445 1.87498 0
1.1781 2.18748 0
1.37445 2.18748 0
1.37445 1.87498 0
1.5708 1.87498 0
1.37445 2.18748 0
1.5708 2.18748 0
1.1781 2.18748 0
1.37445 2.18748 0
1.1781 2.49998 0
1.37445 2.49998 0
1.37445 2.18748 0
1.5708 2.18748 0
1.37445 2.49998 0
1.5708 2.49998 0
1.5708 0 0
1.76715 0 0
1.5708 0.31248 0
1.76715 0.31248 0
1.76715 0 0
1.9635 0 0
1.76715 0.31248 0
1.9635 0.31248 0
1.5708 0.31248 0
1.76715 0.31248 0
1.5708 0.624981 0
1.76715 0.624981 0
1.76715 0.31248 0
1.9635 0.31248 0
1.76715 0.624981 0
1.9635 0.624981 0
1.9635 0 0
2.15984 0 0
1.9635 0.31248 0
2.15984 0.31248 0
2.15984 0 0
2.35619 0 0
2.15984 0.31248 0
2.35619 0.31248 0
1.9635 0.31248 0
2.15984 0.31248 0
1.9635 0.624981 0
2.15984 0.624981 0
2.15984 0.31248 0
2.35619 0.31248 0
2.15984 0.624981 0
2.35619 0.624981 0
1.5708 0.624981 0
1.76715 0.624981 0
1.5708 0.937481 0
1.76715 0.937481 0
1.76715 0.624981 0
1.9635 0.624981 0
1.76715 0.937481 0
1.9635 0.937481 0
1.5708 0.937481 0
1.76715 0.937481 0
1.5708 1.24998 0
1.76715 1.24998 0
1.76715 0.937481 0
1.9635 0.937481 0
1.76715 1.24998 0
1.9635 1.24998 0
1.9635 0.624981 0
2.15984 0.624981 0
1.9635 0.937481 0
2.15984 0.937481 0
2.15984 0.624981 0
2.35619 0.624981 0
2.15984 0.937481 0
2.35619 0.937481 0
1.9635 0.937481 0
2.15984 0.937481 0
1.9635 1.24998 0
2.15984 1.24998 0
2.15984 0.937481 0
2.35619 0.937481 0
2.15984 1.24998 0
2.35619 1.24998 0
2.35619 0 0
2.55254 0 0
2.35619 0.31248 0
2.55254 0.31248 0
2.55254 0 0
2.74889 0 0
2.55254 0.31248 0
2.74889 0.31248 0
2.35619 0.31248 0
2.55254 0.31248 0
2.35619 0.624981 0
2.55254 0.624981 0
2.55254 0.31248 0
2.74889 0.31248 0
2.55254 0.624981 0
2.74889 0.624981 0
2.74889 0 0
2.94524 0 0
2.74889 0.31248 0
2.94524 0.31248 0
2.94524 0 0
3.14159 0 0
2.94524 0.31248 0
3.14159 0.31248 0
2.74889 0.31248 0
2.94524 0.31248 0
2.74889 0.624981 0
2.94524 0.624981 0
2.94524 0.31248 0
3.14159 0.31248 0
2.94524 0.624981 0
3.14159 0.624981 0
2.35619 0.624981 0
2.55254 0.624981 0
2.35619 0.937481 0
2.55254 0.937481 0
2.55254 0.624981 0
2.74889 0.624981 0
2.55254 0.937481 0
2.74889 0.937481 0
2.35619 0.937481 0
2.55254 0.937481 0
2.35619 1.24998 0
2.55254 1.24998 0
2.55254 0.937481 0
2.74889 0.937481 0
2.55254 1.24998 0
2.74889 1.24998 0
2.74889 0.624981 0
2.94524 0.624981 0
2.74889 0.937481 0
2.94524 0.937481 0
2.94524 0.624981 0
3.14159 0.624981 0
2.94524 0.937481 0
3.14159 0.937481 0
2.74889 0.937481 0
2.94524 0.937481 0
2.74889 1.24998 0
2.94524 1.24998 0
2.94524 0.937481 0
3.14159 0.937481 0
2.94524 1.24998 0
3.14159 1.24998 0
1.5708 1.24998 0
1.76715 1.24998 0
1.5708 1.56248 0
1.76715 1.56248 0
1.76715 1.24998 0
1.9635 1.24998 0
1.76715 1.56248 0
1.9635 1.56248 0
1.5708 1.56248 0
1.76715 1.56248 0
1.5708 1.87498 0
1.76715 1.87498 0
1.76715 1.56248 0
1.9635 1.56248 0
1.76715 1.87498 0
1.9635 1.87498 0
1.9635 1.24998 0
2.15984 1.24998 0
1.9635 1.56248 0
2.15984 1.56248 0
2.15984 1.24998 0
2.35619 1.24998 0
2.15984 1.56248 0
2.35619 1.56248 0
1.9635 1.56248 0
2.15984 1.56248 0
1.9635 1.87498 0
2.15984 1.87498 0
2.15984 1.56248 0
2.35619 1.56248 0
2.15984 1.87498 0
2.35619 1.87498 0
1.5708 1.87498 0
1.76715 1.87498 0
1.5708 2.18748 0
1.76715 2.18748 0
1.76715 1.87498 0
1.9635 1.87498 0
1.76715 2.18748 0
1.9635 2.18748 0
1.5708 2.18748 0
1.76715 2.18748 0
1.5708 2.49998 0
1.76715 2.49998 0
1.76715 2.18748 0
1.9635 2.18748 0
1.76715 2.49998 0
1.9635 2.49998 0
1.9635 1.87498 0
2.15984 1.87498 0
1.9635 2.18748 0
2.15984 2.18748 0
2.15984 1.87498 0
2.35619 1.87498 0
2.15984 2.18748 0
2.35619 2.18748 0
1.9635 2.18748 0
2.15984 2.18748 0
1.9635 2.49998 0
2.15984 2.49998 0
2.15984 2.18748 0
2.35619 2.18748 0
2.15984 2.49998 0
2.35619 2.49998 0
2.35619 1.24998 0
2.55254 1.24998 0
2.35619 1.56248 0
2.55254 1.56248 0
2.55254 1.24998 0
2.74889 1.24998 0
2.55254 1.56248 0
2.74889 1.56248 0
2.35619 1.56248 0
2.55254 1.56248 0
2.35619 1.87498 0
2.55254 1.87498 0
2.55254 1.56248 0
2.74889 1.56248 0
2.55254 1.87498 0
2.74889 1.87498 0
2.74889 1.24998 0
2.94524 1.24998 0
2.74889 1.56248 0
2.94524 1.56248 0
2.94524 1.24998 0
3.14159 1.24998 0
2.94524 1.56248 0
3.14159 1.56248 0
2.74889 1.56248 0
2.94524 1.56248 0
2.74889 1.87498 0
2.94524 1.87498 0
2.94524 1.56248 0
3.14159 1.56248 0
2.94524 1.87498 0
3.14159 1.87498 0
2.35619 1.87498 0
2.55254 1.87498 0
2.35619 2.18748 0
2.55254 2.18748 0
2.55254 1.87498 0
2.74889 1.87498 0
2.55254 2.18748 0
2.74889 2.18748 0
2.35619 2.18748 0
2.55254 2.18748 0
2.35619 2.49998 0
2.55254 2.49998 0
2.55254 2.18748 0
2.74889 2.18748 0
2.55254 2.49998 0
2.74889 2.49998 0
2.74889 1.87498 0
2.94524 1.87498 0
2.74889 2.18748 0
2.94524 2.18748 0
2.94524 1.87498 0
3.14159 1.87498 0
2.94524 2.18748 0
3.14159 2.18748 0
2.74889 2.18748 0
2.94524 2.18748 0
2.74889 2.49998 0
2.94524 2.49998 0
2.94524 2.18748 0
3.14159 2.18748 0
2.94524 2.49998 0
3.14159 2.49998 0
0 2.49998 0
0.19635 2.49998 0
0 2.81249 0
0.19635 2.81249 0
0.19635 2.49998 0
0.392699 2.49998 0
0.19635 2.81249 0
0.392699 2.81249 0
0 2.81249 0
0.19635 2.81249 0
0 3.12499 0
0.19635 3.12499 0
0.19635 2.81249 0
0.392699 2.81249 0
0.19635 3.12499 0
0.392699 3.12499 0
0.392699 2.49998 0
0.589049 2.49998 0
0.392699 2.81249 0
0.589049 2.81249 0
0.589049 2.49998 0
0.785398 2.49998 0
0.589049 2.81249 0
0.785398 2.81249 0
0.392699 2.81249 0
0.589049 2.81249 0
0.392699 3.12499 0
0.589049 3.12499 0
0.589049 2.81249 0
0.785398 2.81249 0
0.589049 3.12499 0
0.785398 3.12499 0
0 3.12499 0
0.19635 3.12499 0
0 3.43749 0
0.19635 3.43749 0
0.19635 3.12499 0
0.392699 3.12499 0
0.19635 3.43749 0
0.392699 3.43749 0
0 3.43749 0
0.19635 3.43749 0
0 3.74999 0
[...]
POINT_DATA 20480
VECTORS uf double
0 1 0
1.31457e-15 1 0
0 1.00001 0
1.05092e-14 1.00001 0
1.31457e-15 1 0
-8.23761e-15 1 0
1.05092e-14 1.00001 0
2.55485e-14 1.00001 0
0 1.00001 0
6.03377e-15 1.00001 0
0 1 0
-2.72623e-14 1 0
6.03377e-15 1.00001 0
-1.33418e-14 1.00001 0
-2.72623e-14 1 0
-4.17506e-15 1 0
-8.23761e-15 1 0
-2.92316e-14 1 0
2.55485e-14 1.00001 0
4.37765e-14 1.00001 0
-2.92316e-14 1 0
-4.16582e-14 1 0
4.37765e-14 1.00001 0
4.76134e-14 1.00001 0
-1.33418e-14 1.00001 0
-4.45227e-14 1.00001 0
-4.17506e-15 1 0
5.61695e-14 1 0
-4.45227e-14 1.00001 0
-2.89095e-14 1.00001 0
5.61695e-14 1 0
4.12433e-14 1 0
0 1 0
1.39791e-14 1 0
0 1 0
-5.03658e-15 1 0
1.39791e-14 1 0
-9.08989e-16 1 0
-5.03658e-15 1 0
1.84495e-15 1 0
0 1 0
1.38122e-14 1 0
0 1 0
-1.72239e-14 1 0
1.38122e-14 1 0
1.51631e-15 1 0
-1.72239e-14 1 0
2.58563e-15 1 0
-9.08989e-16 1 0
-4.51056e-14 1 0
1.84495e-15 1 0
3.00328e-14 1 0
-4.51056e-14 1 0
-5.13254e-14 1 0
3.00328e-14 1 0
5.88501e-14 1 0
1.51631e-15 1 0
-4.0624e-14 1 0
2.58563e-15 1 0
5.79532e-14 1 0
-4.0624e-14 1 0
-7.04905e-14 1 0
5.79532e-14 1 0
7.84802e-14 1 0
-4.16582e-14 1 0
-3.43638e-14 1 0
4.76134e-14 1.00001 0
3.79343e-14 1.00001 0
-3.43638e-14 1 0
-3.4946e-14 1 0
3.79343e-14 1.00001 0
5.41178e-14 1.00001 0
-2.89095e-14 1.00001 0
-1.0276e-14 1.00001 0
4.12433e-14 1 0
4.90021e-15 1 0
-1.0276e-14 1.00001 0
-5.69517e-14 1.00001 0
4.90021e-15 1 0
5.60225e-14 1 0
-3.4946e-14 1 0
-3.99175e-14 1 0
5.41178e-14 1.00001 0
6.33277e-14 1.00001 0
-3.99175e-14 1 0
-4.16359e-14 1 0
6.33277e-14 1.00001 0
5.84013e-14 1.00001 0
-5.69517e-14 1.00001 0
-5.50798e-14 1.00001 0
5.60225e-14 1 0
4.66356e-14 1 0
-5.50798e-14 1.00001 0
-3.53218e-14 1.00001 0
4.66356e-14 1 0
2.89713e-14 1 0
-5.13254e-14 1 0
-2.39876e-15 1 0
5.88501e-14 1 0
1.78827e-14 1 0
-2.39876e-15 1 0
-5.9001e-14 1 0
1.78827e-14 1 0
5.99902e-14 1 0
-7.04905e-14 1 0
-3.93958e-14 1 0
7.84802e-14 1 0
5.15498e-14 1 0
-3.93958e-14 1 0
-5.39621e-14 1 0
5.15498e-14 1 0
6.46446e-14 1 0
-5.9001e-14 1 0
-5.01328e-14 1 0
5.99902e-14 1 0
5.81807e-14 1 0
-5.01328e-14 1 0
-4.59078e-14 1 0
5.81807e-14 1 0
6.12678e-14 1 0
-5.39621e-14 1 0
-4.69358e-14 1 0
6.46446e-14 1 0
4.98701e-14 1 0
-4.69358e-14 1 0
-5.36189e-14 1 0
4.98701e-14 1 0
5.46683e-14 1 0
0 1 0
2.1263e-14 1 0
0 1 0
-2.10283e-14 1 0
2.1263e-14 1 0
-1.89747e-15 1 0
-2.10283e-14 1 0
6.18389e-16 1 0
0 1 0
2.13793e-14 1 0
0 1 0
-2.11079e-14 1 0
2.13793e-14 1 0
-6.85595e-15 1 0
-2.11079e-14 1 0
2.99442e-15 1 0
-1.89747e-15 1 0
-8.38991e-14 1 0
6.18389e-16 1 0
7.99967e-14 1 0
-8.38991e-14 1 0
-8.831e-14 1 0
7.99967e-14 1 0
8.26444e-14 1 0
-6.85595e-15 1 0
-6.23093e-14 1 0
2.99442e-15 1 0
5.43474e-14 1 0
-6.23093e-14 1 0
-7.72519e-14 1 0
5.43474e-14 1 0
7.77954e-14 1 0
0 1 0
1.33435e-14 1 0
0 1 0
-1.16071e-14 1 0
1.33435e-14 1 0
1.67974e-15 1 0
-1.16071e-14 1 0
3.25612e-15 1 0
0 1 0
8.83071e-15 1 0
0 1 0
-1.52692e-14 1 0
8.83071e-15 1 0
-1.4023e-14 1 0
-1.52692e-14 1 0
1.24666e-14 1 0
1.67974e-15 1 0
-5.99333e-14 1 0
3.25612e-15 1 0
6.01202e-14 1 0
-5.99333e-14 1 0
-6.46482e-14 1 0
6.01202e-14 1 0
5.63425e-14 1 0
-1.4023e-14 1 0
-4.01646e-14 1 0
1.24666e-14 1 0
3.39127e-14 1 0
-4.01646e-14 1 0
-5.13066e-14 1 0
3.39127e-14 1 0
4.80269e-14 1 0
-8.831e-14 1 0
-5.84883e-14 1 0
8.26444e-14 1 0
4.64753e-14 1 0
-5.84883e-14 1 0
-6.61478e-14 1 0
4.64753e-14 1 0
6.29097e-14 1 0
-7.72519e-14 1 0
-4.93403e-14 1 0
7.77954e-14 1 0
6.52076e-14 1 0
-4.93403e-14 1 0
-5.55217e-14 1 0
6.52076e-14 1 0
5.57203e-14 1 0
-6.61478e-14 1 0
-5.74144e-14 1 0
6.29097e-14 1 0
5.55115e-14 1 0
-5.74144e-14 1 0
-5.24918e-14 1 0
5.55115e-14 1 0
5.32817e-14 1 0
-5.55217e-14 1 0
-4.83446e-14 1 0
5.57203e-14 1 0
5.59549e-14 1 0
-4.83446e-14 1 0
-5.11672e-14 1 0
5.59549e-14 1 0
5.46699e-14 1 0
-6.46482e-14 1 0
-5.03236e-14 1 0
5.63425e-14 1 0
3.98245e-14 1 0
-5.03236e-14 1 0
-4.10515e-14 1 0
3.98245e-14 1 0
3.32378e-14 1 0
-5.13066e-14 1 0
-4.69948e-14 1 0
4.80269e-14 1 0
4.45899e-14 1 0
-4.69948e-14 1 0
-4.52381e-14 1 0
4.45899e-14 1 0
4.81132e-14 1 0
-4.10515e-14 1 0
-5.22937e-14 1 0
3.32378e-14 1 0
4.98336e-14 1 0
-5.22937e-14 1 0
-4.42258e-14 1 0
4.98336e-14 1 0
3.95378e-14 1 0
-4.52381e-14 1 0
-4.79264e-14 1 0
4.81132e-14 1 0
4.84005e-14 1 0
-4.79264e-14 1 0
-3.92977e-14 1 0
4.84005e-14 1 0
4.76851e-14 1 0
-4.16359e-14 1 0
-5.25748e-14 1 0
5.84013e-14 1.00001 0
7.48646e-14 1.00001 0
-5.25748e-14 1 0
-5.29795e-14 1 0
7.48646e-14 1.00001 0
7.6961e-14 1.00001 0
-3.53218e-14 1.00001 0
-7.1844e-14 1.00001 0
2.89713e-14 1 0
6.45029e-14 1 0
-7.1844e-14 1.00001 0
-6.83913e-14 1.00001 0
6.45029e-14 1 0
6.87259e-14 1 0
-5.29795e-14 1 0
-4.18882e-14 1 0
7.6961e-14 1.00001 0
6.37683e-14 1.00001 0
-4.18882e-14 1 0
-4.55428e-14 1 0
6.37683e-14 1.00001 0
6.06623e-14 1.00001 0
-6.83913e-14 1.00001 0
-5.35929e-14 1.00001 0
6.87259e-14 1 0
4.2229e-14 1 0
-5.35929e-14 1.00001 0
-6.04172e-14 1.00001 0
4.2229e-14 1 0
5.77501e-14 1 0
-4.59078e-14 1 0
-5.465e-14 1 0
6.12678e-14 1 0
7.02891e-14 1 0
-5.465e-14 1 0
-7.03201e-14 1 0
7.02891e-14 1 0
6.72834e-14 1 0
-5.36189e-14 1 0
-5.91004e-14 1 0
5.46683e-14 1 0
6.02384e-14 1 0
-5.91004e-14 1 0
-5.01767e-14 1 0
6.02384e-14 1 0
6.18753e-14 1 0
-7.03201e-14 1 0
-5.42926e-14 1 0
6.72834e-14 1 0
6.59356e-14 1 0
-5.42926e-14 1 0
-5.63635e-14 1 0
6.59356e-14 1 0
7.8047e-14 1 0
-5.01767e-14 1 0
-4.84589e-14 1 0
6.18753e-14 1 0
5.62015e-14 1 0
-4.84589e-14 1 0
-6.66269e-14 1 0
5.62015e-14 1 0
7.31384e-14 1 0
-4.55428e-14 1 0
-4.30518e-14 1 0
6.06623e-14 1.00001 0
6.37619e-14 1.00001 0
-4.30518e-14 1 0
-4.5898e-14 1 0
6.37619e-14 1.00001 0
7.00385e-14 1.00001 0
-6.04172e-14 1.00001 0
-5.8412e-14 1.00001 0
5.77501e-14 1 0
6.22815e-14 1 0
-5.8412e-14 1.00001 0
-5.48393e-14 1.00001 0
6.22815e-14 1 0
5.28285e-14 1 0
-4.5898e-14 1 0
-5.38539e-14 1 0
7.00385e-14 1.00001 0
8.74391e-14 1.00001 0
-5.38539e-14 1 0
-2.30839e-14 1 0
8.74391e-14 1.00001 0
3.95444e-14 1.00001 0
-5.48393e-14 1.00001 0
-7.04006e-14 1.00001 0
5.28285e-14 1 0
6.30383e-14 1 0
-7.04006e-14 1.00001 0
-3.21709e-14 1.00001 0
6.30383e-14 1 0
3.61585e-14 1 0
-5.63635e-14 1 0
-7.04453e-14 1 0
7.8047e-14 1 0
8.26361e-14 1 0
-7.04453e-14 1 0
-6.30224e-14 1 0
8.26361e-14 1 0
7.2818e-14 1 0
-6.66269e-14 1 0
-5.26137e-14 1 0
7.31384e-14 1 0
5.46782e-14 1 0
-5.26137e-14 1 0
-4.32615e-14 1 0
5.46782e-14 1 0
3.91419e-14 1 0
-6.30224e-14 1 0
-7.45643e-14 1 0
7.2818e-14 1 0
7.97729e-14 1 0
-7.45643e-14 1 0
-5.5655e-14 1 0
7.97729e-14 1 0
7.25967e-14 1 0
-4.32615e-14 1 0
-5.29846e-14 1 0
3.91419e-14 1 0
5.06839e-14 1 0
-5.29846e-14 1 0
-5.96694e-14 1 0
5.06839e-14 1 0
6.30169e-14 1 0
-5.24918e-14 1 0
-6.12622e-14 1 0
5.32817e-14 1 0
6.39015e-14 1 0
-6.12622e-14 1 0
-5.47273e-14 1 0
6.39015e-14 1 0
5.2893e-14 1 0
-5.11672e-14 1 0
-6.08238e-14 1 0
5.46699e-14 1 0
6.44144e-14 1 0
-6.08238e-14 1 0
-5.01526e-14 1 0
6.44144e-14 1 0
5.07775e-14 1 0
-5.47273e-14 1 0
-4.57808e-14 1 0
5.2893e-14 1 0
5.25366e-14 1 0
-4.57808e-14 1 0
-5.97571e-14 1 0
5.25366e-14 1 0
5.33993e-14 1 0
-5.01526e-14 1 0
-6.61332e-14 1 0
5.07775e-14 1 0
6.23675e-14 1 0
-6.61332e-14 1 0
-5.25225e-14 1 0
6.23675e-14 1 0
6.39908e-14 1 0
-4.42258e-14 1 0
-5.01774e-14 1 0
3.95378e-14 1 0
4.34281e-14 1 0
-5.01774e-14 1 0
-4.01877e-14 1 0
4.34281e-14 1 0
4.63947e-14 1 0
-3.92977e-14 1 0
-4.27814e-14 1 0
4.76851e-14 1 0
4.72777e-14 1 0
-4.27814e-14 1 0
-4.71591e-14 1 0
4.72777e-14 1 0
4.77511e-14 1 0
-4.01877e-14 1 0
-3.47553e-14 1 0
4.63947e-14 1 0
3.66153e-14 1 0
-3.47553e-14 1 0
-5.19814e-14 1 0
3.66153e-14 1 0
4.93513e-14 1 0
-4.71591e-14 1 0
-3.98263e-14 1 0
4.77511e-14 1 0
4.57907e-14 1 0
-3.98263e-14 1 0
-4.3158e-14 1 0
4.57907e-14 1 0
4.6684e-14 1 0
-5.97571e-14 1 0
-4.15514e-14 1 0
5.33993e-14 1 0
3.48215e-14 1 0
-4.15514e-14 1 0
-2.93555e-14 1 0
3.48215e-14 1 0
4.51442e-14 1 0
-5.25225e-14 1 0
-5.10872e-14 1 0
6.39908e-14 1 0
6.94649e-14 1 0
-5.10872e-14 1 0
-6.47221e-14 1 0
6.94649e-14 1 0
6.51375e-14 1 0
-2.93555e-14 1 0
-1.2948e-14 1 0
4.51442e-14 1 0
2.13775e-14 1 0
-1.2948e-14 1 0
-4.77951e-14 1 0
2.13775e-14 1 0
5.44395e-14 1 0
-6.47221e-14 1 0
-4.59871e-14 1 0
6.51375e-14 1 0
5.02364e-14 1 0
-4.59871e-14 1 0
-6.34031e-14 1 0
5.02364e-14 1 0
6.90165e-14 1 0
-5.19814e-14 1 0
-5.5523e-14 1 0
4.93513e-14 1 0
5.35357e-14 1 0
-5.5523e-14 1 0
-4.35717e-14 1 0
5.35357e-14 1 0
4.66839e-14 1 0
-4.3158e-14 1 0
-5.11701e-14 1 0
4.6684e-14 1 0
5.40263e-14 1 0
-5.11701e-14 1 0
-4.48032e-14 1 0
5.40263e-14 1 0
4.45071e-14 1 0
-4.35717e-14 1 0
-3.87661e-14 1 0
4.66839e-14 1 0
3.90516e-14 1 0
-3.87661e-14 1 0
-5.58562e-14 1 0
3.90516e-14 1 0
4.7086e-14 1 0
-4.48032e-14 1 0
-9.06538e-15 1 0
4.45071e-14 1 0
3.24035e-15 1 0
-9.06538e-15 1 0
-2.61713e-14 1 0
3.24035e-15 1 0
3.17297e-14 1 0
0 1 0
1.98777e-14 1 0
0 1 0
-1.07479e-14 1 0
1.98777e-14 1 0
-1.30051e-14 1 0
-1.07479e-14 1 0
1.93925e-14 1 0
0 1 0
5.76356e-15 1 0
0 1 0
-2.92704e-15 1 0
5.76356e-15 1 0
-1.48174e-14 1 0
-2.92704e-15 1 0
1.49382e-14 1 0
-1.30051e-14 1 0
-3.2674e-14 1 0
1.93925e-14 1 0
4.10215e-14 1 0
-3.2674e-14 1 0
-4.20078e-14 1 0
4.10215e-14 1 0
4.56882e-14 1 0
-1.48174e-14 1 0
-4.17649e-14 1 0
1.49382e-14 1 0
4.36514e-14 1 0
-4.17649e-14 1 0
-4.37893e-14 1 0
4.36514e-14 1 0
5.48939e-14 1 0
0 1 0
-4.60154e-15 1 0
0 1 0
9.82559e-17 1 0
-4.60154e-15 1 0
-1.27619e-14 1 0
9.82559e-17 1 0
1.14832e-14 1 0
0 1 0
1.66595e-15 1 0
0 1 0
-1.5411e-15 1 0
1.66595e-15 1 0
-1.74396e-14 1 0
-1.5411e-15 1 0
1.45384e-14 1 0
-1.27619e-14 1 0
-4.0809e-14 1 0
1.14832e-14 1 0
4.6147e-14 1 0
-4.0809e-14 1 0
-5.80169e-14 1 0
4.6147e-14 1 0
5.76389e-14 1 0
-1.74396e-14 1 0
-4.82787e-14 1 0
1.45384e-14 1 0
4.04431e-14 1 0
-4.82787e-14 1 0
-5.41913e-14 1 0
4.04431e-14 1 0
5.14036e-14 1 0
-4.20078e-14 1 0
-2.87412e-14 1 0
4.56882e-14 1 0
2.99853e-14 1 0
-2.87412e-14 1 0
-3.13088e-14 1 0
2.99853e-14 1 0
3.9858e-14 1 0
-4.37893e-14 1 0
-3.42646e-14 1 0
5.48939e-14 1 0
4.88441e-14 1 0
-3.42646e-14 1 0
-4.83029e-14 1 0
4.88441e-14 1 0
4.78431e-14 1 0
-3.13088e-14 1 0
-3.85769e-14 1 0
3.9858e-14 1 0
3.94972e-14 1 0
-3.85769e-14 1 0
-3.68139e-14 1 0
3.94972e-14 1 0
3.49911e-14 1 0
-4.83029e-14 1 0
-3.84706e-14 1 0
4.78431e-14 1 0
3.97948e-14 1 0
-3.84706e-14 1 0
-3.59167e-14 1 0
3.97948e-14 1 0
3.92321e-14 1 0
-5.80169e-14 1 0
-5.18384e-14 1 0
5.76389e-14 1 0
5.09615e-14 1 0
-5.18384e-14 1 0
-2.94532e-14 1 0
5.09615e-14 1 0
2.92568e-14 1 0
-5.41913e-14 1 0
-5.41238e-14 1 0
5.14036e-14 1 0
5.40036e-14 1 0
-5.41238e-14 1 0
-4.24371e-14 1 0
5.40036e-14 1 0
4.64315e-14 1 0
-2.94532e-14 1 0
-2.71512e-14 1 0
2.92568e-14 1 0
3.27625e-14 1 0
-2.71512e-14 1 0
-3.25024e-14 1 0
3.27625e-14 1 0
3.47613e-14 1 0
-4.24371e-14 1 0
-4.51938e-14 1 0
4.64315e-14 1 0
4.87483e-14 1 0
-4.51938e-14 1 0
-4.44889e-14 1 0
4.87483e-14 1 0
4.68262e-14 1 0
0 1 0
8.04117e-15 1 0
0 1 0
-5.06569e-15 1 0
8.04117e-15 1 0
8.41002e-16 1 0
-5.06569e-15 1 0
4.40195e-15 1 0
0 1 0
7.28968e-15 1 0
0 1 0
-4.99252e-15 1 0
7.28968e-15 1 0
-1.06827e-14 1 0
-4.99252e-15 1 0
1.65041e-14 1 0
8.41002e-16 1 0
-2.12735e-14 1 0
4.40195e-15 1 0
2.3812e-14 1 0
-2.12735e-14 1 0
-3.83285e-14 1 0
2.3812e-14 1 0
3.93644e-14 1 0
-1.06827e-14 1 0
-2.90105e-14 1 0
1.65041e-14 1 0
3.25625e-14 1 0
-2.90105e-14 1 0
-4.81255e-14 1 0
3.25625e-14 1 0
4.54695e-14 1 0
0 1 0
3.74213e-15 1 0
0 1 0
-7.94622e-15 1 0
3.74213e-15 1 0
-1.88803e-14 1 0
-7.94622e-15 1 0
1.48175e-14 1 0
0 1 0
9.98926e-15 1 0
0 1 0
-6.58173e-15 1 0
9.98926e-15 1 0
-6.46973e-15 1 0
-6.58173e-15 1 0
7.54444e-15 1 0
-1.88803e-14 1 0
-3.64159e-14 1 0
1.48175e-14 1 0
3.52895e-14 1 0
-3.64159e-14 1 0
-3.6971e-14 1 0
3.52895e-14 1 0
4.17857e-14 1 0
-6.46973e-15 1 0
-3.27383e-14 1 0
7.54444e-15 1 0
3.47118e-14 1 0
-3.27383e-14 1 0
-3.67905e-14 1 0
3.47118e-14 1 0
3.27026e-14 1 0
-3.83285e-14 1 0
-5.44832e-14 1 0
3.93644e-14 1 0
5.44977e-14 1 0
-5.44832e-14 1 0
-5.28218e-14 1 0
5.44977e-14 1 0
5.20693e-14 1 0
-4.81255e-14 1 0
-4.02079e-14 1 0
4.54695e-14 1 0
3.43332e-14 1 0
-4.02079e-14 1 0
-4.2173e-14 1 0
3.43332e-14 1 0
4.03648e-14 1 0
-5.28218e-14 1 0
-5.69064e-14 1 0
5.20693e-14 1 0
5.70491e-14 1 0
-5.69064e-14 1 0
-5.38513e-14 1 0
5.70491e-14 1 0
5.9942e-14 1 0
-4.2173e-14 1 0
-3.91461e-14 1 0
4.03648e-14 1 0
3.69871e-14 1 0
-3.91461e-14 1 0
-4.72484e-14 1 0
3.69871e-14 1 0
4.3051e-14 1 0
-3.6971e-14 1 0
-2.71225e-14 1 0
4.17857e-14 1 0
3.3203e-14 1 0
-2.71225e-14 1 0
-2.61268e-14 1 0
3.3203e-14 1 0
2.68397e-14 1 0
-3.67905e-14 1 0
-4.28247e-14 1 0
3.27026e-14 1 0
4.55415e-14 1 0
-4.28247e-14 1 0
-3.92255e-14 1 0
4.55415e-14 1 0
4.16963e-14 1 0
-2.61268e-14 1 0
-3.15061e-14 1 0
2.68397e-14 1 0
3.47426e-14 1 0
-3.15061e-14 1 0
-2.79195e-14 1 0
3.47426e-14 1 0
2.73567e-14 1 0
-3.92255e-14 1 0
-4.74713e-14 1 0
4.16963e-14 1 0
4.31265e-14 1 0
-4.74713e-14 1 0
-4.58981e-14 1 0
4.31265e-14 1 0
4.76333e-14 1 0
-3.68139e-14 1 0
-3.6285e-14 1 0
3.49911e-14 1 0
4.44179e-14 1 0
-3.6285e-14 1 0
-3.94404e-14 1 0
4.44179e-14 1 0
4.673e-14 1 0
-3.59167e-14 1 0
-5.01598e-14 1 0
3.92321e-14 1 0
4.93744e-14 1 0
-5.01598e-14 1 0
-4.40869e-14 1 0
4.93744e-14 1 0
4.68925e-14 1 0
-3.94404e-14 1 0
-3.13325e-14 1 0
4.673e-14 1 0
2.98637e-14 1 0
-3.13325e-14 1 0
-3.37209e-14 1 0
2.98637e-14 1 0
3.05184e-14 1 0
-4.40869e-14 1 0
-4.12607e-14 1 0
4.68925e-14 1 0
5.39072e-14 1 0
-4.12607e-14 1 0
-3.3638e-14 1 0
5.39072e-14 1 0
3.72812e-14 1 0
-3.25024e-14 1 0
-3.33668e-14 1 0
3.47613e-14 1 0
3.61383e-14 1 0
-3.33668e-14 1 0
-3.64955e-14 1 0
3.61383e-14 1 0
3.69191e-14 1 0
-4.44889e-14 1 0
-4.9754e-14 1 0
4.68262e-14 1 0
4.81954e-14 1 0
-4.9754e-14 1 0
-4.236e-14 1 0
4.81954e-14 1 0
4.19099e-14 1 0
-3.64955e-14 1 0
-3.92782e-14 1 0
3.69191e-14 1 0
3.83945e-14 1 0
-3.92782e-14 1 0
-3.04595e-14 1 0
3.83945e-14 1 0
3.62402e-14 1 0
-4.236e-14 1 0
-4.79419e-14 1 0
4.19099e-14 1 0
4.7191e-14 1 0
-4.79419e-14 1 0
-4.42084e-14 1 0
4.7191e-14 1 0
4.7403e-14 1 0
-3.37209e-14 1 0
-3.11928e-14 1 0
3.05184e-14 1 0
2.80113e-14 1 0
-3.11928e-14 1 0
-2.73405e-14 1 0
2.80113e-14 1 0
3.82728e-14 1 0
-3.3638e-14 1 0
-3.5406e-14 1 0
3.72812e-14 1 0
3.85783e-14 1 0
-3.5406e-14 1 0
-3.86886e-14 1 0
3.85783e-14 1 0
3.84976e-14 1 0
-2.73405e-14 1 0
7.31876e-15 1 0
3.82728e-14 1 0
1.84941e-15 1 0
7.31876e-15 1 0
-2.69782e-14 1 0
1.84941e-15 1 0
3.51966e-14 1 0
-3.86886e-14 1 0
-1.43753e-14 1 0
3.84976e-14 1 0
2.3704e-14 1 0
-1.43753e-14 1 0
-4.39313e-14 1 0
2.3704e-14 1 0
4.65755e-14 1 0
-3.04595e-14 1 0
-2.52087e-14 1 0
3.62402e-14 1 0
2.63179e-14 1 0
-2.52087e-14 1 0
-2.45757e-14 1 0
2.63179e-14 1 0
3.1669e-14 1 0
-4.42084e-14 1 0
-2.48284e-14 1 0
4.7403e-14 1 0
2.90774e-14 1 0
-2.48284e-14 1 0
-4.35167e-14 1 0
2.90774e-14 1 0
4.1489e-14 1 0
-2.45757e-14 1 0
-2.60437e-14 1 0
3.1669e-14 1 0
3.00455e-14 1 0
-2.60437e-14 1 0
-3.28601e-14 1 0
3.00455e-14 1 0
3.67356e-14 1 0
-4.35167e-14 1 0
-9.20476e-15 1 0
4.1489e-14 1 0
3.77537e-15 1 0
-9.20476e-15 1 0
-3.41344e-14 1 0
3.77537e-15 1 0
3.75874e-14 1 0
-5.38513e-14 1 0
-4.95764e-14 1 0
5.9942e-14 1 0
5.66001e-14 1 0
-4.95764e-14 1 0
-4.8617e-14 1 0
5.66001e-14 1 0
5.20929e-14 1 0
-4.72484e-14 1 0
-4.3065e-14 1 0
4.3051e-14 1 0
3.70287e-14 1 0
-4.3065e-14 1 0
-4.20616e-14 1 0
3.70287e-14 1 0
4.33398e-14 1 0
-4.8617e-14 1 0
-5.49315e-14 1 0
5.20929e-14 1 0
6.03686e-14 1 0
-5.49315e-14 1 0
-5.14428e-14 1 0
6.03686e-14 1 0
5.96166e-14 1 0
-4.20616e-14 1 0
-4.26842e-14 1 0
4.33398e-14 1 0
4.27199e-14 1 0
-4.26842e-14 1 0
-5.12725e-14 1 0
4.27199e-14 1 0
5.19652e-14 1 0
-2.79195e-14 1 0
-3.24161e-14 1 0
2.73567e-14 1 0
3.30302e-14 1 0
-3.24161e-14 1 0
-3.28092e-14 1 0
3.30302e-14 1 0
2.88085e-14 1 0
-4.58981e-14 1 0
-4.09397e-14 1 0
4.76333e-14 1 0
4.34797e-14 1 0
-4.09397e-14 1 0
-3.98849e-14 1 0
4.34797e-14 1 0
4.52683e-14 1 0
-3.28092e-14 1 0
-2.5296e-14 1 0
2.88085e-14 1 0
1.80634e-14 1 0
-2.5296e-14 1 0
-3.2524e-14 1 0
1.80634e-14 1 0
3.09156e-14 1 0
-3.98849e-14 1 0
-2.92311e-14 1 0
4.52683e-14 1 0
3.7326e-14 1 0
-2.92311e-14 1 0
-4.83487e-14 1 0
3.7326e-14 1 0
5.31412e-14 1 0
-5.14428e-14 1 0
-2.20813e-14 1 0
5.96166e-14 1 0
2.43158e-14 1 0
-2.20813e-14 1 0
-4.63474e-14 1 0
2.43158e-14 1 0
5.73198e-14 1 0
-5.12725e-14 1 0
-3.37443e-14 1 0
5.19652e-14 1 0
4.02594e-14 1 0
-3.37443e-14 1 0
-4.56502e-14 1 0
4.02594e-14 1 0
3.76416e-14 1 0
-4.63474e-14 1 0
9.2245e-16 1 0
5.73198e-14 1 0
1.38845e-14 1 0
9.2245e-16 1 0
-4.24587e-14 1 0
1.38845e-14 1 0
4.85229e-14 1 0
-4.56502e-14 1 0
-3.92161e-14 1 0
3.76416e-14 1 0
4.44157e-14 1 0
-3.92161e-14 1 0
-4.17952e-14 1 0
4.44157e-14 1 0
4.51855e-14 1 0
-3.2524e-14 1 0
-3.0273e-14 1 0
3.09156e-14 1 0
2.63999e-14 1 0
-3.0273e-14 1 0
-1.9456e-14 1 0
2.63999e-14 1 0
2.45353e-14 1 0
-4.83487e-14 1 0
-2.49787e-14 1 0
5.31412e-14 1 0
2.86502e-14 1 0
-2.49787e-14 1 0
-3.84525e-14 1 0
2.86502e-14 1 0
3.94979e-14 1 0
-1.9456e-14 1 0
-2.55363e-14 1 0
2.45353e-14 1 0
1.82716e-14 1 0
-2.55363e-14 1 0
-3.39302e-14 1 0
1.82716e-14 1 0
3.25709e-14 1 0
-3.84525e-14 1 0
-6.53079e-15 1 0
3.94979e-14 1 0
1.97462e-15 1 0
-6.53079e-15 1 0
-3.30196e-14 1 0
1.97462e-15 1 0
3.66453e-14 1 0
-2.30839e-14 1 0
-9.47039e-15 1 0
3.95444e-14 1.00001 0
1.21366e-14 1.00001 0
-9.47039e-15 1 0
-4.0542e-14 1 0
1.21366e-14 1.00001 0
6.22177e-14 1.00001 0
-3.21709e-14 1.00001 0
6.33029e-16 1.00001 0
3.61585e-14 1 0
9.92621e-15 1 0
6.33029e-16 1.00001 0
-4.81814e-14 1.00001 0
9.92621e-15 1 0
4.87635e-14 1 0
-4.0542e-14 1 0
-3.84766e-14 1 0
6.22177e-14 1.00001 0
5.47523e-14 1.00001 0
-3.84766e-14 1 0
-3.85468e-14 1 0
5.47523e-14 1.00001 0
7.46285e-14 1.00001 0
-4.81814e-14 1.00001 0
-3.78656e-14 1.00001 0
4.87635e-14 1 0
4.31683e-14 1 0
-3.78656e-14 1.00001 0
-9.40342e-14 1.00001 0
4.31683e-14 1 0
9.54196e-14 1 0
-5.5655e-14 1 0
-2.62062e-14 1 0
7.25967e-14 1 0
5.0551e-14 1 0
-2.62062e-14 1 0
-2.94117e-14 1 0
5.0551e-14 1 0
3.41825e-14 1 0
-5.96694e-14 1 0
-4.84514e-14 1 0
6.30169e-14 1 0
5.51627e-14 1 0
-4.84514e-14 1 0
-3.73442e-14 1 0
5.51627e-14 1 0
6.06774e-14 1 0
-2.94117e-14 1 0
-5.1071e-14 1 0
3.41825e-14 1 0
6.41609e-14 1 0
-5.1071e-14 1 0
-6.37218e-14 1 0
6.41609e-14 1 0
6.90651e-14 1 0
-3.73442e-14 1 0
-4.89609e-14 1 0
6.06774e-14 1 0
6.18524e-14 1 0
-4.89609e-14 1 0
-6.97188e-14 1 0
6.18524e-14 1 0
8.20056e-14 1 0
-3.85468e-14 1 0
-3.92076e-14 1 0
7.46285e-14 1.00001 0
4.44795e-14 1.00001 0
-3.92076e-14 1 0
-2.87194e-14 1 0
4.44795e-14 1.00001 0
3.30189e-14 1.00001 0
-9.40342e-14 1.00001 0
-1.55116e-14 1.00001 0
9.54196e-14 1 0
2.80501e-14 1 0
-1.55116e-14 1.00001 0
-5.98398e-15 1.00001 0
2.80501e-14 1 0
1.64332e-14 1 0
-2.87194e-14 1 0
-2.02529e-14 1 0
3.30189e-14 1.00001 0
2.84072e-14 1.00001 0
-2.02529e-14 1 0
-3.29195e-14 1 0
2.84072e-14 1.00001 0
4.28597e-14 1.00001 0
-5.98398e-15 1.00001 0
-2.31174e-14 1.00001 0
1.64332e-14 1 0
4.44059e-14 1 0
-2.31174e-14 1.00001 0
-4.68369e-14 1.00001 0
4.44059e-14 1 0
7.65766e-14 1 0
-6.37218e-14 1 0
-1.15444e-15 1 0
6.90651e-14 1 0
6.72817e-15 1 0
-1.15444e-15 1 0
-1.49941e-14 1 0
6.72817e-15 1 0
4.30003e-14 1 0
-6.97188e-14 1 0
7.12223e-15 1 0
8.20056e-14 1 0
3.5062e-15 1 0
7.12223e-15 1 0
-1.836e-14 1 0
3.5062e-15 1 0
1.88755e-14 1 0
-1.49941e-14 1 0
-3.34785e-14 1 0
4.30003e-14 1 0
4.68552e-14 1 0
-3.34785e-14 1 0
-4.77398e-14 1 0
4.68552e-14 1 0
5.2931e-14 1 0
-1.836e-14 1 0
-3.42458e-14 1 0
1.88755e-14 1 0
4.26127e-14 1 0
-3.42458e-14 1 0
-3.9761e-14 1 0
4.26127e-14 1 0
4.68215e-14 1 0
-4.77951e-14 1 0
-5.11297e-14 1 0
5.44395e-14 1 0
4.8768e-14 1 0
-5.11297e-14 1 0
-5.37454e-14 1 0
4.8768e-14 1 0
5.1595e-14 1 0
-6.34031e-14 1 0
-4.50955e-14 1 0
6.90165e-14 1 0
5.6123e-14 1 0
-4.50955e-14 1 0
-5.09854e-14 1 0
5.6123e-14 1 0
5.78129e-14 1 0
-5.37454e-14 1 0
-4.90088e-14 1 0
5.1595e-14 1 0
4.68381e-14 1 0
-4.90088e-14 1 0
-6.58633e-14 1 0
4.68381e-14 1 0
7.3076e-14 1 0
-5.09854e-14 1 0
-4.78152e-14 1 0
5.78129e-14 1 0
6.37577e-14 1 0
-4.78152e-14 1 0
-6.41057e-14 1 0
6.37577e-14 1 0
7.22592e-14 1 0
-5.58562e-14 1 0
-5.36476e-14 1 0
4.7086e-14 1 0
5.08461e-14 1 0
-5.36476e-14 1 0
-4.33347e-14 1 0
5.08461e-14 1 0
3.82318e-14 1 0
-2.61713e-14 1 0
-4.09289e-14 1 0
3.17297e-14 1 0
4.65575e-14 1 0
-4.09289e-14 1 0
-4.13589e-14 1 0
4.65575e-14 1 0
5.27606e-14 1 0
-4.33347e-14 1 0
-4.97701e-14 1 0
3.82318e-14 1 0
4.05545e-14 1 0