# vtk DataFile Version 3.0
#This file was generated by the deal.II library on 2018/10/24 at 17:28:55
ASCII
DATASET UNSTRUCTURED_GRID

POINTS 20480 double
0 0 0
0.19635 0 0
0 0.312487 0
0.19635 0.312487 0
0.19635 0 0
0.392699 0 0
0.19635 0.312487 0
0.392699 0.312487 0
0 0.312487 0
0.19635 0.312487 0
0 0.624988 0
0.19635 0.624988 0
0.19635 0.312487 0
0.392699 0.312487 0
0.19635 0.624988 0
0.392699 0.624988 0
0.392699 0 0
0.589049 0 0
0.392699 0.312487 0
0.589049 0.312487 0
0.589049 0 0
0.785398 0 0
0.589049 0.312487 0
0.785398 0.312487 0
0.392699 0.312487 0
0.589049 0.312487 0
0.392699 0.624988 0
0.589049 0.624988 0
0.589049 0.312487 0
0.785398 0.312487 0
0.589049 0.624988 0
0.785398 0.624988 0
0 0.624988 0
0.19635 0.624988 0
0 0.937488 0
0.19635 0.937488 0
0.19635 0.624988 0
0.392699 0.624988 0
0.19635 0.937488 0
0.392699 0.937488 0
0 0.937488 0
0.19635 0.937488 0
0 1.24999 0
0.19635 1.24999 0
0.19635 0.937488 0
0.392699 0.937488 0
0.19635 1.24999 0
0.392699 1.24999 0
0.392699 0.624988 0
0.589049 0.624988 0
0.392699 0.937488 0
0.589049 0.937488 0
0.589049 0.624988 0
0.785398 0.624988 0
0.589049 0.937488 0
0.785398 0.937488 0
0.392699 0.937488 0
0.589049 0.937488 0
0.392699 1.24999 0
0.589049 1.24999 0
0.589049 0.937488 0
0.785398 0.937488 0
0.589049 1.24999 0
0.785398 1.24999 0
0.785398 0 0
0.981748 0 0
0.785398 0.312487 0
0.981748 0.312487 0
0.981748 0 0
1.1781 0 0
0.981748 0.312487 0
1.1781 0.312487 0
0.785398 0.312487 0
0.981748 0.312487 0
0.785398 0.624988 0
0.981748 0.624988 0
0.981748 0.312487 0
1.1781 0.312487 0
0.981748 0.624988 0
1.1781 0.624988 0
1.1781 0 0
1.37445 0 0
1.1781 0.312487 0
1.37445 0.312487 0
1.37445 0 0
1.5708 0 0
1.37445 0.312487 0
1.5708 0.312487 0
1.1781 0.312487 0
1.37445 0.312487 0
1.1781 0.624988 0
1.37445 0.624988 0
1.37445 0.312487 0
1.5708 0.312487 0
1.37445 0.624988 0
1.5708 0.624988 0
0.785398 0.624988 0
0.981748 0.624988 0
0.785398 0.937488 0
0.981748 0.937488 0
0.981748 0.624988 0
1.1781 0.624988 0
0.981748 0.937488 0
1.1781 0.937488 0
0.785398 0.937488 0
0.981748 0.937488 0
0.785398 1.24999 0
0.981748 1.24999 0
0.981748 0.937488 0
1.1781 0.937488 0
0.981748 1.24999 0
1.1781 1.24999 0
1.1781 0.624988 0
1.37445 0.624988 0
1.1781 0.937488 0
1.37445 0.937488 0
1.37445 0.624988 0
1.5708 0.624988 0
1.37445 0.937488 0
1.5708 0.937488 0
1.1781 0.937488 0
1.37445 0.937488 0
1.1781 1.24999 0
1.37445 1.24999 0
1.37445 0.937488 0
1.5708 0.937488 0
1.37445 1.24999 0
1.5708 1.24999 0
0 1.24999 0
0.19635 1.24999 0
0 1.56249 0
0.19635 1.56249 0
0.19635 1.24999 0
0.392699 1.24999 0
0.19635 1.56249 0
0.392699 1.56249 0
0 1.56249 0
0.19635 1.56249 0
0 1.87499 0
0.19635 1.87499 0
0.19635 1.56249 0
0.392699 1.56249 0
0.19635 1.87499 0
0.392699 1.87499 0
0.392699 1.24999 0
0.589049 1.24999 0
0.392699 1.56249 0
0.589049 1.56249 0
0.589049 1.24999 0
0.785398 1.24999 0
0.589049 1.56249 0
0.785398 1.56249 0
0.392699 1.56249 0
0.589049 1.56249 0
0.392699 1.87499 0
0.589049 1.87499 0
0.589049 1.56249 0
0.785398 1.56249 0
0.589049 1.87499 0
0.785398 1.87499 0
0 1.87499 0
0.19635 1.87499 0
0 2.18749 0
0.19635 2.18749 0
0.19635 1.87499 0
0.392699 1.87499 0
0.19635 2.18749 0
0.392699 2.18749 0
0 2.18749 0
0.19635 2.18749 0
0 2.49999 0
0.19635 2.49999 0
0.19635 2.18749 0
0.392699 2.18749 0
0.19635 2.49999 0
0.392699 2.49999 0
0.392699 1.87499 0
0.589049 1.87499 0
0.392699 2.18749 0
0.589049 2.18749 0
0.589049 1.87499 0
0.785398 1.87499 0
0.589049 2.18749 0
0.785398 2.18749 0
0.392699 2.18749 0
0.589049 2.18749 0
0.392699 2.49999 0
0.589049 2.49999 0
0.589049 2.18749 0
0.785398 2.18749 0
0.589049 2.49999 0
0.785398 2.49999 0
0.785398 1.24999 0
0.981748 1.24999 0
0.785398 1.56249 0
0.981748 1.56249 0
0.981748 1.24999 0
1.1781 1.24999 0
0.981748 1.56249 0
1.1781 1.56249 0
0.785398 1.56249 0
0.981748 1.56249 0
0.785398 1.87499 0
0.981748 1.87499 0
0.981748 1.56249 0
1.1781 1.56249 0
0.981748 1.87499 0
1.1781 1.87499 0
1.1781 1.24999 0
1.37445 1.24999 0
1.1781 1.56249 0
1.37445 1.56249 0
1.37445 1.24999 0
1.5708 1.24999 0
1.37445 1.56249 0
1.5708 1.56249 0
1.1781 1.56249 0
1.37445 1.56249 0
1.1781 1.87499 0
1.37445 1.87499 0
1.37445 1.56249 0
1.5708 1.56249 0
1.37445 1.87499 0
1.5708 1.87499 0
0.785398 1.87499 0
0.981748 1.87499 0
0.785398 2.18749 0
0.981748 2.18749 0
0.981748 1.87499 0
1.1781 1.87499 0
0.981748 2.18749 0
1.1781 2.18749 0
0.785398 2.18749 0
0.981748 2.18749 0
0.785398 2.49999 0
0.981748 2.49999 0
0.981748 2.18749 0
1.1781 2.18749 0
0.981748 2.49999 0
1.1781 2.49999 0
1.1781 1.87499 0
1.37445 1.87499 0
1.1781 2.18749 0
1.37445 2.18749 0
1.37445 1.87499 0
1.5708 1.87499 0
1.37445 2.18749 0
1.5708 2.18749 0
1.1781 2.18749 0
1.37445 2.18749 0
1.1781 2.49999 0
1.37445 2.49999 0
1.37445 2.18749 0
1.5708 2.18749 0
1.37445 2.49999 0
1.5708 2.49999 0
1.5708 0 0
1.76715 0 0
1.5708 0.312487 0
1.76715 0.312487 0
1.76715 0 0
1.9635 0 0
1.76715 0.312487 0
1.9635 0.312487 0
1.5708 0.312487 0
1.76715 0.312487 0
1.5708 0.624988 0
1.76715 0.624988 0
1.76715 0.312487 0
1.9635 0.312487 0
1.76715 0.624988 0
1.9635 0.624988 0
1.9635 0 0
2.15984 0 0
1.9635 0.312487 0
2.15984 0.312487 0
2.15984 0 0
2.35619 0 0
2.15984 0.312487 0
2.35619 0.312487 0
1.9635 0.312487 0
2.15984 0.312487 0
1.9635 0.624988 0
2.15984 0.624988 0
2.15984 0.312487 0
2.35619 0.312487 0
2.15984 0.624988 0
2.35619 0.624988 0
1.5708 0.624988 0
1.76715 0.624988 0
1.5708 0.937488 0
1.76715 0.937488 0
1.76715 0.624988 0
1.9635 0.624988 0
1.76715 0.937488 0
1.9635 0.937488 0
1.5708 0.937488 0
1.76715 0.937488 0
1.5708 1.24999 0
1.76715 1.24999 0
1.76715 0.937488 0
1.9635 0.937488 0
1.76715 1.24999 0
1.9635 1.24999 0
1.9635 0.624988 0
2.15984 0.624988 0
1.9635 0.937488 0
2.15984 0.937488 0
2.15984 0.624988 0
2.35619 0.624988 0
2.15984 0.937488 0
2.35619 0.937488 0
1.9635 0.937488 0
2.15984 0.937488 0
1.9635 1.24999 0
2.15984 1.24999 0
2.15984 0.937488 0
2.35619 0.937488 0
2.15984 1.24999 0
2.35619 1.24999 0
2.35619 0 0
2.55254 0 0
2.35619 0.312487 0
2.55254 0.312487 0
2.55254 0 0
2.74889 0 0
2.55254 0.312487 0
2.74889 0.312487 0
2.35619 0.312487 0
2.55254 0.312487 0
2.35619 0.624988 0
2.55254 0.624988 0
2.55254 0.312487 0
2.74889 0.312487 0
2.55254 0.624988 0
2.74889 0.624988 0
2.74889 0 0
2.94524 0 0
2.74889 0.312487 0
2.94524 0.312487 0
2.94524 0 0
3.14159 0 0
2.94524 0.312487 0
3.14159 0.312487 0
2.74889 0.312487 0
2.94524 0.312487 0
2.74889 0.624988 0
2.94524 0.624988 0
2.94524 0.312487 0
3.14159 0.312487 0
2.94524 0.624988 0
3.14159 0.624988 0
2.35619 0.624988 0
2.55254 0.624988 0
2.35619 0.937488 0
2.55254 0.937488 0
2.55254 0.624988 0
2.74889 0.624988 0
2.55254 0.937488 0
2.74889 0.937488 0
2.35619 0.937488 0
2.55254 0.937488 0
2.35619 1.24999 0
2.55254 1.24999 0
2.55254 0.937488 0
2.74889 0.937488 0
2.55254 1.24999 0
2.74889 1.24999 0
2.74889 0.624988 0
2.94524 0.624988 0
2.74889 0.937488 0
2.94524 0.937488 0
2.94524 0.624988 0
3.14159 0.624988 0
2.94524 0.937488 0
3.14159 0.937488 0
2.74889 0.937488 0
2.94524 0.937488 0
2.74889 1.24999 0
2.94524 1.24999 0
2.94524 0.937488 0
3.14159 0.937488 0
2.94524 1.24999 0
3.14159 1.24999 0
1.5708 1.24999 0
1.76715 1.24999 0
1.5708 1.56249 0
1.76715 1.56249 0
1.76715 1.24999 0
1.9635 1.24999 0
1.76715 1.56249 0
1.9635 1.56249 0
1.5708 1.56249 0
1.76715 1.56249 0
1.5708 1.87499 0
1.76715 1.87499 0
1.76715 1.56249 0
1.9635 1.56249 0
1.76715 1.87499 0
1.9635 1.87499 0
1.9635 1.24999 0
2.15984 1.24999 0
1.9635 1.56249 0
2.15984 1.56249 0
2.15984 1.24999 0
2.35619 1.24999 0
2.15984 1.56249 0
2.35619 1.56249 0
1.9635 1.56249 0
2.15984 1.56249 0
1.9635 1.87499 0
2.15984 1.87499 0
2.15984 1.56249 0
2.35619 1.56249 0
2.15984 1.87499 0
2.35619 1.87499 0
1.5708 1.87499 0
1.76715 1.87499 0
1.5708 2.18749 0
1.76715 2.18749 0
1.76715 1.87499 0
1.9635 1.87499 0
1.76715 2.18749 0
1.9635 2.18749 0
1.5708 2.18749 0
1.76715 2.18749 0
1.5708 2.49999 0
1.76715 2.49999 0
1.76715 2.18749 0
1.9635 2.18749 0
1.76715 2.49999 0
1.9635 2.49999 0
1.9635 1.87499 0
2.15984 1.87499 0
1.9635 2.18749 0
2.15984 2.18749 0
2.15984 1.87499 0
2.35619 1.87499 0
2.15984 2.18749 0
2.35619 2.18749 0
1.9635 2.18749 0
2.15984 2.18749 0
1.9635 2.49999 0
2.15984 2.49999 0
2.15984 2.18749 0
2.35619 2.18749 0
2.15984 2.49999 0
2.35619 2.49999 0
2.35619 1.24999 0
2.55254 1.24999 0
2.35619 1.56249 0
2.55254 1.56249 0
2.55254 1.24999 0
2.74889 1.24999 0
2.55254 1.56249 0
2.74889 1.56249 0
2.35619 1.56249 0
2.55254 1.56249 0
2.35619 1.87499 0
2.55254 1.87499 0
2.55254 1.56249 0
2.74889 1.56249 0
2.55254 1.87499 0
2.74889 1.87499 0
2.74889 1.24999 0
2.94524 1.24999 0
2.74889 1.56249 0
2.94524 1.56249 0
2.94524 1.24999 0
3.14159 1.24999 0
2.94524 1.56249 0
3.14159 1.56249 0
2.74889 1.56249 0
2.94524 1.56249 0
2.74889 1.87499 0
2.94524 1.87499 0
2.94524 1.56249 0
3.14159 1.56249 0
2.94524 1.87499 0
3.14159 1.87499 0
2.35619 1.87499 0
2.55254 1.87499 0
2.35619 2.18749 0
2.55254 2.18749 0
2.55254 1.87499 0
2.74889 1.87499 0
2.55254 2.18749 0
2.74889 2.18749 0
2.35619 2.18749 0
2.55254 2.18749 0
2.35619 2.49999 0
2.55254 2.49999 0
2.55254 2.18749 0
2.74889 2.18749 0
2.55254 2.49999 0
2.74889 2.49999 0
2.74889 1.87499 0
2.94524 1.87499 0
2.74889 2.18749 0
2.94524 2.18749 0
2.94524 1.87499 0
3.14159 1.87499 0
2.94524 2.18749 0
3.14159 2.18749 0
2.74889 2.18749 0
2.94524 2.18749 0
2.74889 2.49999 0
2.94524 2.49999 0
2.94524 2.18749 0
3.14159 2.18749 0
2.94524 2.49999 0
3.14159 2.49999 0
0 2.49999 0
0.19635 2.49999 0
0 2.81249 0
0.19635 2.81249 0
0.19635 2.49999 0
0.392699 2.49999 0
0.19635 2.81249 0
0.392699 2.81249 0
0 2.81249 0
0.19635 2.81249 0
0 3.12499 0
0.19635 3.12499 0
0.19635 2.81249 0
0.392699 2.81249 0
0.19635 3.12499 0
0.392699 3.12499 0
0.392699 2.49999 0
0.589049 2.49999 0
0.392699 2.81249 0
0.589049 2.81249 0
0.589049 2.49999 0
0.785398 2.49999 0
0.589049 2.81249 0
0.785398 2.81249 0
0.392699 2.81249 0
0.589049 2.81249 0
0.392699 3.12499 0
0.589049 3.12499 0
0.589049 2.81249 0
0.785398 2.81249 0
0.589049 3.12499 0
0.785398 3.12499 0
0 3.12499 0
0.19635 3.12499 0
0 3.43749 0
0.19635 3.43749 0
0.19635 3.12499 0
0.392699 3.12499 0
0.19635 3.43749 0
[...]
POINT_DATA 20480
VECTORS uf double
0 1 0
-2.91311e-15 1 0
0 1.00001 0
-3.1203e-15 1.00001 0
-2.91311e-15 1 0
-1.40893e-14 1 0
-3.1203e-15 1.00001 0
1.24051e-14 1.00001 0
0 1.00001 0
1.42911e-14 1.00001 0
0 1 0
-1.49104e-14 1 0
1.42911e-14 1.00001 0
-1.3335e-14 1.00001 0
-1.49104e-14 1 0
2.27295e-14 1 0
-1.40893e-14 1 0
-4.73997e-14 1 0
1.24051e-14 1.00001 0
6.86087e-14 1.00001 0
-4.73997e-14 1 0
-6.77224e-14 1 0
6.86087e-14 1.00001 0
8.79438e-14 1.00001 0
-1.3335e-14 1.00001 0
-7.30142e-14 1.00001 0
2.27295e-14 1 0
7.25278e-14 1 0
-7.30142e-14 1.00001 0
-5.50028e-14 1.00001 0
7.25278e-14 1 0
4.65807e-14 1 0
0 1 0
1.40038e-14 1 0
0 1 0
-8.56918e-15 1 0
1.40038e-14 1 0
-3.03621e-14 1 0
-8.56918e-15 1 0
3.82811e-14 1 0
0 1 0
1.19806e-14 1 0
0 1 0
-2.08261e-14 1 0
1.19806e-14 1 0
-2.49283e-14 1 0
-2.08261e-14 1 0
1.09748e-14 1 0
-3.03621e-14 1 0
-5.61192e-14 1 0
3.82811e-14 1 0
6.52682e-14 1 0
-5.61192e-14 1 0
-4.31494e-14 1 0
6.52682e-14 1 0
6.99043e-14 1 0
-2.49283e-14 1 0
-7.13182e-14 1 0
1.09748e-14 1 0
7.87073e-14 1 0
-7.13182e-14 1 0
-9.57987e-14 1 0
7.87073e-14 1 0
1.00517e-13 1 0
-6.77224e-14 1 0
-3.99898e-14 1 0
8.79438e-14 1.00001 0
4.87297e-14 1.00001 0
-3.99898e-14 1 0
-5.46346e-14 1 0
4.87297e-14 1.00001 0
7.19249e-14 1.00001 0
-5.50028e-14 1.00001 0
-1.85632e-14 1.00001 0
4.65807e-14 1 0
1.22502e-14 1 0
-1.85632e-14 1.00001 0
-6.07349e-14 1.00001 0
1.22502e-14 1 0
6.76326e-14 1 0
-5.46346e-14 1 0
-6.06203e-14 1 0
7.19249e-14 1.00001 0
8.72216e-14 1.00001 0
-6.06203e-14 1 0
-5.76004e-14 1 0
8.72216e-14 1.00001 0
8.44194e-14 1.00001 0
-6.07349e-14 1.00001 0
-6.67903e-14 1.00001 0
6.76326e-14 1 0
6.70985e-14 1 0
-6.67903e-14 1.00001 0
-5.68506e-14 1.00001 0
6.70985e-14 1 0
4.87396e-14 1 0
-4.31494e-14 1 0
-6.22648e-15 1 0
6.99043e-14 1 0
2.39525e-14 1 0
-6.22648e-15 1 0
-6.67371e-14 1 0
2.39525e-14 1 0
7.24163e-14 1 0
-9.57987e-14 1 0
-5.16642e-14 1 0
1.00517e-13 1 0
6.13375e-14 1 0
-5.16642e-14 1 0
-7.83619e-14 1 0
6.13375e-14 1 0
8.67794e-14 1 0
-6.67371e-14 1 0
-7.1897e-14 1 0
7.24163e-14 1 0
7.99612e-14 1 0
-7.1897e-14 1 0
-7.02401e-14 1 0
7.99612e-14 1 0
8.08596e-14 1 0
-7.83619e-14 1 0
-6.91616e-14 1 0
8.67794e-14 1 0
7.0193e-14 1 0
-6.91616e-14 1 0
-6.19799e-14 1 0
7.0193e-14 1 0
7.21751e-14 1 0
0 1 0
2.59274e-14 1 0
0 1 0
-2.41875e-14 1 0
2.59274e-14 1 0
-5.20564e-15 1 0
-2.41875e-14 1 0
9.60015e-15 1 0
0 1 0
2.33794e-14 1 0
0 1 0
-2.6957e-14 1 0
2.33794e-14 1 0
-1.64367e-14 1 0
-2.6957e-14 1 0
2.10381e-14 1 0
-5.20564e-15 1 0
-1.16425e-13 1 0
9.60015e-15 1 0
1.08671e-13 1 0
-1.16425e-13 1 0
-1.18977e-13 1 0
1.08671e-13 1 0
1.10965e-13 1 0
-1.64367e-14 1 0
-7.75195e-14 1 0
2.10381e-14 1 0
8.13445e-14 1 0
-7.75195e-14 1 0
-1.05864e-13 1 0
8.13445e-14 1 0
1.05628e-13 1 0
0 1 0
2.80654e-14 1 0
0 1 0
-1.91249e-14 1 0
2.80654e-14 1 0
-2.68298e-15 1 0
-1.91249e-14 1 0
-2.13391e-15 1 0
0 1 0
1.62893e-14 1 0
0 1 0
-2.59418e-14 1 0
1.62893e-14 1 0
-1.8447e-14 1 0
-2.59418e-14 1 0
1.42956e-14 1 0
-2.68298e-15 1 0
-7.97084e-14 1 0
-2.13391e-15 1 0
7.13494e-14 1 0
-7.97084e-14 1 0
-8.45706e-14 1 0
7.13494e-14 1 0
8.47191e-14 1 0
-1.8447e-14 1 0
-5.52816e-14 1 0
1.42956e-14 1 0
4.75636e-14 1 0
-5.52816e-14 1 0
-6.76244e-14 1 0
4.75636e-14 1 0
5.16321e-14 1 0
-1.18977e-13 1 0
-8.16318e-14 1 0
1.10965e-13 1 0
7.42125e-14 1 0
-8.16318e-14 1 0
-8.59595e-14 1 0
7.42125e-14 1 0
7.13996e-14 1 0
-1.05864e-13 1 0
-7.33808e-14 1 0
1.05628e-13 1 0
7.88677e-14 1 0
-7.33808e-14 1 0
-6.1985e-14 1 0
7.88677e-14 1 0
6.09669e-14 1 0
-8.59595e-14 1 0
-8.10596e-14 1 0
7.13996e-14 1 0
7.53466e-14 1 0
-8.10596e-14 1 0
-7.56e-14 1 0
7.53466e-14 1 0
7.21919e-14 1 0
-6.1985e-14 1 0
-6.96421e-14 1 0
6.09669e-14 1 0
7.2431e-14 1 0
-6.96421e-14 1 0
-7.42494e-14 1 0
7.2431e-14 1 0
7.42206e-14 1 0
-8.45706e-14 1 0
-5.65061e-14 1 0
8.47191e-14 1 0
6.26027e-14 1 0
-5.65061e-14 1 0
-5.15499e-14 1 0
6.26027e-14 1 0
6.56969e-14 1 0
-6.76244e-14 1 0
-7.6332e-14 1 0
5.16321e-14 1 0
7.03334e-14 1 0
-7.6332e-14 1 0
-7.3172e-14 1 0
7.03334e-14 1 0
6.62431e-14 1 0
-5.15499e-14 1 0
-5.54106e-14 1 0
6.56969e-14 1 0
6.06123e-14 1 0
-5.54106e-14 1 0
-5.55068e-14 1 0
6.06123e-14 1 0
5.8204e-14 1 0
-7.3172e-14 1 0
-6.99737e-14 1 0
6.62431e-14 1 0
5.88968e-14 1 0
-6.99737e-14 1 0
-7.3224e-14 1 0
5.88968e-14 1 0
6.73382e-14 1 0
-5.76004e-14 1 0
-6.74029e-14 1 0
8.44194e-14 1.00001 0
1.06267e-13 1.00001 0
-6.74029e-14 1 0
-6.795e-14 1 0
1.06267e-13 1.00001 0
9.96925e-14 1.00001 0
-5.68506e-14 1.00001 0
-9.43486e-14 1.00001 0
4.87396e-14 1 0
7.50311e-14 1 0
-9.43486e-14 1.00001 0
-8.17312e-14 1.00001 0
7.50311e-14 1 0
8.31143e-14 1 0
-6.795e-14 1 0
-6.93522e-14 1 0
9.96925e-14 1.00001 0
1.0038e-13 1.00001 0
-6.93522e-14 1 0
-6.0615e-14 1 0
1.0038e-13 1.00001 0
9.71706e-14 1.00001 0
-8.17312e-14 1.00001 0
-8.35016e-14 1.00001 0
8.31143e-14 1 0
8.52431e-14 1 0
-8.35016e-14 1.00001 0
-1.08724e-13 1.00001 0
8.52431e-14 1 0
1.02979e-13 1 0
-7.02401e-14 1 0
-7.33581e-14 1 0
8.08596e-14 1 0
7.83856e-14 1 0
-7.33581e-14 1 0
-8.89471e-14 1 0
7.83856e-14 1 0
8.99835e-14 1 0
-6.19799e-14 1 0
-7.06789e-14 1 0
7.21751e-14 1 0
1.00007e-13 1 0
-7.06789e-14 1 0
-7.31424e-14 1 0
1.00007e-13 1 0
7.67915e-14 1 0
-8.89471e-14 1 0
-9.39878e-14 1 0
8.99835e-14 1 0
9.20375e-14 1 0
-9.39878e-14 1 0
-9.24182e-14 1 0
9.20375e-14 1 0
1.00077e-13 1 0
-7.31424e-14 1 0
-7.04855e-14 1 0
7.67915e-14 1 0
7.75878e-14 1 0
-7.04855e-14 1 0
-7.29499e-14 1 0
7.75878e-14 1 0
7.18402e-14 1 0
-6.0615e-14 1 0
-5.99034e-14 1 0
9.71706e-14 1.00001 0
8.47246e-14 1.00001 0
-5.99034e-14 1 0
-6.85074e-14 1 0
8.47246e-14 1.00001 0
9.57703e-14 1.00001 0
-1.08724e-13 1.00001 0
-8.70958e-14 1.00001 0
1.02979e-13 1 0
9.02744e-14 1 0
-8.70958e-14 1.00001 0
-8.92294e-14 1.00001 0
9.02744e-14 1 0
8.79878e-14 1 0
-6.85074e-14 1 0
-6.77167e-14 1 0
9.57703e-14 1.00001 0
9.5356e-14 1.00001 0
-6.77167e-14 1 0
-4.07421e-14 1 0
9.5356e-14 1.00001 0
5.28526e-14 1.00001 0
-8.92294e-14 1.00001 0
-7.21849e-14 1.00001 0
8.79878e-14 1 0
7.01194e-14 1 0
-7.21849e-14 1.00001 0
-3.42824e-14 1.00001 0
7.01194e-14 1 0
3.55078e-14 1 0
-9.24182e-14 1 0
-9.218e-14 1 0
1.00077e-13 1 0
1.03964e-13 1 0
-9.218e-14 1 0
-8.92473e-14 1 0
1.03964e-13 1 0
9.91871e-14 1 0
-7.29499e-14 1 0
-5.72829e-14 1 0
7.18402e-14 1 0
5.3338e-14 1 0
-5.72829e-14 1 0
-6.93131e-14 1 0
5.3338e-14 1 0
6.92958e-14 1 0
-8.92473e-14 1 0
-9.13909e-14 1 0
9.91871e-14 1 0
9.56572e-14 1 0
-9.13909e-14 1 0
-6.45192e-14 1 0
9.56572e-14 1 0
8.23947e-14 1 0
-6.93131e-14 1 0
-6.42423e-14 1 0
6.92958e-14 1 0
6.55302e-14 1 0
-6.42423e-14 1 0
-6.97048e-14 1 0
6.55302e-14 1 0
7.90099e-14 1 0
-7.56e-14 1 0
-9.85619e-14 1 0
7.21919e-14 1 0
8.68004e-14 1 0
-9.85619e-14 1 0
-7.29884e-14 1 0
8.68004e-14 1 0
8.18535e-14 1 0
-7.42494e-14 1 0
-8.0864e-14 1 0
7.42206e-14 1 0
7.88649e-14 1 0
-8.0864e-14 1 0
-8.23979e-14 1 0
7.88649e-14 1 0
7.2582e-14 1 0
-7.29884e-14 1 0
-6.83396e-14 1 0
8.18535e-14 1 0
6.93849e-14 1 0
-6.83396e-14 1 0
-6.6717e-14 1 0
6.93849e-14 1 0
7.10935e-14 1 0
-8.23979e-14 1 0
-6.7932e-14 1 0
7.2582e-14 1 0
6.98989e-14 1 0
-6.7932e-14 1 0
-7.4573e-14 1 0
6.98989e-14 1 0
8.6787e-14 1 0
-5.55068e-14 1 0
-5.93149e-14 1 0
5.8204e-14 1 0
6.72304e-14 1 0
-5.93149e-14 1 0
-5.0389e-14 1 0
6.72304e-14 1 0
5.93391e-14 1 0
-7.3224e-14 1 0
-7.93974e-14 1 0
6.73382e-14 1 0
7.15026e-14 1 0
-7.93974e-14 1 0
-7.10302e-14 1 0
7.15026e-14 1 0
6.72811e-14 1 0
-5.0389e-14 1 0
-5.49037e-14 1 0
5.93391e-14 1 0
6.07342e-14 1 0
-5.49037e-14 1 0
-7.11627e-14 1 0
6.07342e-14 1 0
7.07371e-14 1 0
-7.10302e-14 1 0
-6.95717e-14 1 0
6.72811e-14 1 0
6.01262e-14 1 0
-6.95717e-14 1 0
-7.45866e-14 1 0
6.01262e-14 1 0
6.10958e-14 1 0
-6.6717e-14 1 0
-4.99637e-14 1 0
7.10935e-14 1 0
5.40861e-14 1 0
-4.99637e-14 1 0
-5.09425e-14 1 0
5.40861e-14 1 0
5.36214e-14 1 0
-7.4573e-14 1 0
-7.03536e-14 1 0
8.6787e-14 1 0
8.73582e-14 1 0
-7.03536e-14 1 0
-6.06791e-14 1 0
8.73582e-14 1 0
7.9493e-14 1 0
-5.09425e-14 1 0
-2.50911e-14 1 0
5.36214e-14 1 0
2.85143e-14 1 0
-2.50911e-14 1 0
-5.93547e-14 1 0
2.85143e-14 1 0
6.09862e-14 1 0
-6.06791e-14 1 0
-6.12088e-14 1 0
7.9493e-14 1 0
7.91923e-14 1 0
-6.12088e-14 1 0
-7.13565e-14 1 0
7.91923e-14 1 0
7.77513e-14 1 0
-7.11627e-14 1 0
-7.15308e-14 1 0
7.07371e-14 1 0
6.78713e-14 1 0
-7.15308e-14 1 0
-6.20185e-14 1 0
6.78713e-14 1 0
5.67175e-14 1 0
-7.45866e-14 1 0
-8.21082e-14 1 0
6.10958e-14 1 0
7.537e-14 1 0
-8.21082e-14 1 0
-6.55647e-14 1 0
7.537e-14 1 0
6.32843e-14 1 0
-6.20185e-14 1 0
-6.20923e-14 1 0
5.67175e-14 1 0
5.5048e-14 1 0
-6.20923e-14 1 0
-6.33903e-14 1 0
5.5048e-14 1 0
6.95058e-14 1 0
-6.55647e-14 1 0
-2.0844e-14 1 0
6.32843e-14 1 0
7.82594e-15 1 0
-2.0844e-14 1 0
-5.13413e-14 1 0
7.82594e-15 1 0
4.46903e-14 1 0
0 1 0
3.17999e-14 1 0
0 1 0
-1.68606e-14 1 0
3.17999e-14 1 0
-1.18822e-14 1 0
-1.68606e-14 1 0
2.56977e-14 1 0
0 1 0
7.56584e-15 1 0
0 1 0
-1.39594e-14 1 0
7.56584e-15 1 0
-2.94065e-14 1 0
-1.39594e-14 1 0
2.4173e-14 1 0
-1.18822e-14 1 0
-4.52119e-14 1 0
2.56977e-14 1 0
4.7988e-14 1 0
-4.52119e-14 1 0
-5.19676e-14 1 0
4.7988e-14 1 0
6.32733e-14 1 0
-2.94065e-14 1 0
-5.97273e-14 1 0
2.4173e-14 1 0
6.53861e-14 1 0
-5.97273e-14 1 0
-6.56583e-14 1 0
6.53861e-14 1 0
6.98064e-14 1 0
0 1 0
4.42446e-15 1 0
0 1 0
6.24749e-15 1 0
4.42446e-15 1 0
-1.45409e-14 1 0
6.24749e-15 1 0
1.19285e-14 1 0
0 1 0
-8.85181e-16 1 0
0 1 0
-7.62483e-15 1 0
-8.85181e-16 1 0
-1.08192e-14 1 0
-7.62483e-15 1 0
1.62789e-14 1 0
-1.45409e-14 1 0
-6.2493e-14 1 0
1.19285e-14 1 0
6.55318e-14 1 0
-6.2493e-14 1 0
-7.36202e-14 1 0
6.55318e-14 1 0
6.96911e-14 1 0
-1.08192e-14 1 0
-6.34801e-14 1 0
1.62789e-14 1 0
6.25998e-14 1 0
-6.34801e-14 1 0
-6.85973e-14 1 0
6.25998e-14 1 0
7.80323e-14 1 0
-5.19676e-14 1 0
-5.13506e-14 1 0
6.32733e-14 1 0
5.37186e-14 1 0
-5.13506e-14 1 0
-5.95333e-14 1 0
5.37186e-14 1 0
5.99211e-14 1 0
-6.56583e-14 1 0
-6.60077e-14 1 0
6.98064e-14 1 0
6.36516e-14 1 0
-6.60077e-14 1 0
-6.71351e-14 1 0
6.36516e-14 1 0
6.21524e-14 1 0
-5.95333e-14 1 0
-4.83888e-14 1 0
5.99211e-14 1 0
5.16369e-14 1 0
-4.83888e-14 1 0
-5.93411e-14 1 0
5.16369e-14 1 0
5.60395e-14 1 0
-6.71351e-14 1 0
-6.26737e-14 1 0
6.21524e-14 1 0
7.14558e-14 1 0
-6.26737e-14 1 0
-5.48594e-14 1 0
7.14558e-14 1 0
6.60727e-14 1 0
-7.36202e-14 1 0
-6.54889e-14 1 0
6.96911e-14 1 0
6.72559e-14 1 0
-6.54889e-14 1 0
-4.54865e-14 1 0
6.72559e-14 1 0
5.29417e-14 1 0
-6.85973e-14 1 0
-6.72484e-14 1 0
7.80323e-14 1 0
8.82014e-14 1 0
-6.72484e-14 1 0
-6.15035e-14 1 0
8.82014e-14 1 0
8.24248e-14 1 0
-4.54865e-14 1 0
-4.89377e-14 1 0
5.29417e-14 1 0
4.35985e-14 1 0
-4.89377e-14 1 0
-4.26617e-14 1 0
4.35985e-14 1 0
4.58847e-14 1 0
-6.15035e-14 1 0
-5.22225e-14 1 0
8.24248e-14 1 0
6.86508e-14 1 0
-5.22225e-14 1 0
-6.69619e-14 1 0
6.86508e-14 1 0
8.41145e-14 1 0
0 1 0
1.6421e-14 1 0
0 1 0
-1.76352e-14 1 0
1.6421e-14 1 0
-7.88087e-15 1 0
-1.76352e-14 1 0
3.54071e-15 1 0
0 1 0
1.8408e-14 1 0
0 1 0
-1.25692e-14 1 0
1.8408e-14 1 0
-3.1082e-15 1 0
-1.25692e-14 1 0
8.13956e-15 1 0
-7.88087e-15 1 0
-4.09488e-14 1 0
3.54071e-15 1 0
4.26581e-14 1 0
-4.09488e-14 1 0
-6.21094e-14 1 0
4.26581e-14 1 0
6.28674e-14 1 0
-3.1082e-15 1 0
-4.6252e-14 1 0
8.13956e-15 1 0
5.08277e-14 1 0
-4.6252e-14 1 0
-6.10413e-14 1 0
5.08277e-14 1 0
6.15037e-14 1 0
0 1 0
1.4833e-14 1 0
0 1 0
-1.62404e-14 1 0
1.4833e-14 1 0
-1.40204e-14 1 0
-1.62404e-14 1 0
1.80323e-14 1 0
0 1 0
6.87441e-15 1 0
0 1 0
-6.92948e-16 1 0
6.87441e-15 1 0
-1.15292e-14 1 0
-6.92948e-16 1 0
7.51101e-15 1 0
-1.40204e-14 1 0
-5.09555e-14 1 0
1.80323e-14 1 0
5.151e-14 1 0
-5.09555e-14 1 0
-5.72809e-14 1 0
5.151e-14 1 0
5.86557e-14 1 0
-1.15292e-14 1 0
-4.87873e-14 1 0
7.51101e-15 1 0
4.1612e-14 1 0
-4.87873e-14 1 0
-6.09062e-14 1 0
4.1612e-14 1 0
5.796e-14 1 0
-6.21094e-14 1 0
-8.92289e-14 1 0
6.28674e-14 1 0
8.93006e-14 1 0
-8.92289e-14 1 0
-8.94491e-14 1 0
8.93006e-14 1 0
8.91455e-14 1 0
-6.10413e-14 1 0
-6.30614e-14 1 0
6.15037e-14 1 0
5.01188e-14 1 0
-6.30614e-14 1 0
-6.29102e-14 1 0
5.01188e-14 1 0
5.57031e-14 1 0
-8.94491e-14 1 0
-7.44829e-14 1 0
8.91455e-14 1 0
8.15676e-14 1 0
-7.44829e-14 1 0
-8.56178e-14 1 0
8.15676e-14 1 0
8.57816e-14 1 0
-6.29102e-14 1 0
-5.91988e-14 1 0
5.57031e-14 1 0
5.13722e-14 1 0
-5.91988e-14 1 0
-6.34651e-14 1 0
5.13722e-14 1 0
5.83756e-14 1 0
-5.72809e-14 1 0
-3.8751e-14 1 0
5.86557e-14 1 0
4.31936e-14 1 0
-3.8751e-14 1 0
-3.86916e-14 1 0
4.31936e-14 1 0
3.47463e-14 1 0
-6.09062e-14 1 0
-6.48321e-14 1 0
5.796e-14 1 0
6.53323e-14 1 0
-6.48321e-14 1 0
-5.49754e-14 1 0
6.53323e-14 1 0
5.44145e-14 1 0
-3.86916e-14 1 0
-3.95014e-14 1 0
3.47463e-14 1 0
4.24041e-14 1 0
-3.95014e-14 1 0
-4.39382e-14 1 0
4.24041e-14 1 0
4.27128e-14 1 0
-5.49754e-14 1 0
-6.64722e-14 1 0
5.44145e-14 1 0
6.33541e-14 1 0
-6.64722e-14 1 0
-6.91202e-14 1 0
6.33541e-14 1 0
6.91989e-14 1 0
-5.93411e-14 1 0
-6.14793e-14 1 0
5.60395e-14 1 0
6.55644e-14 1 0
-6.14793e-14 1 0
-6.07943e-14 1 0
6.55644e-14 1 0
6.724e-14 1 0
-5.48594e-14 1 0
-7.21395e-14 1 0
6.60727e-14 1 0
7.83824e-14 1 0
-7.21395e-14 1 0
-7.06711e-14 1 0
7.83824e-14 1 0
7.68168e-14 1 0
-6.07943e-14 1 0
-3.80247e-14 1 0
6.724e-14 1 0
4.32096e-14 1 0
-3.80247e-14 1 0
-4.70042e-14 1 0
4.32096e-14 1 0
6.07768e-14 1 0
-7.06711e-14 1 0
-6.1656e-14 1 0
7.68168e-14 1 0
6.95768e-14 1 0
-6.1656e-14 1 0
-7.00692e-14 1 0
6.95768e-14 1 0
7.26793e-14 1 0
-4.26617e-14 1 0
-5.10803e-14 1 0
4.58847e-14 1 0
4.49842e-14 1 0
-5.10803e-14 1 0
-5.52021e-14 1 0
4.49842e-14 1 0
5.1345e-14 1 0
-6.69619e-14 1 0
-5.76834e-14 1 0
8.41145e-14 1 0
8.05937e-14 1 0
-5.76834e-14 1 0
-6.26748e-14 1 0
8.05937e-14 1 0
8.57112e-14 1 0
-5.52021e-14 1 0
-4.66846e-14 1 0
5.1345e-14 1 0
5.39376e-14 1 0
-4.66846e-14 1 0
-4.4498e-14 1 0
5.39376e-14 1 0
5.62455e-14 1 0
-6.26748e-14 1 0
-6.37828e-14 1 0
8.57112e-14 1 0
8.12735e-14 1 0
-6.37828e-14 1 0
-7.09901e-14 1 0
8.12735e-14 1 0
8.20314e-14 1 0
-4.70042e-14 1 0
-3.66465e-14 1 0
6.07768e-14 1 0
4.89611e-14 1 0
-3.66465e-14 1 0
-3.3511e-14 1 0
4.89611e-14 1 0
3.83028e-14 1 0
-7.00692e-14 1 0
-6.97696e-14 1 0
7.26793e-14 1 0
7.31369e-14 1 0
-6.97696e-14 1 0
-5.87645e-14 1 0
7.31369e-14 1 0
6.69662e-14 1 0
-3.3511e-14 1 0
-1.24829e-15 1 0
3.83028e-14 1 0
1.51117e-14 1 0
-1.24829e-15 1 0
-3.42345e-14 1 0
1.51117e-14 1 0
4.71146e-14 1 0
-5.87645e-14 1 0
-2.31181e-14 1 0
6.69662e-14 1 0
3.01623e-14 1 0
-2.31181e-14 1 0
-6.06471e-14 1 0
3.01623e-14 1 0
7.55353e-14 1 0
-4.4498e-14 1 0
-4.49106e-14 1 0
5.62455e-14 1 0
4.43877e-14 1 0
-4.49106e-14 1 0
-4.3225e-14 1 0
4.43877e-14 1 0
5.00479e-14 1 0
-7.09901e-14 1 0
-4.16905e-14 1 0
8.20314e-14 1 0
5.14651e-14 1 0
-4.16905e-14 1 0
-5.38975e-14 1 0
5.14651e-14 1 0
6.64251e-14 1 0
-4.3225e-14 1 0
-3.01491e-14 1 0
5.00479e-14 1 0
3.92079e-14 1 0
-3.01491e-14 1 0
-6.41878e-14 1 0
3.92079e-14 1 0
5.11692e-14 1 0
-5.38975e-14 1 0
-1.51432e-14 1 0
6.64251e-14 1 0
2.1097e-14 1 0
-1.51432e-14 1 0
-3.96561e-14 1 0
2.1097e-14 1 0
6.57845e-14 1 0
-8.56178e-14 1 0
-8.69754e-14 1 0
8.57816e-14 1 0
8.32892e-14 1 0
-8.69754e-14 1 0
-8.5387e-14 1 0
8.32892e-14 1 0
8.28475e-14 1 0
-6.34651e-14 1 0
-5.83512e-14 1 0
5.83756e-14 1 0
5.43802e-14 1 0
-5.83512e-14 1 0
-6.32709e-14 1 0
5.43802e-14 1 0
5.96991e-14 1 0
-8.5387e-14 1 0
-8.93201e-14 1 0
8.28475e-14 1 0
9.05088e-14 1 0
-8.93201e-14 1 0
-8.25961e-14 1 0
9.05088e-14 1 0
8.1848e-14 1 0
-6.32709e-14 1 0
-6.32583e-14 1 0
5.96991e-14 1 0
5.42161e-14 1 0
-6.32583e-14 1 0
-6.22456e-14 1 0
5.42161e-14 1 0
5.90825e-14 1 0
-4.39382e-14 1 0
-3.91796e-14 1 0
4.27128e-14 1 0
3.84161e-14 1 0
-3.91796e-14 1 0
-4.59422e-14 1 0
3.84161e-14 1 0
4.09239e-14 1 0
-6.91202e-14 1 0
-6.06372e-14 1 0
6.91989e-14 1 0
5.57399e-14 1 0
-6.06372e-14 1 0
-6.20221e-14 1 0
5.57399e-14 1 0
6.12621e-14 1 0
-4.59422e-14 1 0
-3.53213e-14 1 0
4.09239e-14 1 0
2.8167e-14 1 0
-3.53213e-14 1 0
-4.00113e-14 1 0
2.8167e-14 1 0
3.74007e-14 1 0
-6.20221e-14 1 0
-5.39614e-14 1 0
6.12621e-14 1 0
6.38843e-14 1 0
-5.39614e-14 1 0
-6.43622e-14 1 0
6.38843e-14 1 0
6.16601e-14 1 0
-8.25961e-14 1 0
-3.65504e-14 1 0
8.1848e-14 1 0
3.88378e-14 1 0
-3.65504e-14 1 0
-6.77274e-14 1 0
3.88378e-14 1 0
7.19759e-14 1 0
-6.22456e-14 1 0
-4.5768e-14 1 0
5.90825e-14 1 0
5.36293e-14 1 0
-4.5768e-14 1 0
-6.13475e-14 1 0
5.36293e-14 1 0
5.93688e-14 1 0
-6.77274e-14 1 0
-1.49474e-14 1 0
7.19759e-14 1 0
2.0673e-14 1 0
-1.49474e-14 1 0
-7.44468e-14 1 0
2.0673e-14 1 0
7.72896e-14 1 0
-6.13475e-14 1 0
-3.89864e-14 1 0
5.93688e-14 1 0
4.52871e-14 1 0
-3.89864e-14 1 0
-6.32657e-14 1 0
4.52871e-14 1 0
5.94828e-14 1 0
-4.00113e-14 1 0
-3.93652e-14 1 0
3.74007e-14 1 0
3.24776e-14 1 0
-3.93652e-14 1 0
-4.25448e-14 1 0
3.24776e-14 1 0
4.1232e-14 1 0
-6.43622e-14 1 0
-4.6113e-14 1 0
6.16601e-14 1 0
4.52387e-14 1 0
-4.6113e-14 1 0
-6.75444e-14 1 0
4.52387e-14 1 0
6.12901e-14 1 0
-4.25448e-14 1 0
-3.26914e-14 1 0
4.1232e-14 1 0
2.50856e-14 1 0
-3.26914e-14 1 0
-3.85087e-14 1 0
2.50856e-14 1 0
3.36531e-14 1 0
-6.75444e-14 1 0
-1.19194e-14 1 0
6.12901e-14 1 0
6.38998e-15 1 0
-1.19194e-14 1 0
-4.71954e-14 1 0
6.38998e-15 1 0
5.21789e-14 1 0
-4.07421e-14 1 0
-1.45057e-14 1 0
5.28526e-14 1.00001 0
2.15221e-14 1.00001 0
-1.45057e-14 1 0
-6.83361e-14 1 0
2.15221e-14 1.00001 0
9.57817e-14 1.00001 0
-3.42824e-14 1.00001 0
-2.81785e-14 1.00001 0
3.55078e-14 1 0
3.56068e-14 1 0
-2.81785e-14 1.00001 0
-7.52355e-14 1.00001 0
3.56068e-14 1 0
6.97209e-14 1 0
-6.83361e-14 1 0
-6.34816e-14 1 0
9.57817e-14 1.00001 0
8.86166e-14 1.00001 0
-6.34816e-14 1 0
-5.76967e-14 1 0
8.86166e-14 1.00001 0
8.39003e-14 1.00001 0
-7.52355e-14 1.00001 0
-7.65208e-14 1.00001 0
6.97209e-14 1 0
8.30955e-14 1 0
-7.65208e-14 1.00001 0
-9.74648e-14 1.00001 0
8.30955e-14 1 0
1.14229e-13 1 0
-6.45192e-14 1 0
-4.78664e-14 1 0
8.23947e-14 1 0
6.4961e-14 1 0
-4.78664e-14 1 0
-4.7688e-14 1 0
6.4961e-14 1 0
5.32604e-14 1 0
-6.97048e-14 1 0
-6.41589e-14 1 0
7.90099e-14 1 0
7.10647e-14 1 0
-6.41589e-14 1 0
-5.48847e-14 1 0
7.10647e-14 1 0
6.42389e-14 1 0
-4.7688e-14 1 0
-7.91821e-14 1 0
5.32604e-14 1 0
8.75394e-14 1 0
-7.91821e-14 1 0
-8.20025e-14 1 0
8.75394e-14 1 0
8.69745e-14 1 0
-5.48847e-14 1 0
-7.06314e-14 1 0
6.42389e-14 1 0
7.40655e-14 1 0
-7.06314e-14 1 0
-9.56115e-14 1 0
7.40655e-14 1 0
1.11486e-13 1 0
-5.76967e-14 1 0
-5.04391e-14 1 0
8.39003e-14 1.00001 0
5.50199e-14 1.00001 0
-5.04391e-14 1 0
-2.74747e-14 1 0
5.50199e-14 1.00001 0
3.86756e-14 1.00001 0
-9.74648e-14 1.00001 0
-1.57372e-14 1.00001 0
1.14229e-13 1 0
2.65382e-14 1 0
-1.57372e-14 1.00001 0
-2.57985e-14 1.00001 0
2.65382e-14 1 0
4.27824e-14 1 0
-2.74747e-14 1 0
-3.9619e-14 1 0
3.86756e-14 1.00001 0
5.45886e-14 1.00001 0
-3.9619e-14 1 0
-4.11321e-14 1 0
5.45886e-14 1.00001 0
6.07956e-14 1.00001 0
-2.57985e-14 1.00001 0
-4.74021e-14 1.00001 0
4.27824e-14 1 0
5.87356e-14 1 0
-4.74021e-14 1.00001 0
-6.62012e-14 1.00001 0
5.87356e-14 1 0
7.00908e-14 1 0
-8.20025e-14 1 0
-1.13456e-14 1 0
8.69745e-14 1 0
2.52869e-14 1 0
-1.13456e-14 1 0
-4.90289e-14 1 0
2.52869e-14 1 0
6.39774e-14 1 0
-9.56115e-14 1 0
-1.30268e-14 1 0
1.11486e-13 1 0
1.05233e-14 1 0
-1.30268e-14 1 0
-4.1929e-14 1 0
1.05233e-14 1 0
4.8345e-14 1 0
-4.90289e-14 1 0
-5.24707e-14 1 0
6.39774e-14 1 0
6.61958e-14 1 0
-5.24707e-14 1 0
-5.89245e-14 1 0
6.61958e-14 1 0
6.60381e-14 1 0
-4.1929e-14 1 0
-4.6483e-14 1 0
4.8345e-14 1 0
5.88601e-14 1 0
-4.6483e-14 1 0
-3.96893e-14 1 0
5.88601e-14 1 0
5.69242e-14 1 0
-5.93547e-14 1 0
-6.54776e-14 1 0
6.09862e-14 1 0
6.9024e-14 1 0
-6.54776e-14 1 0
-6.2546e-14 1 0
6.9024e-14 1 0
8.11337e-14 1 0
-7.13565e-14 1 0
-6.7799e-14 1 0
7.77513e-14 1 0
9.0609e-14 1 0
-6.7799e-14 1 0
-8.15868e-14 1 0
9.0609e-14 1 0
9.8919e-14 1 0
-6.2546e-14 1 0
-7.13863e-14 1 0
8.11337e-14 1 0
8.53923e-14 1 0
-7.13863e-14 1 0
-1.02538e-13 1 0
8.53923e-14 1 0
1.07769e-13 1 0
-8.15868e-14 1 0
-7.03372e-14 1 0
9.8919e-14 1 0
6.86344e-14 1 0
-7.03372e-14 1 0
-8.08216e-14 1 0
6.86344e-14 1 0
7.56701e-14 1 0
-6.33903e-14 1 0
-7.31621e-14 1 0
6.95058e-14 1 0
7.28589e-14 1 0
-7.31621e-14 1 0
-7.82954e-14 1 0
7.28589e-14 1 0
7.44841e-14 1 0
-5.13413e-14 1 0
-7.16329e-14 1 0
4.46903e-14 1 0
6.06406e-14 1 0
-7.16329e-14 1 0
-6.89196e-14 1 0
6.06406e-14 1 0
6.32248e-14 1 0
-7.82954e-14 1 0
-5.23102e-14 1 0
7.44841e-14 1 0
6.42148e-14 1 0