# vtk DataFile Version 3.0
#This file was generated by the deal.II library on 2018/10/24 at 16:52:45
ASCII
DATASET UNSTRUCTURED_GRID

POINTS 20480 double
0 0 0
0.19635 0 0
0 0.312497 0
0.19635 0.312497 0
0.19635 0 0
0.392699 0 0
0.19635 0.312497 0
0.392699 0.312497 0
0 0.312497 0
0.19635 0.312497 0
0 0.624998 0
0.19635 0.624998 0
0.19635 0.312497 0
0.392699 0.312497 0
0.19635 0.624998 0
0.392699 0.624998 0
0.392699 0 0
0.589049 0 0
0.392699 0.312497 0
0.589049 0.312497 0
0.589049 0 0
0.785398 0 0
0.589049 0.312497 0
0.785398 0.312497 0
0.392699 0.312497 0
0.589049 0.312497 0
0.392699 0.624998 0
0.589049 0.624998 0
0.589049 0.312497 0
0.785398 0.312497 0
0.589049 0.624998 0
0.785398 0.624998 0
0 0.624998 0
0.19635 0.624998 0
0 0.937498 0
0.19635 0.937498 0
0.19635 0.624998 0
0.392699 0.624998 0
0.19635 0.937498 0
0.392699 0.937498 0
0 0.937498 0
0.19635 0.937498 0
0 1.25 0
0.19635 1.25 0
0.19635 0.937498 0
0.392699 0.937498 0
0.19635 1.25 0
0.392699 1.25 0
0.392699 0.624998 0
0.589049 0.624998 0
0.392699 0.937498 0
0.589049 0.937498 0
0.589049 0.624998 0
0.785398 0.624998 0
0.589049 0.937498 0
0.785398 0.937498 0
0.392699 0.937498 0
0.589049 0.937498 0
0.392699 1.25 0
0.589049 1.25 0
0.589049 0.937498 0
0.785398 0.937498 0
0.589049 1.25 0
0.785398 1.25 0
0.785398 0 0
0.981748 0 0
0.785398 0.312497 0
0.981748 0.312497 0
0.981748 0 0
1.1781 0 0
0.981748 0.312497 0
1.1781 0.312497 0
0.785398 0.312497 0
0.981748 0.312497 0
0.785398 0.624998 0
0.981748 0.624998 0
0.981748 0.312497 0
1.1781 0.312497 0
0.981748 0.624998 0
1.1781 0.624998 0
1.1781 0 0
1.37445 0 0
1.1781 0.312497 0
1.37445 0.312497 0
1.37445 0 0
1.5708 0 0
1.37445 0.312497 0
1.5708 0.312497 0
1.1781 0.312497 0
1.37445 0.312497 0
1.1781 0.624998 0
1.37445 0.624998 0
1.37445 0.312497 0
1.5708 0.312497 0
1.37445 0.624998 0
1.5708 0.624998 0
0.785398 0.624998 0
0.981748 0.624998 0
0.785398 0.937498 0
0.981748 0.937498 0
0.981748 0.624998 0
1.1781 0.624998 0
0.981748 0.937498 0
1.1781 0.937498 0
0.785398 0.937498 0
0.981748 0.937498 0
0.785398 1.25 0
0.981748 1.25 0
0.981748 0.937498 0
1.1781 0.937498 0
0.981748 1.25 0
1.1781 1.25 0
1.1781 0.624998 0
1.37445 0.624998 0
1.1781 0.937498 0
1.37445 0.937498 0
1.37445 0.624998 0
1.5708 0.624998 0
1.37445 0.937498 0
1.5708 0.937498 0
1.1781 0.937498 0
1.37445 0.937498 0
1.1781 1.25 0
1.37445 1.25 0
1.37445 0.937498 0
1.5708 0.937498 0
1.37445 1.25 0
1.5708 1.25 0
0 1.25 0
0.19635 1.25 0
0 1.5625 0
0.19635 1.5625 0
0.19635 1.25 0
0.392699 1.25 0
0.19635 1.5625 0
0.392699 1.5625 0
0 1.5625 0
0.19635 1.5625 0
0 1.875 0
0.19635 1.875 0
0.19635 1.5625 0
0.392699 1.5625 0
0.19635 1.875 0
0.392699 1.875 0
0.392699 1.25 0
0.589049 1.25 0
0.392699 1.5625 0
0.589049 1.5625 0
0.589049 1.25 0
0.785398 1.25 0
0.589049 1.5625 0
0.785398 1.5625 0
0.392699 1.5625 0
0.589049 1.5625 0
0.392699 1.875 0
0.589049 1.875 0
0.589049 1.5625 0
0.785398 1.5625 0
0.589049 1.875 0
0.785398 1.875 0
0 1.875 0
0.19635 1.875 0
0 2.1875 0
0.19635 2.1875 0
0.19635 1.875 0
0.392699 1.875 0
0.19635 2.1875 0
0.392699 2.1875 0
0 2.1875 0
0.19635 2.1875 0
0 2.5 0
0.19635 2.5 0
0.19635 2.1875 0
0.392699 2.1875 0
0.19635 2.5 0
0.392699 2.5 0
0.392699 1.875 0
0.589049 1.875 0
0.392699 2.1875 0
0.589049 2.1875 0
0.589049 1.875 0
0.785398 1.875 0
0.589049 2.1875 0
0.785398 2.1875 0
0.392699 2.1875 0
0.589049 2.1875 0
0.392699 2.5 0
0.589049 2.5 0
0.589049 2.1875 0
0.785398 2.1875 0
0.589049 2.5 0
0.785398 2.5 0
0.785398 1.25 0
0.981748 1.25 0
0.785398 1.5625 0
0.981748 1.5625 0
0.981748 1.25 0
1.1781 1.25 0
0.981748 1.5625 0
1.1781 1.5625 0
0.785398 1.5625 0
0.981748 1.5625 0
0.785398 1.875 0
0.981748 1.875 0
0.981748 1.5625 0
1.1781 1.5625 0
0.981748 1.875 0
1.1781 1.875 0
1.1781 1.25 0
1.37445 1.25 0
1.1781 1.5625 0
1.37445 1.5625 0
1.37445 1.25 0
1.5708 1.25 0
1.37445 1.5625 0
1.5708 1.5625 0
1.1781 1.5625 0
1.37445 1.5625 0
1.1781 1.875 0
1.37445 1.875 0
1.37445 1.5625 0
1.5708 1.5625 0
1.37445 1.875 0
1.5708 1.875 0
0.785398 1.875 0
0.981748 1.875 0
0.785398 2.1875 0
0.981748 2.1875 0
0.981748 1.875 0
1.1781 1.875 0
0.981748 2.1875 0
1.1781 2.1875 0
0.785398 2.1875 0
0.981748 2.1875 0
0.785398 2.5 0
0.981748 2.5 0
0.981748 2.1875 0
1.1781 2.1875 0
0.981748 2.5 0
1.1781 2.5 0
1.1781 1.875 0
1.37445 1.875 0
1.1781 2.1875 0
1.37445 2.1875 0
1.37445 1.875 0
1.5708 1.875 0
1.37445 2.1875 0
1.5708 2.1875 0
1.1781 2.1875 0
1.37445 2.1875 0
1.1781 2.5 0
1.37445 2.5 0
1.37445 2.1875 0
1.5708 2.1875 0
1.37445 2.5 0
1.5708 2.5 0
1.5708 0 0
1.76715 0 0
1.5708 0.312497 0
1.76715 0.312497 0
1.76715 0 0
1.9635 0 0
1.76715 0.312497 0
1.9635 0.312497 0
1.5708 0.312497 0
1.76715 0.312497 0
1.5708 0.624998 0
1.76715 0.624998 0
1.76715 0.312497 0
1.9635 0.312497 0
1.76715 0.624998 0
1.9635 0.624998 0
1.9635 0 0
2.15984 0 0
1.9635 0.312497 0
2.15984 0.312497 0
2.15984 0 0
2.35619 0 0
2.15984 0.312497 0
2.35619 0.312497 0
1.9635 0.312497 0
2.15984 0.312497 0
1.9635 0.624998 0
2.15984 0.624998 0
2.15984 0.312497 0
2.35619 0.312497 0
2.15984 0.624998 0
2.35619 0.624998 0
1.5708 0.624998 0
1.76715 0.624998 0
1.5708 0.937498 0
1.76715 0.937498 0
1.76715 0.624998 0
1.9635 0.624998 0
1.76715 0.937498 0
1.9635 0.937498 0
1.5708 0.937498 0
1.76715 0.937498 0
1.5708 1.25 0
1.76715 1.25 0
1.76715 0.937498 0
1.9635 0.937498 0
1.76715 1.25 0
1.9635 1.25 0
1.9635 0.624998 0
2.15984 0.624998 0
1.9635 0.937498 0
2.15984 0.937498 0
2.15984 0.624998 0
2.35619 0.624998 0
2.15984 0.937498 0
2.35619 0.937498 0
1.9635 0.937498 0
2.15984 0.937498 0
1.9635 1.25 0
2.15984 1.25 0
2.15984 0.937498 0
2.35619 0.937498 0
2.15984 1.25 0
2.35619 1.25 0
2.35619 0 0
2.55254 0 0
2.35619 0.312497 0
2.55254 0.312497 0
2.55254 0 0
2.74889 0 0
2.55254 0.312497 0
2.74889 0.312497 0
2.35619 0.312497 0
2.55254 0.312497 0
2.35619 0.624998 0
2.55254 0.624998 0
2.55254 0.312497 0
2.74889 0.312497 0
2.55254 0.624998 0
2.74889 0.624998 0
2.74889 0 0
2.94524 0 0
2.74889 0.312497 0
2.94524 0.312497 0
2.94524 0 0
3.14159 0 0
2.94524 0.312497 0
3.14159 0.312497 0
2.74889 0.312497 0
2.94524 0.312497 0
2.74889 0.624998 0
2.94524 0.624998 0
2.94524 0.312497 0
3.14159 0.312497 0
2.94524 0.624998 0
3.14159 0.624998 0
2.35619 0.624998 0
2.55254 0.624998 0
2.35619 0.937498 0
2.55254 0.937498 0
2.55254 0.624998 0
2.74889 0.624998 0
2.55254 0.937498 0
2.74889 0.937498 0
2.35619 0.937498 0
2.55254 0.937498 0
2.35619 1.25 0
2.55254 1.25 0
2.55254 0.937498 0
2.74889 0.937498 0
2.55254 1.25 0
2.74889 1.25 0
2.74889 0.624998 0
2.94524 0.624998 0
2.74889 0.937498 0
2.94524 0.937498 0
2.94524 0.624998 0
3.14159 0.624998 0
2.94524 0.937498 0
3.14159 0.937498 0
2.74889 0.937498 0
2.94524 0.937498 0
2.74889 1.25 0
2.94524 1.25 0
2.94524 0.937498 0
3.14159 0.937498 0
2.94524 1.25 0
3.14159 1.25 0
1.5708 1.25 0
1.76715 1.25 0
1.5708 1.5625 0
1.76715 1.5625 0
1.76715 1.25 0
1.9635 1.25 0
1.76715 1.5625 0
1.9635 1.5625 0
1.5708 1.5625 0
1.76715 1.5625 0
1.5708 1.875 0
1.76715 1.875 0
1.76715 1.5625 0
1.9635 1.5625 0
1.76715 1.875 0
1.9635 1.875 0
1.9635 1.25 0
2.15984 1.25 0
1.9635 1.5625 0
2.15984 1.5625 0
2.15984 1.25 0
2.35619 1.25 0
2.15984 1.5625 0
2.35619 1.5625 0
1.9635 1.5625 0
2.15984 1.5625 0
1.9635 1.875 0
2.15984 1.875 0
2.15984 1.5625 0
2.35619 1.5625 0
2.15984 1.875 0
2.35619 1.875 0
1.5708 1.875 0
1.76715 1.875 0
1.5708 2.1875 0
1.76715 2.1875 0
1.76715 1.875 0
1.9635 1.875 0
1.76715 2.1875 0
1.9635 2.1875 0
1.5708 2.1875 0
1.76715 2.1875 0
1.5708 2.5 0
1.76715 2.5 0
1.76715 2.1875 0
1.9635 2.1875 0
1.76715 2.5 0
1.9635 2.5 0
1.9635 1.875 0
2.15984 1.875 0
1.9635 2.1875 0
2.15984 2.1875 0
2.15984 1.875 0
2.35619 1.875 0
2.15984 2.1875 0
2.35619 2.1875 0
1.9635 2.1875 0
2.15984 2.1875 0
1.9635 2.5 0
2.15984 2.5 0
2.15984 2.1875 0
2.35619 2.1875 0
2.15984 2.5 0
2.35619 2.5 0
2.35619 1.25 0
2.55254 1.25 0
2.35619 1.5625 0
2.55254 1.5625 0
2.55254 1.25 0
2.74889 1.25 0
2.55254 1.5625 0
2.74889 1.5625 0
2.35619 1.5625 0
2.55254 1.5625 0
2.35619 1.875 0
2.55254 1.875 0
2.55254 1.5625 0
2.74889 1.5625 0
2.55254 1.875 0
2.74889 1.875 0
2.74889 1.25 0
2.94524 1.25 0
2.74889 1.5625 0
2.94524 1.5625 0
2.94524 1.25 0
3.14159 1.25 0
2.94524 1.5625 0
3.14159 1.5625 0
2.74889 1.5625 0
2.94524 1.5625 0
2.74889 1.875 0
2.94524 1.875 0
2.94524 1.5625 0
3.14159 1.5625 0
2.94524 1.875 0
3.14159 1.875 0
2.35619 1.875 0
2.55254 1.875 0
2.35619 2.1875 0
2.55254 2.1875 0
2.55254 1.875 0
2.74889 1.875 0
2.55254 2.1875 0
2.74889 2.1875 0
2.35619 2.1875 0
2.55254 2.1875 0
2.35619 2.5 0
2.55254 2.5 0
2.55254 2.1875 0
2.74889 2.1875 0
2.55254 2.5 0
2.74889 2.5 0
2.74889 1.875 0
2.94524 1.875 0
2.74889 2.1875 0
2.94524 2.1875 0
2.94524 1.875 0
3.14159 1.875 0
2.94524 2.1875 0
3.14159 2.1875 0
2.74889 2.1875 0
2.94524 2.1875 0
2.74889 2.5 0
2.94524 2.5 0
2.94524 2.1875 0
3.14159 2.1875 0
2.94524 2.5 0
3.14159 2.5 0
0 2.5 0
0.19635 2.5 0
0 2.8125 0
0.19635 2.8125 0
0.19635 2.5 0
0.392699 2.5 0
0.19635 2.8125 0
0.392699 2.8125 0
0 2.8125 0
0.19635 2.8125 0
0 3.125 0
0.19635 3.125 0
0.19635 2.8125 0
0.392699 2.8125 0
0.19635 3.125 0
0.392699 3.125 0
0.392699 2.5 0
0.589049 2.5 0
0.392699 2.8125 0
0.589049 2.8125 0
0.589049 2.5 0
0.785398 2.5 0
0.589049 2.8125 0
0.785398 2.8125 0
0.392699 2.8125 0
0.589049 2.8125 0
0.392699 3.125 0
0.589049 3.125 0
0.589049 2.8125 0
0.785398 2.8125 0
0.589049 3.125 0
0.785398 3.125 0
0 3.125 0
0.19635 3.125 0
0 3.4375 0
0.19635 3.4375 0
0.19635 3.125 0
0.392699 3.125 0
0.19635 3.4375 0
0.392699 3.4375 0
0 3.4375 0
0.19635 3.4375 0
0 3.75 0
0.19635 3.75 0
0.19635 3.4375 0
0.392699 3.4375 0
0.19635 3.75 0
0.392699 3.75 0
0.392699 3.125 0
0.589049 3.125 0
0.392699 3.4375 0
0.589049 3.4375 0
0.589049 3.125 0
0.785398 3.125 0
0.589049 3.4375 0
0.785398 3.4375 0
0.392699 3.4375 0
0.589049 3.4375 0
0.392699 3.75 0
0.589049 3.75 0
0.589049 3.4375 0
0.785398 3.4375 0
0.589049 3.75 0
0.785398 3.75 0
0.785398 2.5 0
0.981748 2.5 0
0.785398 2.8125 0
0.981748 2.8125 0
0.981748 2.5 0
1.1781 2.5 0
0.981748 2.8125 0
1.1781 2.8125 0
0.785398 2.8125 0
0.981748 2.8125 0
0.785398 3.125 0
0.981748 3.125 0
0.981748 2.8125 0
1.1781 2.8125 0
[...]
POINT_DATA 20480
VECTORS uf double
0 1 0
1.91123e-14 1 0
0 1 0
-2.62541e-14 1 0
1.91123e-14 1 0
1.0374e-14 1 0
-2.62541e-14 1 0
-4.6573e-15 1 0
0 1 0
1.60363e-14 1 0
0 1 0
-6.10776e-15 1 0
1.60363e-14 1 0
-2.69044e-15 1 0
-6.10776e-15 1 0
1.48683e-15 1 0
1.0374e-14 1 0
1.9042e-18 1 0
-4.6573e-15 1 0
4.92743e-15 1 0
1.9042e-18 1 0
-9.59017e-15 1 0
4.92743e-15 1 0
1.5362e-14 1 0
-2.69044e-15 1 0
1.83372e-15 1 0
1.48683e-15 1 0
-9.29844e-15 1 0
1.83372e-15 1 0
-7.57972e-15 1 0
-9.29844e-15 1 0
2.44836e-15 1 0
0 1 0
1.4315e-14 1 0
0 1 0
-1.88246e-14 1 0
1.4315e-14 1 0
8.85471e-16 1 0
-1.88246e-14 1 0
-8.1733e-15 1 0
0 1 0
1.06235e-14 1 0
0 1 0
-1.46424e-14 1 0
1.06235e-14 1 0
1.66919e-14 1 0
-1.46424e-14 1 0
-1.90611e-14 1 0
8.85471e-16 1 0
5.37702e-15 1 0
-8.1733e-15 1 0
-2.39485e-15 1 0
5.37702e-15 1 0
-1.06636e-14 1 0
-2.39485e-15 1 0
2.13875e-14 1 0
1.66919e-14 1 0
1.16927e-15 1 0
-1.90611e-14 1 0
3.99104e-15 1 0
1.16927e-15 1 0
-1.53468e-14 1 0
3.99104e-15 1 0
1.10557e-14 1 0
-9.59017e-15 1 0
-1.35017e-14 1 0
1.5362e-14 1 0
1.75683e-14 1 0
-1.35017e-14 1 0
-1.03367e-14 1 0
1.75683e-14 1 0
1.35343e-14 1 0
-7.57972e-15 1 0
-2.03921e-14 1 0
2.44836e-15 1 0
2.1531e-14 1 0
-2.03921e-14 1 0
-6.03479e-15 1 0
2.1531e-14 1 0
9.23665e-15 1 0
-1.03367e-14 1 0
-1.2165e-14 1 0
1.35343e-14 1 0
1.83922e-14 1 0
-1.2165e-14 1 0
-6.61496e-15 1 0
1.83922e-14 1 0
8.65802e-15 1 0
-6.03479e-15 1 0
-1.64373e-14 1 0
9.23665e-15 1 0
1.98662e-14 1 0
-1.64373e-14 1 0
-3.55447e-15 1 0
1.98662e-14 1 0
1.18434e-15 1 0
-1.06636e-14 1 0
-1.599e-14 1 0
2.13875e-14 1 0
1.81556e-14 1 0
-1.599e-14 1 0
-7.67499e-15 1 0
1.81556e-14 1 0
2.34529e-15 1 0
-1.53468e-14 1 0
-1.15276e-14 1 0
1.10557e-14 1 0
1.36513e-14 1 0
-1.15276e-14 1 0
2.97926e-15 1 0
1.36513e-14 1 0
5.08457e-15 1 0
-7.67499e-15 1 0
-1.91713e-14 1 0
2.34529e-15 1 0
1.43919e-14 1 0
-1.91713e-14 1 0
-1.1586e-16 1 0
1.43919e-14 1 0
7.97821e-15 1 0
2.97926e-15 1 0
1.74104e-16 1 0
5.08457e-15 1 0
6.2364e-15 1 0
1.74104e-16 1 0
-6.89263e-15 1 0
6.2364e-15 1 0
1.03244e-14 1 0
0 1 0
1.41122e-14 1 0
0 1 0
-1.44293e-14 1 0
1.41122e-14 1 0
6.77137e-15 1 0
-1.44293e-14 1 0
1.58616e-15 1 0
0 1 0
1.16787e-14 1 0
0 1 0
-1.75754e-15 1 0
1.16787e-14 1 0
3.00605e-15 1 0
-1.75754e-15 1 0
-1.12053e-14 1 0
6.77137e-15 1 0
-5.72865e-16 1 0
1.58616e-15 1 0
1.0877e-15 1 0
-5.72865e-16 1 0
-7.94962e-15 1 0
1.0877e-15 1 0
1.8054e-14 1 0
3.00605e-15 1 0
2.61935e-15 1 0
-1.12053e-14 1 0
-1.62013e-15 1 0
2.61935e-15 1 0
-2.41514e-14 1 0
-1.62013e-15 1 0
2.22706e-14 1 0
0 1 0
4.57464e-15 1 0
0 1 0
-7.47365e-15 1 0
4.57464e-15 1 0
1.74693e-14 1 0
-7.47365e-15 1 0
-9.22141e-15 1 0
0 1 0
5.593e-15 1 0
0 1 0
-1.30531e-14 1 0
5.593e-15 1 0
9.34909e-15 1 0
-1.30531e-14 1 0
-1.57716e-14 1 0
1.74693e-14 1 0
-2.19662e-15 1 0
-9.22141e-15 1 0
1.3973e-15 1 0
-2.19662e-15 1 0
-1.52395e-14 1 0
1.3973e-15 1 0
6.41497e-15 1 0
9.34909e-15 1 0
-5.49696e-15 1 0
-1.57716e-14 1 0
9.38649e-16 1 0
-5.49696e-15 1 0
-8.71626e-15 1 0
9.38649e-16 1 0
2.4266e-15 1 0
-7.94962e-15 1 0
-1.08895e-14 1 0
1.8054e-14 1 0
9.90852e-15 1 0
-1.08895e-14 1 0
-7.93666e-15 1 0
9.90852e-15 1 0
1.27069e-14 1 0
-2.41514e-14 1 0
-4.90019e-15 1 0
2.22706e-14 1 0
1.20447e-14 1 0
-4.90019e-15 1 0
-6.35745e-15 1 0
1.20447e-14 1 0
-2.48436e-15 1 0
-7.93666e-15 1 0
-1.31336e-15 1 0
1.27069e-14 1 0
-1.12439e-15 1 0
-1.31336e-15 1 0
-7.61693e-15 1 0
-1.12439e-15 1 0
8.11642e-15 1 0
-6.35745e-15 1 0
2.2384e-15 1 0
-2.48436e-15 1 0
-3.31188e-15 1 0
2.2384e-15 1 0
-1.08264e-15 1 0
-3.31188e-15 1 0
-5.15747e-15 1 0
-1.52395e-14 1 0
-1.1604e-14 1 0
6.41497e-15 1 0
2.55363e-15 1 0
-1.1604e-14 1 0
7.31033e-15 1 0
2.55363e-15 1 0
-1.2889e-16 1 0
-8.71626e-15 1 0
-2.29099e-15 1 0
2.4266e-15 1 0
6.29147e-15 1 0
-2.29099e-15 1 0
-5.16191e-15 1 0
6.29147e-15 1 0
6.89291e-15 1 0
7.31033e-15 1 0
2.90264e-15 1 0
-1.2889e-16 1 0
2.26882e-15 1 0
2.90264e-15 1 0
3.10939e-15 1 0
2.26882e-15 1 0
4.01194e-15 1 0
-5.16191e-15 1 0
-1.6549e-15 1 0
6.89291e-15 1 0
1.01333e-14 1 0
-1.6549e-15 1 0
1.54003e-15 1 0
1.01333e-14 1 0
5.09679e-15 1 0
-6.61496e-15 1 0
-1.87443e-15 1 0
8.65802e-15 1 0
-8.73948e-17 1 0
-1.87443e-15 1 0
-1.68996e-15 1 0
-8.73948e-17 1 0
2.45238e-15 1 0
-3.55447e-15 1 0
4.89478e-15 1 0
1.18434e-15 1 0
-1.15877e-15 1 0
4.89478e-15 1 0
1.77775e-15 1 0
-1.15877e-15 1 0
2.51938e-15 1 0
-1.68996e-15 1 0
-2.91503e-15 1 0
2.45238e-15 1 0
8.54954e-15 1 0
-2.91503e-15 1 0
-1.59587e-15 1 0
8.54954e-15 1 0
1.11739e-14 1 0
1.77775e-15 1 0
-5.16995e-15 1 0
2.51938e-15 1 0
9.17399e-16 1 0
-5.16995e-15 1 0
-1.91095e-14 1 0
9.17399e-16 1 0
1.78439e-14 1 0
-1.1586e-16 1 0
-6.82805e-15 1 0
7.97821e-15 1 0
1.21357e-14 1 0
-6.82805e-15 1 0
-8.92239e-15 1 0
1.21357e-14 1 0
9.26773e-15 1 0
-6.89263e-15 1 0
-6.93202e-15 1 0
1.03244e-14 1 0
1.61069e-14 1 0
-6.93202e-15 1 0
-7.35147e-18 1 0
1.61069e-14 1 0
2.54816e-15 1 0
-8.92239e-15 1 0
-9.19569e-15 1 0
9.26773e-15 1 0
1.18634e-14 1 0
-9.19569e-15 1 0
-2.0569e-14 1 0
1.18634e-14 1 0
1.68797e-14 1 0
-7.35147e-18 1 0
-3.2117e-15 1 0
2.54816e-15 1 0
9.64658e-15 1 0
-3.2117e-15 1 0
-2.82675e-15 1 0
9.64658e-15 1 0
1.22032e-14 1 0
-1.59587e-15 1 0
-5.766e-15 1 0
1.11739e-14 1 0
1.83416e-14 1 0
-5.766e-15 1 0
-1.00333e-14 1 0
1.83416e-14 1 0
2.15138e-14 1 0
-1.91095e-14 1 0
-1.23014e-14 1 0
1.78439e-14 1 0
-3.70324e-16 1 0
-1.23014e-14 1 0
-1.71354e-14 1 0
-3.70324e-16 1 0
1.42506e-14 1 0
-1.00333e-14 1 0
-8.78773e-16 1 0
2.15138e-14 1 0
4.28038e-15 1 0
-8.78773e-16 1 0
-6.00217e-15 1 0
4.28038e-15 1 0
7.10818e-15 1 0
-1.71354e-14 1 0
-4.51881e-15 1 0
1.42506e-14 1 0
8.27777e-15 1 0
-4.51881e-15 1 0
-1.09338e-14 1 0
8.27777e-15 1 0
8.81804e-15 1 0
-2.0569e-14 1 0
-1.01753e-14 1 0
1.68797e-14 1 0
1.63156e-14 1 0
-1.01753e-14 1 0
-1.60813e-14 1 0
1.63156e-14 1 0
1.22961e-14 1 0
-2.82675e-15 1 0
-4.13445e-16 1 0
1.22032e-14 1 0
5.82201e-15 1 0
-4.13445e-16 1 0
-8.76026e-15 1 0
5.82201e-15 1 0
2.02235e-14 1 0
-1.60813e-14 1 0
-1.91242e-14 1 0
1.22961e-14 1 0
2.1114e-14 1 0
-1.91242e-14 1 0
-2.16464e-17 1 0
2.1114e-14 1 0
1.6157e-14 1 0
-8.76026e-15 1 0
-1.27961e-14 1 0
2.02235e-14 1 0
2.04494e-14 1 0
-1.27961e-14 1 0
-1.08851e-14 1 0
2.04494e-14 1 0
1.20971e-14 1 0
-7.61693e-15 1 0
-1.14509e-14 1 0
8.11642e-15 1 0
1.27957e-15 1 0
-1.14509e-14 1 0
-4.67419e-15 1 0
1.27957e-15 1 0
1.06489e-14 1 0
-1.08264e-15 1 0
9.98558e-15 1 0
-5.15747e-15 1 0
-5.33164e-15 1 0
9.98558e-15 1 0
-3.4595e-16 1 0
-5.33164e-15 1 0
-4.87626e-16 1 0
-4.67419e-15 1 0
-6.1972e-15 1 0
1.06489e-14 1 0
1.87679e-14 1 0
-6.1972e-15 1 0
-3.10235e-15 1 0
1.87679e-14 1 0
3.91981e-15 1 0
-3.4595e-16 1 0
-1.10752e-14 1 0
-4.87626e-16 1 0
5.16364e-15 1 0
-1.10752e-14 1 0
3.56872e-15 1 0
5.16364e-15 1 0
9.44179e-15 1 0
3.10939e-15 1 0
-1.30535e-16 1 0
4.01194e-15 1 0
3.68375e-15 1 0
-1.30535e-16 1 0
-1.08621e-15 1 0
3.68375e-15 1 0
9.51473e-15 1 0
1.54003e-15 1 0
1.10213e-15 1 0
5.09679e-15 1 0
2.51617e-15 1 0
1.10213e-15 1 0
-5.81449e-15 1 0
2.51617e-15 1 0
1.46354e-14 1 0
-1.08621e-15 1 0
6.90798e-16 1 0
9.51473e-15 1 0
5.9774e-15 1 0
6.90798e-16 1 0
-3.86783e-15 1 0
5.9774e-15 1 0
1.12613e-16 1 0
-5.81449e-15 1 0
-7.70983e-15 1 0
1.46354e-14 1 0
3.87612e-15 1 0
-7.70983e-15 1 0
6.11496e-15 1 0
3.87612e-15 1 0
3.92041e-15 1 0
-3.10235e-15 1 0
9.43029e-16 1 0
3.91981e-15 1 0
1.1172e-14 1 0
9.43029e-16 1 0
-7.27552e-15 1 0
1.1172e-14 1 0
1.50022e-14 1 0
3.56872e-15 1 0
6.38769e-15 1 0
9.44179e-15 1 0
-3.32487e-15 1 0
6.38769e-15 1 0
2.98942e-15 1 0
-3.32487e-15 1 0
-7.55234e-16 1 0
-7.27552e-15 1 0
-6.20253e-15 1 0
1.50022e-14 1 0
1.28267e-14 1 0
-6.20253e-15 1 0
7.76782e-15 1 0
1.28267e-14 1 0
-8.82304e-16 1 0
2.98942e-15 1 0
2.99023e-15 1 0
-7.55234e-16 1 0
4.36128e-15 1 0
2.99023e-15 1 0
4.21229e-15 1 0
4.36128e-15 1 0
7.25223e-16 1 0
-3.86783e-15 1 0
6.24855e-16 1 0
1.12613e-16 1 0
3.97382e-15 1 0
6.24855e-16 1 0
5.34749e-16 1 0
3.97382e-15 1 0
5.72656e-15 1 0
6.11496e-15 1 0
-4.93092e-15 1 0
3.92041e-15 1 0
9.61587e-15 1 0
-4.93092e-15 1 0
6.33482e-15 1 0
9.61587e-15 1 0
4.21736e-15 1 0
5.34749e-16 1 0
-5.54599e-15 1 0
5.72656e-15 1 0
1.62939e-14 1 0
-5.54599e-15 1 0
8.0857e-15 1 0
1.62939e-14 1 0
-4.08322e-15 1 0
6.33482e-15 1 0
-9.44455e-15 1 0
4.21736e-15 1 0
1.57018e-14 1 0
-9.44455e-15 1 0
1.18792e-14 1 0
1.57018e-14 1 0
-8.01098e-16 1 0
0 1 0
1.63152e-14 1 0
0 1 0
-2.07326e-14 1 0
1.63152e-14 1 0
1.31402e-14 1 0
-2.07326e-14 1 0
-1.45379e-14 1 0
0 1 0
1.92158e-14 1 0
0 1 0
-1.13669e-14 1 0
1.92158e-14 1 0
1.68263e-14 1 0
-1.13669e-14 1 0
-1.7121e-14 1 0
1.31402e-14 1 0
-2.90108e-15 1 0
-1.45379e-14 1 0
4.87989e-15 1 0
-2.90108e-15 1 0
-3.55711e-15 1 0
4.87989e-15 1 0
1.66299e-14 1 0
1.68263e-14 1 0
1.39445e-16 1 0
-1.7121e-14 1 0
4.09701e-17 1 0
1.39445e-16 1 0
-1.50994e-14 1 0
4.09701e-17 1 0
1.40418e-14 1 0
0 1 0
1.31903e-14 1 0
0 1 0
-8.88519e-15 1 0
1.31903e-14 1 0
1.77552e-14 1 0
-8.88519e-15 1 0
-1.46067e-14 1 0
0 1 0
6.64147e-15 1 0
0 1 0
-5.58124e-15 1 0
6.64147e-15 1 0
1.82873e-14 1 0
-5.58124e-15 1 0
-1.76657e-14 1 0
1.77552e-14 1 0
1.02183e-15 1 0
-1.46067e-14 1 0
-3.71812e-15 1 0
1.02183e-15 1 0
-1.30075e-14 1 0
-3.71812e-15 1 0
7.72666e-15 1 0
1.82873e-14 1 0
8.62564e-16 1 0
-1.76657e-14 1 0
1.08139e-14 1 0
8.62564e-16 1 0
-4.97501e-15 1 0
1.08139e-14 1 0
1.8014e-14 1 0
-3.55711e-15 1 0
-1.24987e-14 1 0
1.66299e-14 1 0
1.0737e-14 1 0
-1.24987e-14 1 0
-5.82663e-15 1 0
1.0737e-14 1 0
7.65606e-15 1 0
-1.50994e-14 1 0
-4.63953e-15 1 0
1.40418e-14 1 0
8.4265e-15 1 0
-4.63953e-15 1 0
-6.00435e-15 1 0
8.4265e-15 1 0
4.06955e-15 1 0
-5.82663e-15 1 0
-1.02696e-14 1 0
7.65606e-15 1 0
6.08408e-15 1 0
-1.02696e-14 1 0
-8.38714e-15 1 0
6.08408e-15 1 0
9.57273e-15 1 0
-6.00435e-15 1 0
-2.51269e-15 1 0
4.06955e-15 1 0
1.3234e-14 1 0
-2.51269e-15 1 0
-5.79589e-15 1 0
1.3234e-14 1 0
1.33177e-14 1 0
-1.30075e-14 1 0
-1.38147e-14 1 0
7.72666e-15 1 0
2.48765e-14 1 0
-1.38147e-14 1 0
-1.36173e-15 1 0
2.48765e-14 1 0
1.01773e-14 1 0
-4.97501e-15 1 0
-2.11544e-14 1 0
1.8014e-14 1 0
1.16735e-14 1 0
-2.11544e-14 1 0
-1.1723e-14 1 0
1.16735e-14 1 0
1.08335e-14 1 0
-1.36173e-15 1 0
-1.85589e-14 1 0
1.01773e-14 1 0
1.39284e-14 1 0
-1.85589e-14 1 0
-7.27458e-15 1 0
1.39284e-14 1 0
3.90022e-15 1 0
-1.1723e-14 1 0
-1.01611e-14 1 0
1.08335e-14 1 0
1.16986e-14 1 0
-1.01611e-14 1 0
-7.84775e-15 1 0
1.16986e-14 1 0
1.74713e-14 1 0
0 1 0
1.52801e-14 1 0
0 1 0
-2.05196e-14 1 0
1.52801e-14 1 0
2.03996e-14 1 0
-2.05196e-14 1 0
-1.42893e-14 1 0
0 1 0
1.5401e-14 1 0
0 1 0
-1.5884e-14 1 0
1.5401e-14 1 0
1.80533e-15 1 0
-1.5884e-14 1 0
4.20646e-15 1 0
2.03996e-14 1 0
-2.76111e-15 1 0
-1.42893e-14 1 0
-1.49534e-15 1 0
-2.76111e-15 1 0
-1.59803e-14 1 0
-1.49534e-15 1 0
2.23649e-14 1 0
1.80533e-15 1 0
6.90183e-15 1 0
4.20646e-15 1 0
-1.09555e-14 1 0
6.90183e-15 1 0
-2.40543e-14 1 0
-1.09555e-14 1 0
1.53579e-14 1 0
0 1 0
8.44536e-15 1 0
0 1 0
-1.66204e-15 1 0
8.44536e-15 1 0
5.25459e-15 1 0
-1.66204e-15 1 0
-4.13881e-15 1 0
0 1 0
8.57982e-15 1 0
0 1 0
-8.34389e-15 1 0
8.57982e-15 1 0
2.47741e-15 1 0
-8.34389e-15 1 0
-4.27402e-15 1 0
5.25459e-15 1 0
3.82059e-15 1 0
-4.13881e-15 1 0
9.60696e-15 1 0
3.82059e-15 1 0
-6.01363e-15 1 0
9.60696e-15 1 0
9.4002e-15 1 0
2.47741e-15 1 0
-2.30903e-15 1 0
-4.27402e-15 1 0
-4.21301e-15 1 0
-2.30903e-15 1 0
-9.26232e-15 1 0
-4.21301e-15 1 0
3.70232e-15 1 0
-1.59803e-14 1 0
4.47403e-16 1 0
2.23649e-14 1 0
6.246e-15 1 0
4.47403e-16 1 0
-1.35546e-14 1 0
6.246e-15 1 0
1.22729e-14 1 0
-2.40543e-14 1 0
-8.67297e-15 1 0
1.53579e-14 1 0
1.05176e-14 1 0
-8.67297e-15 1 0
-9.00176e-15 1 0
1.05176e-14 1 0
2.0497e-14 1 0
-1.35546e-14 1 0
-8.87665e-15 1 0
1.22729e-14 1 0
1.35074e-14 1 0
-8.87665e-15 1 0
-1.31884e-14 1 0
1.35074e-14 1 0
8.90753e-15 1 0
-9.00176e-15 1 0
-9.36553e-15 1 0
2.0497e-14 1 0
1.75605e-14 1 0
-9.36553e-15 1 0
-6.6739e-15 1 0
1.75605e-14 1 0
1.81623e-14 1 0
-6.01363e-15 1 0
-9.9931e-15 1 0
9.4002e-15 1 0
1.34706e-14 1 0
-9.9931e-15 1 0
-2.07018e-14 1 0
1.34706e-14 1 0
1.24236e-14 1 0
-9.26232e-15 1 0
-1.50708e-14 1 0
3.70232e-15 1 0
1.20507e-14 1 0
-1.50708e-14 1 0
-3.60226e-15 1 0
1.20507e-14 1 0
7.93318e-15 1 0
-2.07018e-14 1 0
-1.1389e-14 1 0
1.24236e-14 1 0
1.06445e-15 1 0
-1.1389e-14 1 0
-1.76973e-14 1 0
1.06445e-15 1 0
1.5532e-14 1 0
-3.60226e-15 1 0
6.18152e-16 1 0
7.93318e-15 1 0
4.68042e-15 1 0
6.18152e-16 1 0
-1.3144e-14 1 0
4.68042e-15 1 0
6.71247e-15 1 0
-8.38714e-15 1 0
2.43572e-15 1 0
9.57273e-15 1 0
2.685e-16 1 0
2.43572e-15 1 0
-1.99072e-14 1 0
2.685e-16 1 0
2.90636e-14 1 0
-5.79589e-15 1 0
1.02685e-15 1 0
1.33177e-14 1 0
3.44664e-15 1 0
1.02685e-15 1 0
-2.20519e-14 1 0
3.44664e-15 1 0
1.95468e-14 1 0
-1.99072e-14 1 0
4.18929e-16 1 0
2.90636e-14 1 0
7.29948e-15 1 0
4.18929e-16 1 0
-1.91835e-14 1 0
7.29948e-15 1 0
1.9949e-14 1 0
-2.20519e-14 1 0
-6.4562e-15 1 0
1.95468e-14 1 0
1.96792e-14 1 0
-6.4562e-15 1 0
-7.35953e-15 1 0
1.96792e-14 1 0
1.02096e-14 1 0
-7.27458e-15 1 0
5.87471e-16 1 0
3.90022e-15 1 0
8.0274e-15 1 0
5.87471e-16 1 0
-9.80515e-15 1 0
8.0274e-15 1 0
1.60937e-14 1 0
-7.84775e-15 1 0
-1.9796e-14 1 0
1.74713e-14 1 0
2.59854e-14 1 0
-1.9796e-14 1 0
-1.7308e-14 1 0
2.59854e-14 1 0
1.15743e-14 1 0
-9.80515e-15 1 0
-1.79467e-14 1 0
1.60937e-14 1 0
1.28505e-14 1 0
-1.79467e-14 1 0
-5.28612e-15 1 0
1.28505e-14 1 0
1.94785e-14 1 0
-1.7308e-14 1 0
-2.82341e-15 1 0
1.15743e-14 1 0
1.95048e-15 1 0
-2.82341e-15 1 0
-1.63969e-14 1 0
1.95048e-15 1 0
8.13161e-15 1 0
-1.91835e-14 1 0
-1.80649e-15 1 0
1.9949e-14 1 0
8.42562e-15 1 0
-1.80649e-15 1 0
-9.4802e-15 1 0
8.42562e-15 1 0
1.61293e-14 1 0
-7.35953e-15 1 0
-6.75566e-15 1 0
1.02096e-14 1 0
6.08944e-15 1 0
-6.75566e-15 1 0
-8.95267e-15 1 0
6.08944e-15 1 0
1.65154e-15 1 0
-9.4802e-15 1 0
-1.14941e-14 1 0
1.61293e-14 1 0
7.56194e-15 1 0
-1.14941e-14 1 0
-8.52594e-16 1 0
7.56194e-15 1 0
3.3363e-15 1 0
-8.95267e-15 1 0
2.69978e-15 1 0
1.65154e-15 1 0
8.53252e-15 1 0
2.69978e-15 1 0
-5.61199e-15 1 0
8.53252e-15 1 0
1.23253e-14 1 0
-5.28612e-15 1 0
-1.48791e-15 1 0
1.94785e-14 1 0
6.99454e-15 1 0
-1.48791e-15 1 0
-4.09225e-15 1 0
6.99454e-15 1 0
1.91497e-14 1 0
-1.63969e-14 1 0
-2.44944e-15 1 0
8.13161e-15 1 0
-1.26629e-16 1 0
-2.44944e-15 1 0
-1.05703e-14 1 0
-1.26629e-16 1 0
2.91586e-15 1 0
-4.09225e-15 1 0
-1.16235e-14 1 0
1.91497e-14 1 0
1.43016e-14 1 0
-1.16235e-14 1 0
-7.63691e-15 1 0
1.43016e-14 1 0
1.80557e-14 1 0
-1.05703e-14 1 0
-1.0951e-14 1 0
2.91586e-15 1 0
9.60813e-15 1 0
-1.0951e-14 1 0
-1.39189e-14 1 0
9.60813e-15 1 0
1.51923e-14 1 0
-1.31884e-14 1 0
-9.61638e-15 1 0
8.90753e-15 1 0
-2.97631e-16 1 0
-9.61638e-15 1 0
-1.1411e-14 1 0
-2.97631e-16 1 0
1.62521e-14 1 0
-6.6739e-15 1 0
-9.88356e-15 1 0
1.81623e-14 1 0
2.13322e-14 1 0
-9.88356e-15 1 0
-1.39165e-14 1 0
2.13322e-14 1 0
1.24372e-14 1 0
-1.1411e-14 1 0
-2.65179e-15 1 0
1.62521e-14 1 0
7.88277e-15 1 0
-2.65179e-15 1 0
-8.07675e-15 1 0
7.88277e-15 1 0
1.88011e-14 1 0
-1.39165e-14 1 0
-8.6241e-15 1 0
1.24372e-14 1 0
1.55353e-14 1 0
-8.6241e-15 1 0
-1.72584e-14 1 0
1.55353e-14 1 0
1.58421e-14 1 0
-1.76973e-14 1 0
-1.45933e-14 1 0
1.5532e-14 1 0
8.58895e-15 1 0
-1.45933e-14 1 0
-1.03086e-14 1 0
8.58895e-15 1 0
8.21748e-15 1 0
-1.3144e-14 1 0
-6.30782e-15 1 0
6.71247e-15 1 0
8.62637e-15 1 0
-6.30782e-15 1 0
-7.34404e-15 1 0
8.62637e-15 1 0
1.41746e-14 1 0
-1.03086e-14 1 0
-1.59032e-14 1 0
8.21748e-15 1 0
1.02805e-14 1 0
-1.59032e-14 1 0
-1.5649e-14 1 0
1.02805e-14 1 0
1.60091e-14 1 0
-7.34404e-15 1 0
-3.38335e-15 1 0
1.41746e-14 1 0
6.14696e-15 1 0
-3.38335e-15 1 0
-1.68731e-14 1 0
6.14696e-15 1 0
1.63643e-14 1 0
-8.07675e-15 1 0
2.33759e-16 1 0
1.88011e-14 1 0
1.56343e-14 1 0
2.33759e-16 1 0
9.04593e-15 1 0
1.56343e-14 1 0
4.86222e-15 1 0
-1.72584e-14 1 0
-1.88113e-14 1 0
1.58421e-14 1 0
1.6119e-14 1 0
-1.88113e-14 1 0
-1.33778e-14 1 0
1.6119e-14 1 0
1.02717e-14 1 0
9.04593e-15 1 0
-2.44995e-15 1 0
4.86222e-15 1 0
1.02884e-14 1 0
-2.44995e-15 1 0
-1.07039e-14 1 0
1.02884e-14 1 0
7.91801e-15 1 0
-1.33778e-14 1 0
-1.23054e-14 1 0
1.02717e-14 1 0
1.41657e-14 1 0
-1.23054e-14 1 0
-1.73968e-15 1 0
1.41657e-14 1 0
1.27831e-14 1 0
-1.5649e-14 1 0
-1.36086e-14 1 0
1.60091e-14 1 0
1.05978e-14 1 0
-1.36086e-14 1 0
-7.07436e-15 1 0
1.05978e-14 1 0
5.1144e-15 1 0
-1.68731e-14 1 0
-7.08487e-15 1 0
1.63643e-14 1 0
1.02733e-14 1 0
-7.08487e-15 1 0
-7.57708e-16 1 0
1.02733e-14 1 0
-2.41274e-15 1 0
-7.07436e-15 1 0
-1.26135e-14 1 0
5.1144e-15 1 0
1.87445e-14 1 0
-1.26135e-14 1 0
-1.32934e-14 1 0
1.87445e-14 1 0
1.14824e-14 1 0
-7.57708e-16 1 0
-1.78798e-14 1 0
-2.41274e-15 1 0
4.84936e-15 1 0
-1.78798e-14 1 0
-1.07159e-14 1 0
4.84936e-15 1 0
9.8893e-15 1 0
-6.00217e-15 1 0
-1.00668e-14 1 0
7.10818e-15 1 0
7.51189e-15 1 0
-1.00668e-14 1 0
-2.52165e-15 1 0
7.51189e-15 1 0
9.55009e-15 1 0
-1.09338e-14 1 0
-3.30098e-15 1 0
8.81804e-15 1 0
1.04351e-14 1 0
-3.30098e-15 1 0
-6.92728e-15 1 0
1.04351e-14 1 0
1.06313e-14 1 0
-2.52165e-15 1 0
-9.91269e-16 1 0
9.55009e-15 1 0
1.42647e-14 1 0
-9.91269e-16 1 0
-3.28042e-19 1 0
1.42647e-14 1 0
1.08186e-14 1 0
-6.92728e-15 1 0
-7.44584e-15 1 0
1.06313e-14 1 0
1.53772e-15 1 0
-7.44584e-15 1 0
-3.99756e-15 1 0
1.53772e-15 1 0
5.37294e-15 1 0
-2.16464e-17 1 0
-8.61292e-15 1 0
1.6157e-14 1 0
1.63169e-14 1 0
-8.61292e-15 1 0
-1.22547e-14 1 0
1.63169e-14 1 0
2.07973e-14 1 0
-1.08851e-14 1 0
-6.11929e-17 1 0
1.20971e-14 1 0
6.76745e-15 1 0
-6.11929e-17 1 0
-8.63115e-15 1 0
6.76745e-15 1 0
7.34374e-15 1 0
-1.22547e-14 1 0
-4.96049e-15 1 0
2.07973e-14 1 0
1.93655e-14 1 0
-4.96049e-15 1 0
-6.36085e-15 1 0
1.93655e-14 1 0
2.51545e-14 1 0
-8.63115e-15 1 0
-1.23954e-14 1 0
7.34374e-15 1 0
1.62415e-14 1 0
-1.23954e-14 1 0
-1.09766e-14 1 0
1.62415e-14 1 0
8.85905e-15 1 0
-3.28042e-19 1 0
-5.51737e-15 1 0
1.08186e-14 1 0
2.08626e-14 1 0
-5.51737e-15 1 0
9.41338e-15 1 0
2.08626e-14 1 0
4.9291e-15 1 0
-3.99756e-15 1 0
-1.57791e-14 1 0
5.37294e-15 1 0
2.47725e-14 1 0
-1.57791e-14 1 0
-6.14833e-15 1 0
2.47725e-14 1 0
1.10172e-14 1 0
9.41338e-15 1 0
5.12883e-15 1 0
4.9291e-15 1 0
-7.21251e-16 1 0
5.12883e-15 1 0
2.04887e-15 1 0
-7.21251e-16 1 0
1.06734e-14 1 0
-6.14833e-15 1 0
-1.76092e-15 1 0
1.10172e-14 1 0
1.369e-14 1 0
-1.76092e-15 1 0
-1.39061e-14 1 0
1.369e-14 1 0
1.48936e-14 1 0
-6.36085e-15 1 0
-1.74887e-14 1 0
2.51545e-14 1 0
2.19804e-14 1 0
-1.74887e-14 1 0
-2.55361e-16 1 0
2.19804e-14 1 0
1.01985e-14 1 0
-1.09766e-14 1 0
-1.26754e-14 1 0
8.85905e-15 1 0
1.87859e-14 1 0
-1.26754e-14 1 0
-6.21947e-15 1 0
1.87859e-14 1 0
1.24435e-14 1 0
-2.55361e-16 1 0
-6.0677e-15 1 0
1.01985e-14 1 0
1.60145e-14 1 0
-6.0677e-15 1 0
3.13959e-15 1 0
1.60145e-14 1 0
-5.79208e-16 1 0
-6.21947e-15 1 0
-1.29461e-15 1 0
1.24435e-14 1 0
6.98703e-15 1 0
-1.29461e-15 1 0
8.88085e-15 1 0
6.98703e-15 1 0
3.06614e-15 1 0
7.76782e-15 1 0
1.38157e-15 1 0
-8.82304e-16 1 0
3.05291e-15 1 0
1.38157e-15 1 0
8.09117e-15 1 0
3.05291e-15 1 0
7.30242e-15 1 0
4.21229e-15 1 0
1.7112e-15 1 0
7.25223e-16 1 0
1.56251e-14 1 0
1.7112e-15 1 0
7.79775e-15 1 0
1.56251e-14 1 0
-7.65196e-15 1 0
8.09117e-15 1 0
-2.47566e-15 1 0
7.30242e-15 1 0
6.09831e-15 1 0
-2.47566e-15 1 0
-5.69882e-15 1 0
6.09831e-15 1 0
1.9237e-14 1 0
7.79775e-15 1 0
3.52555e-15 1 0
-7.65196e-15 1 0
9.05754e-15 1 0
3.52555e-15 1 0
-5.91637e-15 1 0
9.05754e-15 1 0
5.16241e-15 1 0
8.0857e-15 1 0
-1.02936e-14 1 0
-4.08322e-15 1 0
1.66665e-16 1 0
-1.02936e-14 1 0
5.49394e-15 1 0
1.66665e-16 1 0
5.26407e-16 1 0
1.18792e-14 1 0
7.62343e-15 1 0
-8.01098e-16 1 0
1.27643e-14 1 0
7.62343e-15 1 0
7.85971e-15 1 0
1.27643e-14 1 0
4.94054e-15 1 0
5.49394e-15 1 0
-3.21645e-15 1 0
5.26407e-16 1 0
8.58275e-15 1 0
-3.21645e-15 1 0
-2.0677e-15 1 0
8.58275e-15 1 0
1.74677e-14 1 0
7.85971e-15 1 0
-2.69667e-15 1 0
4.94054e-15 1 0
1.4118e-14 1 0
-2.69667e-15 1 0
-6.58971e-15 1 0
1.4118e-14 1 0
1.42815e-14 1 0
-5.69882e-15 1 0
-1.39158e-14 1 0
1.9237e-14 1 0
1.60121e-14 1 0
-1.39158e-14 1 0
-3.02535e-16 1 0
1.60121e-14 1 0
1.12646e-14 1 0
-5.91637e-15 1 0
1.8194e-15 1 0
5.16241e-15 1 0
-2.66257e-15 1 0
1.8194e-15 1 0
3.73945e-16 1 0
-2.66257e-15 1 0
-8.25354e-15 1 0
-3.02535e-16 1 0
8.83081e-15 1 0
1.12646e-14 1 0
5.11912e-15 1 0
8.83081e-15 1 0
1.65441e-14 1 0
5.11912e-15 1 0
-4.27253e-15 1 0
3.73945e-16 1 0
1.03699e-14 1 0
-8.25354e-15 1 0