# vtk DataFile Version 3.0
#This file was generated by the deal.II library on 2018/10/24 at 17:21:31
ASCII
DATASET UNSTRUCTURED_GRID

POINTS 20480 double
0 0 0
0.19635 0 0
0 0.31249 0
0.19635 0.31249 0
0.19635 0 0
0.392699 0 0
0.19635 0.31249 0
0.392699 0.31249 0
0 0.31249 0
0.19635 0.31249 0
0 0.62499 0
0.19635 0.62499 0
0.19635 0.31249 0
0.392699 0.31249 0
0.19635 0.62499 0
0.392699 0.62499 0
0.392699 0 0
0.589049 0 0
0.392699 0.31249 0
0.589049 0.31249 0
0.589049 0 0
0.785398 0 0
0.589049 0.31249 0
0.785398 0.31249 0
0.392699 0.31249 0
0.589049 0.31249 0
0.392699 0.62499 0
0.589049 0.62499 0
0.589049 0.31249 0
0.785398 0.31249 0
0.589049 0.62499 0
0.785398 0.62499 0
0 0.62499 0
0.19635 0.62499 0
0 0.93749 0
0.19635 0.93749 0
0.19635 0.62499 0
0.392699 0.62499 0
0.19635 0.93749 0
0.392699 0.93749 0
0 0.93749 0
0.19635 0.93749 0
0 1.24999 0
0.19635 1.24999 0
0.19635 0.93749 0
0.392699 0.93749 0
0.19635 1.24999 0
0.392699 1.24999 0
0.392699 0.62499 0
0.589049 0.62499 0
0.392699 0.93749 0
0.589049 0.93749 0
0.589049 0.62499 0
0.785398 0.62499 0
0.589049 0.93749 0
0.785398 0.93749 0
0.392699 0.93749 0
0.589049 0.93749 0
0.392699 1.24999 0
0.589049 1.24999 0
0.589049 0.93749 0
0.785398 0.93749 0
0.589049 1.24999 0
0.785398 1.24999 0
0.785398 0 0
0.981748 0 0
0.785398 0.31249 0
0.981748 0.31249 0
0.981748 0 0
1.1781 0 0
0.981748 0.31249 0
1.1781 0.31249 0
0.785398 0.31249 0
0.981748 0.31249 0
0.785398 0.62499 0
0.981748 0.62499 0
0.981748 0.31249 0
1.1781 0.31249 0
0.981748 0.62499 0
1.1781 0.62499 0
1.1781 0 0
1.37445 0 0
1.1781 0.31249 0
1.37445 0.31249 0
1.37445 0 0
1.5708 0 0
1.37445 0.31249 0
1.5708 0.31249 0
1.1781 0.31249 0
1.37445 0.31249 0
1.1781 0.62499 0
1.37445 0.62499 0
1.37445 0.31249 0
1.5708 0.31249 0
1.37445 0.62499 0
1.5708 0.62499 0
0.785398 0.62499 0
0.981748 0.62499 0
0.785398 0.93749 0
0.981748 0.93749 0
0.981748 0.62499 0
1.1781 0.62499 0
0.981748 0.93749 0
1.1781 0.93749 0
0.785398 0.93749 0
0.981748 0.93749 0
0.785398 1.24999 0
0.981748 1.24999 0
0.981748 0.93749 0
1.1781 0.93749 0
0.981748 1.24999 0
1.1781 1.24999 0
1.1781 0.62499 0
1.37445 0.62499 0
1.1781 0.93749 0
1.37445 0.93749 0
1.37445 0.62499 0
1.5708 0.62499 0
1.37445 0.93749 0
1.5708 0.93749 0
1.1781 0.93749 0
1.37445 0.93749 0
1.1781 1.24999 0
1.37445 1.24999 0
1.37445 0.93749 0
1.5708 0.93749 0
1.37445 1.24999 0
1.5708 1.24999 0
0 1.24999 0
0.19635 1.24999 0
0 1.56249 0
0.19635 1.56249 0
0.19635 1.24999 0
0.392699 1.24999 0
0.19635 1.56249 0
0.392699 1.56249 0
0 1.56249 0
0.19635 1.56249 0
0 1.87499 0
0.19635 1.87499 0
0.19635 1.56249 0
0.392699 1.56249 0
0.19635 1.87499 0
0.392699 1.87499 0
0.392699 1.24999 0
0.589049 1.24999 0
0.392699 1.56249 0
0.589049 1.56249 0
0.589049 1.24999 0
0.785398 1.24999 0
0.589049 1.56249 0
0.785398 1.56249 0
0.392699 1.56249 0
0.589049 1.56249 0
0.392699 1.87499 0
0.589049 1.87499 0
0.589049 1.56249 0
0.785398 1.56249 0
0.589049 1.87499 0
0.785398 1.87499 0
0 1.87499 0
0.19635 1.87499 0
0 2.18749 0
0.19635 2.18749 0
0.19635 1.87499 0
0.392699 1.87499 0
0.19635 2.18749 0
0.392699 2.18749 0
0 2.18749 0
0.19635 2.18749 0
0 2.49999 0
0.19635 2.49999 0
0.19635 2.18749 0
0.392699 2.18749 0
0.19635 2.49999 0
0.392699 2.49999 0
0.392699 1.87499 0
0.589049 1.87499 0
0.392699 2.18749 0
0.589049 2.18749 0
0.589049 1.87499 0
0.785398 1.87499 0
0.589049 2.18749 0
0.785398 2.18749 0
0.392699 2.18749 0
0.589049 2.18749 0
0.392699 2.49999 0
0.589049 2.49999 0
0.589049 2.18749 0
0.785398 2.18749 0
0.589049 2.49999 0
0.785398 2.49999 0
0.785398 1.24999 0
0.981748 1.24999 0
0.785398 1.56249 0
0.981748 1.56249 0
0.981748 1.24999 0
1.1781 1.24999 0
0.981748 1.56249 0
1.1781 1.56249 0
0.785398 1.56249 0
0.981748 1.56249 0
0.785398 1.87499 0
0.981748 1.87499 0
0.981748 1.56249 0
1.1781 1.56249 0
0.981748 1.87499 0
1.1781 1.87499 0
1.1781 1.24999 0
1.37445 1.24999 0
1.1781 1.56249 0
1.37445 1.56249 0
1.37445 1.24999 0
1.5708 1.24999 0
1.37445 1.56249 0
1.5708 1.56249 0
1.1781 1.56249 0
1.37445 1.56249 0
1.1781 1.87499 0
1.37445 1.87499 0
1.37445 1.56249 0
1.5708 1.56249 0
1.37445 1.87499 0
1.5708 1.87499 0
0.785398 1.87499 0
0.981748 1.87499 0
0.785398 2.18749 0
0.981748 2.18749 0
0.981748 1.87499 0
1.1781 1.87499 0
0.981748 2.18749 0
1.1781 2.18749 0
0.785398 2.18749 0
0.981748 2.18749 0
0.785398 2.49999 0
0.981748 2.49999 0
0.981748 2.18749 0
1.1781 2.18749 0
0.981748 2.49999 0
1.1781 2.49999 0
1.1781 1.87499 0
1.37445 1.87499 0
1.1781 2.18749 0
1.37445 2.18749 0
1.37445 1.87499 0
1.5708 1.87499 0
1.37445 2.18749 0
1.5708 2.18749 0
1.1781 2.18749 0
1.37445 2.18749 0
1.1781 2.49999 0
1.37445 2.49999 0
1.37445 2.18749 0
1.5708 2.18749 0
1.37445 2.49999 0
1.5708 2.49999 0
1.5708 0 0
1.76715 0 0
1.5708 0.31249 0
1.76715 0.31249 0
1.76715 0 0
1.9635 0 0
1.76715 0.31249 0
1.9635 0.31249 0
1.5708 0.31249 0
1.76715 0.31249 0
1.5708 0.62499 0
1.76715 0.62499 0
1.76715 0.31249 0
1.9635 0.31249 0
1.76715 0.62499 0
1.9635 0.62499 0
1.9635 0 0
2.15984 0 0
1.9635 0.31249 0
2.15984 0.31249 0
2.15984 0 0
2.35619 0 0
2.15984 0.31249 0
2.35619 0.31249 0
1.9635 0.31249 0
2.15984 0.31249 0
1.9635 0.62499 0
2.15984 0.62499 0
2.15984 0.31249 0
2.35619 0.31249 0
2.15984 0.62499 0
2.35619 0.62499 0
1.5708 0.62499 0
1.76715 0.62499 0
1.5708 0.93749 0
1.76715 0.93749 0
1.76715 0.62499 0
1.9635 0.62499 0
1.76715 0.93749 0
1.9635 0.93749 0
1.5708 0.93749 0
1.76715 0.93749 0
1.5708 1.24999 0
1.76715 1.24999 0
1.76715 0.93749 0
1.9635 0.93749 0
1.76715 1.24999 0
1.9635 1.24999 0
1.9635 0.62499 0
2.15984 0.62499 0
1.9635 0.93749 0
2.15984 0.93749 0
2.15984 0.62499 0
2.35619 0.62499 0
2.15984 0.93749 0
2.35619 0.93749 0
1.9635 0.93749 0
2.15984 0.93749 0
1.9635 1.24999 0
2.15984 1.24999 0
2.15984 0.93749 0
2.35619 0.93749 0
2.15984 1.24999 0
2.35619 1.24999 0
2.35619 0 0
2.55254 0 0
2.35619 0.31249 0
2.55254 0.31249 0
2.55254 0 0
2.74889 0 0
2.55254 0.31249 0
2.74889 0.31249 0
2.35619 0.31249 0
2.55254 0.31249 0
2.35619 0.62499 0
2.55254 0.62499 0
2.55254 0.31249 0
2.74889 0.31249 0
2.55254 0.62499 0
2.74889 0.62499 0
2.74889 0 0
2.94524 0 0
2.74889 0.31249 0
2.94524 0.31249 0
2.94524 0 0
3.14159 0 0
2.94524 0.31249 0
3.14159 0.31249 0
2.74889 0.31249 0
2.94524 0.31249 0
2.74889 0.62499 0
2.94524 0.62499 0
2.94524 0.31249 0
3.14159 0.31249 0
2.94524 0.62499 0
3.14159 0.62499 0
2.35619 0.62499 0
2.55254 0.62499 0
2.35619 0.93749 0
2.55254 0.93749 0
2.55254 0.62499 0
2.74889 0.62499 0
2.55254 0.93749 0
2.74889 0.93749 0
2.35619 0.93749 0
2.55254 0.93749 0
2.35619 1.24999 0
2.55254 1.24999 0
2.55254 0.93749 0
2.74889 0.93749 0
2.55254 1.24999 0
2.74889 1.24999 0
2.74889 0.62499 0
2.94524 0.62499 0
2.74889 0.93749 0
2.94524 0.93749 0
2.94524 0.62499 0
3.14159 0.62499 0
2.94524 0.93749 0
3.14159 0.93749 0
2.74889 0.93749 0
2.94524 0.93749 0
2.74889 1.24999 0
2.94524 1.24999 0
2.94524 0.93749 0
3.14159 0.93749 0
2.94524 1.24999 0
3.14159 1.24999 0
1.5708 1.24999 0
1.76715 1.24999 0
1.5708 1.56249 0
1.76715 1.56249 0
1.76715 1.24999 0
1.9635 1.24999 0
1.76715 1.56249 0
1.9635 1.56249 0
1.5708 1.56249 0
1.76715 1.56249 0
1.5708 1.87499 0
1.76715 1.87499 0
1.76715 1.56249 0
1.9635 1.56249 0
1.76715 1.87499 0
1.9635 1.87499 0
1.9635 1.24999 0
2.15984 1.24999 0
1.9635 1.56249 0
2.15984 1.56249 0
2.15984 1.24999 0
2.35619 1.24999 0
2.15984 1.56249 0
2.35619 1.56249 0
1.9635 1.56249 0
2.15984 1.56249 0
1.9635 1.87499 0
2.15984 1.87499 0
2.15984 1.56249 0
2.35619 1.56249 0
2.15984 1.87499 0
2.35619 1.87499 0
1.5708 1.87499 0
1.76715 1.87499 0
1.5708 2.18749 0
1.76715 2.18749 0
1.76715 1.87499 0
1.9635 1.87499 0
1.76715 2.18749 0
1.9635 2.18749 0
1.5708 2.18749 0
1.76715 2.18749 0
1.5708 2.49999 0
1.76715 2.49999 0
1.76715 2.18749 0
1.9635 2.18749 0
1.76715 2.49999 0
1.9635 2.49999 0
1.9635 1.87499 0
2.15984 1.87499 0
1.9635 2.18749 0
2.15984 2.18749 0
2.15984 1.87499 0
2.35619 1.87499 0
2.15984 2.18749 0
2.35619 2.18749 0
1.9635 2.18749 0
2.15984 2.18749 0
1.9635 2.49999 0
2.15984 2.49999 0
2.15984 2.18749 0
2.35619 2.18749 0
2.15984 2.49999 0
2.35619 2.49999 0
2.35619 1.24999 0
2.55254 1.24999 0
2.35619 1.56249 0
2.55254 1.56249 0
2.55254 1.24999 0
2.74889 1.24999 0
2.55254 1.56249 0
2.74889 1.56249 0
2.35619 1.56249 0
2.55254 1.56249 0
2.35619 1.87499 0
2.55254 1.87499 0
2.55254 1.56249 0
2.74889 1.56249 0
2.55254 1.87499 0
2.74889 1.87499 0
2.74889 1.24999 0
2.94524 1.24999 0
2.74889 1.56249 0
2.94524 1.56249 0
2.94524 1.24999 0
3.14159 1.24999 0
2.94524 1.56249 0
3.14159 1.56249 0
2.74889 1.56249 0
2.94524 1.56249 0
2.74889 1.87499 0
2.94524 1.87499 0
2.94524 1.56249 0
3.14159 1.56249 0
2.94524 1.87499 0
3.14159 1.87499 0
2.35619 1.87499 0
2.55254 1.87499 0
2.35619 2.18749 0
2.55254 2.18749 0
2.55254 1.87499 0
2.74889 1.87499 0
2.55254 2.18749 0
2.74889 2.18749 0
2.35619 2.18749 0
2.55254 2.18749 0
2.35619 2.49999 0
2.55254 2.49999 0
2.55254 2.18749 0
2.74889 2.18749 0
2.55254 2.49999 0
2.74889 2.49999 0
2.74889 1.87499 0
2.94524 1.87499 0
2.74889 2.18749 0
2.94524 2.18749 0
2.94524 1.87499 0
3.14159 1.87499 0
2.94524 2.18749 0
3.14159 2.18749 0
2.74889 2.18749 0
2.94524 2.18749 0
2.74889 2.49999 0
2.94524 2.49999 0
2.94524 2.18749 0
3.14159 2.18749 0
2.94524 2.49999 0
3.14159 2.49999 0
0 2.49999 0
0.19635 2.49999 0
0 2.81249 0
0.19635 2.81249 0
0.19635 2.49999 0
0.392699 2.49999 0
0.19635 2.81249 0
0.392699 2.81249 0
0 2.81249 0
0.19635 2.81249 0
0 3.12499 0
0.19635 3.12499 0
0.19635 2.81249 0
0.392699 2.81249 0
0.19635 3.12499 0
0.392699 3.12499 0
0.392699 2.49999 0
0.589049 2.49999 0
0.392699 2.81249 0
0.589049 2.81249 0
0.589049 2.49999 0
0.785398 2.49999 0
0.589049 2.81249 0
0.785398 2.81249 0
0.392699 2.81249 0
0.589049 2.81249 0
0.392699 3.12499 0
0.589049 3.12499 0
0.589049 2.81249 0
0.785398 2.81249 0
0.589049 3.12499 0
0.785398 3.12499 0
0 3.12499 0
0.19635 3.12499 0
0 3.43749 0
0.19635 3.43749 0
0.19635 3.12499 0
0.392699 3.12499 0
0.19635 3.43749 0
0.392699 3.43749 0
0 3.43749 0
0.19635 3.43749 0
0 3.74999 0
0.19635 3.74999 0
0.19635 3.43749 0
0.392699 3.43749 0
0.19635 3.74999 0
0.392699 3.74999 0
0.392699 3.12499 0
0.589049 3.12499 0
[...]
POINT_DATA 20480
VECTORS uf double
0 1 0
6.02167e-16 1 0
0 1.00001 0
-2.4854e-15 1.00001 0
6.02167e-16 1 0
-2.12359e-14 1 0
-2.4854e-15 1.00001 0
1.93313e-14 1.00001 0
0 1.00001 0
1.33619e-14 1.00001 0
0 1 0
-3.04349e-14 1 0
1.33619e-14 1.00001 0
-1.5411e-14 1.00001 0
-3.04349e-14 1 0
2.43438e-14 1 0
-2.12359e-14 1 0
-5.99201e-14 1 0
1.93313e-14 1.00001 0
8.46578e-14 1.00001 0
-5.99201e-14 1 0
-7.98069e-14 1 0
8.46578e-14 1.00001 0
1.12441e-13 1.00001 0
-1.5411e-14 1.00001 0
-7.86236e-14 1.00001 0
2.43438e-14 1 0
8.26045e-14 1 0
-7.86236e-14 1.00001 0
-8.09149e-14 1.00001 0
8.26045e-14 1 0
7.53723e-14 1 0
0 1 0
2.56277e-14 1 0
0 1 0
-1.05944e-14 1 0
2.56277e-14 1 0
-2.21406e-14 1 0
-1.05944e-14 1 0
2.68499e-14 1 0
0 1 0
1.31107e-14 1 0
0 1 0
-1.55184e-14 1 0
1.31107e-14 1 0
-2.70949e-14 1 0
-1.55184e-14 1 0
3.05184e-14 1 0
-2.21406e-14 1 0
-6.84926e-14 1 0
2.68499e-14 1 0
6.81061e-14 1 0
-6.84926e-14 1 0
-7.40291e-14 1 0
6.81061e-14 1 0
8.46153e-14 1 0
-2.70949e-14 1 0
-8.44042e-14 1 0
3.05184e-14 1 0
9.07585e-14 1 0
-8.44042e-14 1 0
-1.13506e-13 1 0
9.07585e-14 1 0
1.16221e-13 1 0
-7.98069e-14 1 0
-3.77758e-14 1 0
1.12441e-13 1.00001 0
4.43509e-14 1.00001 0
-3.77758e-14 1 0
-6.41643e-14 1 0
4.43509e-14 1.00001 0
8.59295e-14 1.00001 0
-8.09149e-14 1.00001 0
-2.23894e-14 1.00001 0
7.53723e-14 1 0
2.40136e-14 1 0
-2.23894e-14 1.00001 0
-7.57093e-14 1.00001 0
2.40136e-14 1 0
7.74611e-14 1 0
-6.41643e-14 1 0
-7.00561e-14 1 0
8.59295e-14 1.00001 0
8.26654e-14 1.00001 0
-7.00561e-14 1 0
-7.4559e-14 1 0
8.26654e-14 1.00001 0
8.95128e-14 1.00001 0
-7.57093e-14 1.00001 0
-6.78921e-14 1.00001 0
7.74611e-14 1 0
9.28047e-14 1 0
-6.78921e-14 1.00001 0
-5.19693e-14 1.00001 0
9.28047e-14 1 0
6.47216e-14 1 0
-7.40291e-14 1 0
-1.68917e-14 1 0
8.46153e-14 1 0
2.09704e-14 1 0
-1.68917e-14 1 0
-9.07115e-14 1 0
2.09704e-14 1 0
9.80949e-14 1 0
-1.13506e-13 1 0
-6.00536e-14 1 0
1.16221e-13 1 0
7.87263e-14 1 0
-6.00536e-14 1 0
-9.56008e-14 1 0
7.87263e-14 1 0
9.63375e-14 1 0
-9.07115e-14 1 0
-1.02489e-13 1 0
9.80949e-14 1 0
9.67031e-14 1 0
-1.02489e-13 1 0
-9.49188e-14 1 0
9.67031e-14 1 0
1.00925e-13 1 0
-9.56008e-14 1 0
-8.84699e-14 1 0
9.63375e-14 1 0
9.09053e-14 1 0
-8.84699e-14 1 0
-9.32964e-14 1 0
9.09053e-14 1 0
8.8648e-14 1 0
0 1 0
2.81326e-14 1 0
0 1 0
-3.74837e-14 1 0
2.81326e-14 1 0
-2.50516e-14 1 0
-3.74837e-14 1 0
9.34831e-15 1 0
0 1 0
3.28162e-14 1 0
0 1 0
-2.64566e-14 1 0
3.28162e-14 1 0
-1.07909e-14 1 0
-2.64566e-14 1 0
1.2473e-14 1 0
-2.50516e-14 1 0
-1.29162e-13 1 0
9.34831e-15 1 0
1.40889e-13 1 0
-1.29162e-13 1 0
-1.41307e-13 1 0
1.40889e-13 1 0
1.45694e-13 1 0
-1.07909e-14 1 0
-1.23813e-13 1 0
1.2473e-14 1 0
1.04244e-13 1 0
-1.23813e-13 1 0
-1.32075e-13 1 0
1.04244e-13 1 0
1.22556e-13 1 0
0 1 0
1.44314e-14 1 0
0 1 0
-4.12914e-15 1 0
1.44314e-14 1 0
-3.99338e-15 1 0
-4.12914e-15 1 0
1.11287e-14 1 0
0 1 0
1.51923e-14 1 0
0 1 0
-2.15526e-14 1 0
1.51923e-14 1 0
-2.28117e-14 1 0
-2.15526e-14 1 0
1.93113e-14 1 0
-3.99338e-15 1 0
-8.17622e-14 1 0
1.11287e-14 1 0
7.9937e-14 1 0
-8.17622e-14 1 0
-1.02572e-13 1 0
7.9937e-14 1 0
9.91788e-14 1 0
-2.28117e-14 1 0
-6.6092e-14 1 0
1.93113e-14 1 0
6.86058e-14 1 0
-6.6092e-14 1 0
-7.32502e-14 1 0
6.86058e-14 1 0
7.23546e-14 1 0
-1.41307e-13 1 0
-1.03527e-13 1 0
1.45694e-13 1 0
1.05038e-13 1 0
-1.03527e-13 1 0
-9.34072e-14 1 0
1.05038e-13 1 0
8.73131e-14 1 0
-1.32075e-13 1 0
-1.02747e-13 1 0
1.22556e-13 1 0
1.03206e-13 1 0
-1.02747e-13 1 0
-7.20226e-14 1 0
1.03206e-13 1 0
7.67182e-14 1 0
-9.34072e-14 1 0
-9.10875e-14 1 0
8.73131e-14 1 0
8.73817e-14 1 0
-9.10875e-14 1 0
-8.72189e-14 1 0
8.73817e-14 1 0
9.57006e-14 1 0
-7.20226e-14 1 0
-8.0191e-14 1 0
7.67182e-14 1 0
8.51431e-14 1 0
-8.0191e-14 1 0
-1.01206e-13 1 0
8.51431e-14 1 0
1.04679e-13 1 0
-1.02572e-13 1 0
-7.72374e-14 1 0
9.91788e-14 1 0
7.04417e-14 1 0
-7.72374e-14 1 0
-6.39393e-14 1 0
7.04417e-14 1 0
6.35552e-14 1 0
-7.32502e-14 1 0
-7.12074e-14 1 0
7.23546e-14 1 0
6.47094e-14 1 0
-7.12074e-14 1 0
-7.32379e-14 1 0
6.47094e-14 1 0
8.03882e-14 1 0
-6.39393e-14 1 0
-6.98293e-14 1 0
6.35552e-14 1 0
6.90996e-14 1 0
-6.98293e-14 1 0
-7.75542e-14 1 0
6.90996e-14 1 0
7.21776e-14 1 0
-7.32379e-14 1 0
-7.34309e-14 1 0
8.03882e-14 1 0
8.28452e-14 1 0
-7.34309e-14 1 0
-7.60947e-14 1 0
8.28452e-14 1 0
8.80258e-14 1 0
-7.4559e-14 1 0
-8.19861e-14 1 0
8.95128e-14 1.00001 0
1.07869e-13 1.00001 0
-8.19861e-14 1 0
-8.29954e-14 1 0
1.07869e-13 1.00001 0
1.2223e-13 1.00001 0
-5.19693e-14 1.00001 0
-9.89453e-14 1.00001 0
6.47216e-14 1 0
1.02673e-13 1 0
-9.89453e-14 1.00001 0
-1.08155e-13 1.00001 0
1.02673e-13 1 0
1.02179e-13 1 0
-8.29954e-14 1 0
-9.16301e-14 1 0
1.2223e-13 1.00001 0
1.25337e-13 1.00001 0
-9.16301e-14 1 0
-7.61427e-14 1 0
1.25337e-13 1.00001 0
1.0692e-13 1.00001 0
-1.08155e-13 1.00001 0
-9.76738e-14 1.00001 0
1.02179e-13 1 0
1.00441e-13 1 0
-9.76738e-14 1.00001 0
-1.08835e-13 1.00001 0
1.00441e-13 1 0
1.08065e-13 1 0
-9.49188e-14 1 0
-1.00566e-13 1 0
1.00925e-13 1 0
1.00378e-13 1 0
-1.00566e-13 1 0
-9.18364e-14 1 0
1.00378e-13 1 0
8.1154e-14 1 0
-9.32964e-14 1 0
-9.74203e-14 1 0
8.8648e-14 1 0
1.06261e-13 1 0
-9.74203e-14 1 0
-8.81528e-14 1 0
1.06261e-13 1 0
1.1601e-13 1 0
-9.18364e-14 1 0
-1.23329e-13 1 0
8.1154e-14 1 0
1.2085e-13 1 0
-1.23329e-13 1 0
-1.07397e-13 1 0
1.2085e-13 1 0
1.13745e-13 1 0
-8.81528e-14 1 0
-9.38756e-14 1 0
1.1601e-13 1 0
9.56385e-14 1 0
-9.38756e-14 1 0
-8.70231e-14 1 0
9.56385e-14 1 0
9.73219e-14 1 0
-7.61427e-14 1 0
-7.00571e-14 1 0
1.0692e-13 1.00001 0
9.99595e-14 1.00001 0
-7.00571e-14 1 0
-8.5126e-14 1 0
9.99595e-14 1.00001 0
1.05765e-13 1.00001 0
-1.08835e-13 1.00001 0
-1.09018e-13 1.00001 0
1.08065e-13 1 0
1.25388e-13 1 0
-1.09018e-13 1.00001 0
-8.24431e-14 1.00001 0
1.25388e-13 1 0
9.74309e-14 1 0
-8.5126e-14 1 0
-9.26547e-14 1 0
1.05765e-13 1.00001 0
1.24649e-13 1.00001 0
-9.26547e-14 1 0
-4.76904e-14 1 0
1.24649e-13 1.00001 0
6.0031e-14 1.00001 0
-8.24431e-14 1.00001 0
-9.07664e-14 1.00001 0
9.74309e-14 1 0
8.2484e-14 1 0
-9.07664e-14 1.00001 0
-4.9552e-14 1.00001 0
8.2484e-14 1 0
5.4663e-14 1 0
-1.07397e-13 1 0
-1.29257e-13 1 0
1.13745e-13 1 0
1.16433e-13 1 0
-1.29257e-13 1 0
-1.18034e-13 1 0
1.16433e-13 1 0
1.13357e-13 1 0
-8.70231e-14 1 0
-6.97094e-14 1 0
9.73219e-14 1 0
7.24804e-14 1 0
-6.97094e-14 1 0
-7.95713e-14 1 0
7.24804e-14 1 0
8.07964e-14 1 0
-1.18034e-13 1 0
-1.1424e-13 1 0
1.13357e-13 1 0
1.30485e-13 1 0
-1.1424e-13 1 0
-9.0074e-14 1 0
1.30485e-13 1 0
1.11695e-13 1 0
-7.95713e-14 1 0
-9.33958e-14 1 0
8.07964e-14 1 0
7.57328e-14 1 0
-9.33958e-14 1 0
-8.75724e-14 1 0
7.57328e-14 1 0
8.43883e-14 1 0
-8.72189e-14 1 0
-1.06062e-13 1 0
9.57006e-14 1 0
1.09549e-13 1 0
-1.06062e-13 1 0
-1.05919e-13 1 0
1.09549e-13 1 0
9.0235e-14 1 0
-1.01206e-13 1 0
-1.08911e-13 1 0
1.04679e-13 1 0
1.05326e-13 1 0
-1.08911e-13 1 0
-9.44063e-14 1 0
1.05326e-13 1 0
1.0213e-13 1 0
-1.05919e-13 1 0
-8.38601e-14 1 0
9.0235e-14 1 0
7.592e-14 1 0
-8.38601e-14 1 0
-9.38723e-14 1 0
7.592e-14 1 0
8.5329e-14 1 0
-9.44063e-14 1 0
-8.23146e-14 1 0
1.0213e-13 1 0
1.01433e-13 1 0
-8.23146e-14 1 0
-9.24893e-14 1 0
1.01433e-13 1 0
1.00856e-13 1 0
-7.75542e-14 1 0
-6.62761e-14 1 0
7.21776e-14 1 0
7.26663e-14 1 0
-6.62761e-14 1 0
-6.90597e-14 1 0
7.26663e-14 1 0
6.59292e-14 1 0
-7.60947e-14 1 0
-7.90974e-14 1 0
8.80258e-14 1 0
7.98882e-14 1 0
-7.90974e-14 1 0
-6.80319e-14 1 0
7.98882e-14 1 0
8.27704e-14 1 0
-6.90597e-14 1 0
-8.19895e-14 1 0
6.59292e-14 1 0
8.31569e-14 1 0
-8.19895e-14 1 0
-7.55156e-14 1 0
8.31569e-14 1 0
7.57632e-14 1 0
-6.80319e-14 1 0
-6.48193e-14 1 0
8.27704e-14 1 0
6.01858e-14 1 0
-6.48193e-14 1 0
-7.08173e-14 1 0
6.01858e-14 1 0
6.84141e-14 1 0
-9.38723e-14 1 0
-6.38833e-14 1 0
8.5329e-14 1 0
6.3415e-14 1 0
-6.38833e-14 1 0
-6.75468e-14 1 0
6.3415e-14 1 0
7.55295e-14 1 0
-9.24893e-14 1 0
-9.20894e-14 1 0
1.00856e-13 1 0
1.05672e-13 1 0
-9.20894e-14 1 0
-8.95387e-14 1 0
1.05672e-13 1 0
9.74731e-14 1 0
-6.75468e-14 1 0
-2.84329e-14 1 0
7.55295e-14 1 0
3.64817e-14 1 0
-2.84329e-14 1 0
-7.15194e-14 1 0
3.64817e-14 1 0
8.58893e-14 1 0
-8.95387e-14 1 0
-7.68677e-14 1 0
9.74731e-14 1 0
9.51332e-14 1 0
-7.68677e-14 1 0
-9.7227e-14 1 0
9.51332e-14 1 0
9.30632e-14 1 0
-7.55156e-14 1 0
-7.8065e-14 1 0
7.57632e-14 1 0
8.24795e-14 1 0
-7.8065e-14 1 0
-6.51784e-14 1 0
8.24795e-14 1 0
6.2933e-14 1 0
-7.08173e-14 1 0
-9.38788e-14 1 0
6.84141e-14 1 0
9.01355e-14 1 0
-9.38788e-14 1 0
-5.12479e-14 1 0
9.01355e-14 1 0
4.96787e-14 1 0
-6.51784e-14 1 0
-7.17952e-14 1 0
6.2933e-14 1 0
6.75293e-14 1 0
-7.17952e-14 1 0
-7.12891e-14 1 0
6.75293e-14 1 0
7.44793e-14 1 0
-5.12479e-14 1 0
-1.75183e-14 1 0
4.96787e-14 1 0
2.12695e-14 1 0
-1.75183e-14 1 0
-4.69248e-14 1 0
2.12695e-14 1 0
6.32478e-14 1 0
0 1 0
2.64103e-14 1 0
0 1 0
-2.25652e-14 1 0
2.64103e-14 1 0
-5.60913e-15 1 0
-2.25652e-14 1 0
1.12504e-14 1 0
0 1 0
2.13674e-14 1 0
0 1 0
-2.54085e-14 1 0
2.13674e-14 1 0
-1.73401e-14 1 0
-2.54085e-14 1 0
1.95152e-14 1 0
-5.60913e-15 1 0
-6.16592e-14 1 0
1.12504e-14 1 0
6.37867e-14 1 0
-6.16592e-14 1 0
-6.4902e-14 1 0
6.37867e-14 1 0
7.3018e-14 1 0
-1.73401e-14 1 0
-6.6743e-14 1 0
1.95152e-14 1 0
7.04549e-14 1 0
-6.6743e-14 1 0
-7.62533e-14 1 0
7.04549e-14 1 0
7.92282e-14 1 0
0 1 0
2.343e-14 1 0
0 1 0
-2.11596e-14 1 0
2.343e-14 1 0
-1.61859e-14 1 0
-2.11596e-14 1 0
1.852e-14 1 0
0 1 0
1.58234e-14 1 0
0 1 0
-1.4947e-14 1 0
1.58234e-14 1 0
-2.6255e-14 1 0
-1.4947e-14 1 0
2.37967e-14 1 0
-1.61859e-14 1 0
-7.73392e-14 1 0
1.852e-14 1 0
7.7675e-14 1 0
-7.73392e-14 1 0
-9.42178e-14 1 0
7.7675e-14 1 0
9.07345e-14 1 0
-2.6255e-14 1 0
-7.83693e-14 1 0
2.37967e-14 1 0
7.44564e-14 1 0
-7.83693e-14 1 0
-8.75696e-14 1 0
7.44564e-14 1 0
8.70563e-14 1 0
-6.4902e-14 1 0
-3.37567e-14 1 0
7.3018e-14 1 0
4.97357e-14 1 0
-3.37567e-14 1 0
-6.46121e-14 1 0
4.97357e-14 1 0
7.69667e-14 1 0
-7.62533e-14 1 0
-6.2217e-14 1 0
7.92282e-14 1 0
6.91659e-14 1 0
-6.2217e-14 1 0
-7.56035e-14 1 0
6.91659e-14 1 0
6.33089e-14 1 0
-6.46121e-14 1 0
-6.22547e-14 1 0
7.69667e-14 1 0
6.97169e-14 1 0
-6.22547e-14 1 0
-7.26176e-14 1 0
6.97169e-14 1 0
8.2518e-14 1 0
-7.56035e-14 1 0
-7.35164e-14 1 0
6.33089e-14 1 0
6.92878e-14 1 0
-7.35164e-14 1 0
-8.88772e-14 1 0
6.92878e-14 1 0
8.85321e-14 1 0
-9.42178e-14 1 0
-7.6718e-14 1 0
9.07345e-14 1 0
7.48137e-14 1 0
-7.6718e-14 1 0
-4.97285e-14 1 0
7.48137e-14 1 0
5.42634e-14 1 0
-8.75696e-14 1 0
-8.99227e-14 1 0
8.70563e-14 1 0
9.20857e-14 1 0
-8.99227e-14 1 0
-9.205e-14 1 0
9.20857e-14 1 0
9.31257e-14 1 0
-4.97285e-14 1 0
-5.25125e-14 1 0
5.42634e-14 1 0
5.44735e-14 1 0
-5.25125e-14 1 0
-7.4174e-14 1 0
5.44735e-14 1 0
7.30221e-14 1 0
-9.205e-14 1 0
-9.15872e-14 1 0
9.31257e-14 1 0
8.84212e-14 1 0
-9.15872e-14 1 0
-9.12325e-14 1 0
8.84212e-14 1 0
8.2905e-14 1 0
0 1 0
1.64332e-14 1 0
0 1 0
-1.58313e-14 1 0
1.64332e-14 1 0
-1.95969e-14 1 0
-1.58313e-14 1 0
2.10197e-14 1 0
0 1 0
1.4145e-14 1 0
0 1 0
-1.28585e-14 1 0
1.4145e-14 1 0
-1.95307e-14 1 0
-1.28585e-14 1 0
2.08143e-14 1 0
-1.95969e-14 1 0
-4.42758e-14 1 0
2.10197e-14 1 0
4.45816e-14 1 0
-4.42758e-14 1 0
-6.31203e-14 1 0
4.45816e-14 1 0
5.81495e-14 1 0
-1.95307e-14 1 0
-5.40665e-14 1 0
2.08143e-14 1 0
5.37771e-14 1 0
-5.40665e-14 1 0
-6.80041e-14 1 0
5.37771e-14 1 0
7.12865e-14 1 0
0 1 0
7.79324e-15 1 0
0 1 0
-6.00812e-15 1 0
7.79324e-15 1 0
-2.08134e-14 1 0
-6.00812e-15 1 0
1.73638e-14 1 0
0 1 0
7.32695e-15 1 0
0 1 0
-9.84985e-16 1 0
7.32695e-15 1 0
-7.36654e-15 1 0
-9.84985e-16 1 0
6.05896e-15 1 0
-2.08134e-14 1 0
-5.28014e-14 1 0
1.73638e-14 1 0
5.01643e-14 1 0
-5.28014e-14 1 0
-6.30521e-14 1 0
5.01643e-14 1 0
5.9147e-14 1 0
-7.36654e-15 1 0
-5.11628e-14 1 0
6.05896e-15 1 0
5.05327e-14 1 0
-5.11628e-14 1 0
-6.19474e-14 1 0
5.05327e-14 1 0
5.94667e-14 1 0
-6.31203e-14 1 0
-9.28669e-14 1 0
5.81495e-14 1 0
9.44253e-14 1 0
-9.28669e-14 1 0
-9.36496e-14 1 0
9.44253e-14 1 0
9.56204e-14 1 0
-6.80041e-14 1 0
-7.25067e-14 1 0
7.12865e-14 1 0
6.36438e-14 1 0
-7.25067e-14 1 0
-7.03642e-14 1 0
6.36438e-14 1 0
6.3264e-14 1 0
-9.36496e-14 1 0
-9.44595e-14 1 0
9.56204e-14 1 0
9.22687e-14 1 0
-9.44595e-14 1 0
-9.19178e-14 1 0
9.22687e-14 1 0
9.09284e-14 1 0
-7.03642e-14 1 0
-6.63421e-14 1 0
6.3264e-14 1 0
6.51284e-14 1 0
-6.63421e-14 1 0
-6.73808e-14 1 0
6.51284e-14 1 0
6.52224e-14 1 0
-6.30521e-14 1 0
-4.78842e-14 1 0
5.9147e-14 1 0
4.59666e-14 1 0
-4.78842e-14 1 0
-4.97292e-14 1 0
4.59666e-14 1 0
4.54416e-14 1 0
-6.19474e-14 1 0
-6.79734e-14 1 0
5.94667e-14 1 0
6.11411e-14 1 0
-6.79734e-14 1 0
-6.30651e-14 1 0
6.11411e-14 1 0
6.38606e-14 1 0
-4.97292e-14 1 0
-4.81584e-14 1 0
4.54416e-14 1 0
4.75064e-14 1 0
-4.81584e-14 1 0
-4.46495e-14 1 0
4.75064e-14 1 0
4.42099e-14 1 0
-6.30651e-14 1 0
-6.68179e-14 1 0
6.38606e-14 1 0
7.05432e-14 1 0
-6.68179e-14 1 0
-6.17039e-14 1 0
7.05432e-14 1 0
6.72692e-14 1 0
-7.26176e-14 1 0
-6.14759e-14 1 0
8.2518e-14 1 0
7.45687e-14 1 0
-6.14759e-14 1 0
-6.52806e-14 1 0
7.45687e-14 1 0
6.92619e-14 1 0
-8.88772e-14 1 0
-7.10224e-14 1 0
8.85321e-14 1 0
6.33653e-14 1 0
-7.10224e-14 1 0
-7.53797e-14 1 0
6.33653e-14 1 0
7.78662e-14 1 0
-6.52806e-14 1 0
-5.45956e-14 1 0
6.92619e-14 1 0
7.22826e-14 1 0
-5.45956e-14 1 0
-4.55196e-14 1 0
7.22826e-14 1 0
6.14314e-14 1 0
-7.53797e-14 1 0
-7.53075e-14 1 0
7.78662e-14 1 0
7.52485e-14 1 0
-7.53075e-14 1 0
-6.92208e-14 1 0
7.52485e-14 1 0
7.5218e-14 1 0
-7.4174e-14 1 0
-5.89917e-14 1 0
7.30221e-14 1 0
5.8867e-14 1 0
-5.89917e-14 1 0
-6.2792e-14 1 0
5.8867e-14 1 0
5.4004e-14 1 0
-9.12325e-14 1 0
-8.09904e-14 1 0
8.2905e-14 1 0
8.21758e-14 1 0
-8.09904e-14 1 0
-8.3023e-14 1 0
8.21758e-14 1 0
8.6557e-14 1 0
-6.2792e-14 1 0
-6.38661e-14 1 0
5.4004e-14 1 0
5.73745e-14 1 0
-6.38661e-14 1 0
-6.45669e-14 1 0
5.73745e-14 1 0
5.96289e-14 1 0
-8.3023e-14 1 0
-8.37138e-14 1 0
8.6557e-14 1 0
7.87135e-14 1 0
-8.37138e-14 1 0
-8.80942e-14 1 0
7.87135e-14 1 0
8.81801e-14 1 0
-4.55196e-14 1 0
-4.04049e-14 1 0
6.14314e-14 1 0
5.25129e-14 1 0
-4.04049e-14 1 0
-2.31289e-14 1 0
5.25129e-14 1 0
4.31672e-14 1 0
-6.92208e-14 1 0
-6.97654e-14 1 0
7.5218e-14 1 0
7.14652e-14 1 0
-6.97654e-14 1 0
-6.92819e-14 1 0
7.14652e-14 1 0
7.56887e-14 1 0
-2.31289e-14 1 0
-1.02616e-14 1 0
4.31672e-14 1 0
1.91712e-14 1 0
-1.02616e-14 1 0
-4.7399e-14 1 0
1.91712e-14 1 0
5.88671e-14 1 0
-6.92819e-14 1 0
-2.55019e-14 1 0
7.56887e-14 1 0
2.87188e-14 1 0
-2.55019e-14 1 0
-7.17868e-14 1 0
2.87188e-14 1 0
6.51785e-14 1 0
-6.45669e-14 1 0
-5.82182e-14 1 0
5.96289e-14 1 0
5.39138e-14 1 0
-5.82182e-14 1 0
-6.13236e-14 1 0
5.39138e-14 1 0
5.14106e-14 1 0
-8.80942e-14 1 0
-6.2392e-14 1 0
8.81801e-14 1 0
5.65044e-14 1 0
-6.2392e-14 1 0
-7.3116e-14 1 0
5.65044e-14 1 0
8.29965e-14 1 0
-6.13236e-14 1 0
-4.0207e-14 1 0
5.14106e-14 1 0
3.62875e-14 1 0
-4.0207e-14 1 0
-6.40151e-14 1 0
3.62875e-14 1 0
6.59164e-14 1 0
-7.3116e-14 1 0
-2.07407e-14 1 0
8.29965e-14 1 0
1.12636e-14 1 0
-2.07407e-14 1 0
-7.22094e-14 1 0
1.12636e-14 1 0
7.72586e-14 1 0
-9.19178e-14 1 0
-9.33263e-14 1 0
9.09284e-14 1 0
8.84761e-14 1 0
-9.33263e-14 1 0
-9.33398e-14 1 0
8.84761e-14 1 0
8.91398e-14 1 0
-6.73808e-14 1 0
-6.27985e-14 1 0
6.52224e-14 1 0
6.55375e-14 1 0
-6.27985e-14 1 0
-6.07341e-14 1 0
6.55375e-14 1 0
6.5383e-14 1 0
-9.33398e-14 1 0
-8.63579e-14 1 0
8.91398e-14 1 0
9.22279e-14 1 0
-8.63579e-14 1 0
-8.97564e-14 1 0
9.22279e-14 1 0
9.07947e-14 1 0
-6.07341e-14 1 0
-6.49891e-14 1 0
6.5383e-14 1 0
6.79252e-14 1 0
-6.49891e-14 1 0
-6.67296e-14 1 0
6.79252e-14 1 0
6.22643e-14 1 0
-4.46495e-14 1 0
-4.46783e-14 1 0
4.42099e-14 1 0
4.72249e-14 1 0
-4.46783e-14 1 0
-4.97245e-14 1 0
4.72249e-14 1 0
4.78392e-14 1 0
-6.17039e-14 1 0
-7.21651e-14 1 0
6.72692e-14 1 0
7.44097e-14 1 0
-7.21651e-14 1 0
-6.41919e-14 1 0
7.44097e-14 1 0
6.77264e-14 1 0
-4.97245e-14 1 0
-5.07236e-14 1 0
4.78392e-14 1 0
4.95207e-14 1 0
-5.07236e-14 1 0
-4.30796e-14 1 0
4.95207e-14 1 0
4.55145e-14 1 0
-6.41919e-14 1 0
-6.97638e-14 1 0
6.77264e-14 1 0
7.59724e-14 1 0
-6.97638e-14 1 0
-6.34028e-14 1 0
7.59724e-14 1 0
7.09587e-14 1 0
-8.97564e-14 1 0
-3.65742e-14 1 0
9.07947e-14 1 0
3.7623e-14 1 0
-3.65742e-14 1 0
-8.58492e-14 1 0
3.7623e-14 1 0
9.14477e-14 1 0
-6.67296e-14 1 0
-5.0074e-14 1 0
6.22643e-14 1 0
5.76865e-14 1 0
-5.0074e-14 1 0
-6.78611e-14 1 0
5.76865e-14 1 0
5.7409e-14 1 0
-8.58492e-14 1 0
6.40924e-17 1 0
9.14477e-14 1 0
1.10906e-14 1 0
6.40924e-17 1 0
-8.07448e-14 1 0
1.10906e-14 1 0
8.13487e-14 1 0
-6.78611e-14 1 0
-4.3686e-14 1 0
5.7409e-14 1 0
6.07835e-14 1 0
-4.3686e-14 1 0
-6.63309e-14 1 0
6.07835e-14 1 0
6.48384e-14 1 0
-4.30796e-14 1 0
-4.06507e-14 1 0
4.55145e-14 1 0
3.64156e-14 1 0
-4.06507e-14 1 0
-4.46702e-14 1 0
3.64156e-14 1 0
5.34565e-14 1 0
-6.34028e-14 1 0
-3.2057e-14 1 0
7.09587e-14 1 0
4.32997e-14 1 0
-3.2057e-14 1 0
-6.59381e-14 1 0
4.32997e-14 1 0
6.58108e-14 1 0
-4.46702e-14 1 0
-4.35918e-14 1 0
5.34565e-14 1 0
3.00994e-14 1 0
-4.35918e-14 1 0
-4.72966e-14 1 0
3.00994e-14 1 0
4.63993e-14 1 0
-6.59381e-14 1 0
-3.48472e-15 1 0
6.58108e-14 1 0
3.43032e-15 1 0
-3.48472e-15 1 0
-5.43304e-14 1 0
3.43032e-15 1 0
6.76512e-14 1 0
-4.76904e-14 1 0
-2.20914e-14 1 0
6.0031e-14 1.00001 0
2.26005e-14 1.00001 0
-2.20914e-14 1 0
-8.77706e-14 1 0
2.26005e-14 1.00001 0
1.14466e-13 1.00001 0
-4.9552e-14 1.00001 0
-2.30978e-14 1.00001 0
5.4663e-14 1 0
3.10705e-14 1 0
-2.30978e-14 1.00001 0
-8.60491e-14 1.00001 0
3.10705e-14 1 0
9.05751e-14 1 0
-8.77706e-14 1 0
-7.93035e-14 1 0
1.14466e-13 1.00001 0
9.61234e-14 1.00001 0
-7.93035e-14 1 0
-6.94559e-14 1 0
9.61234e-14 1.00001 0
1.0141e-13 1.00001 0
-8.60491e-14 1.00001 0
-7.62961e-14 1.00001 0
9.05751e-14 1 0
9.16438e-14 1 0
-7.62961e-14 1.00001 0
-1.22679e-13 1.00001 0
9.16438e-14 1 0
1.30207e-13 1 0
-9.0074e-14 1 0
-4.67264e-14 1 0
1.11695e-13 1 0
6.75381e-14 1 0
-4.67264e-14 1 0
-7.25175e-14 1 0
6.75381e-14 1 0
7.31755e-14 1 0
-8.75724e-14 1 0
-7.81401e-14 1 0
8.43883e-14 1 0
1.01158e-13 1 0
-7.81401e-14 1 0
-7.63379e-14 1 0
1.01158e-13 1 0
9.7923e-14 1 0
-7.25175e-14 1 0
-9.42172e-14 1 0
7.31755e-14 1 0
1.10308e-13 1 0
-9.42172e-14 1 0
-8.84629e-14 1 0
1.10308e-13 1 0
1.07205e-13 1 0
-7.63379e-14 1 0
-9.2721e-14 1 0
9.7923e-14 1 0
9.74029e-14 1 0
-9.2721e-14 1 0
-1.24949e-13 1 0
9.74029e-14 1 0
1.42118e-13 1 0
-6.94559e-14 1 0
-5.71971e-14 1 0
1.0141e-13 1.00001 0
6.21999e-14 1.00001 0
-5.71971e-14 1 0
-3.95145e-14 1 0
6.21999e-14 1.00001 0
5.81332e-14 1.00001 0
-1.22679e-13 1.00001 0
-1.30943e-14 1.00001 0
1.30207e-13 1 0
1.95635e-14 1 0
-1.30943e-14 1.00001 0
-4.45831e-14 1.00001 0
1.95635e-14 1 0
4.9836e-14 1 0
-3.95145e-14 1 0
-5.11893e-14 1 0
5.81332e-14 1.00001 0
6.58721e-14 1.00001 0
-5.11893e-14 1 0
-4.86732e-14 1 0
6.58721e-14 1.00001 0
6.90334e-14 1.00001 0
-4.45831e-14 1.00001 0
-5.57299e-14 1.00001 0
4.9836e-14 1 0
6.52491e-14 1 0
-5.57299e-14 1.00001 0
-8.20266e-14 1.00001 0
6.52491e-14 1 0
8.95752e-14 1 0
-8.84629e-14 1 0
-7.91707e-15 1 0
1.07205e-13 1 0
2.6641e-14 1 0
-7.91707e-15 1 0
-5.4471e-14 1 0
2.6641e-14 1 0
8.1266e-14 1 0
-1.24949e-13 1 0
-6.73404e-15 1 0
1.42118e-13 1 0
2.38269e-15 1 0
-6.73404e-15 1 0
-5.39225e-14 1 0
2.38269e-15 1 0
5.91741e-14 1 0
-5.4471e-14 1 0
-5.17836e-14 1 0
8.1266e-14 1 0
6.33079e-14 1 0
-5.17836e-14 1 0
-6.72896e-14 1 0
6.33079e-14 1 0
7.20184e-14 1 0
-5.39225e-14 1 0
-4.24025e-14 1 0
5.91741e-14 1 0
6.49835e-14 1 0
-4.24025e-14 1 0
-5.29709e-14 1 0
6.49835e-14 1 0
7.63814e-14 1 0
-7.15194e-14 1 0
-8.55131e-14 1 0
8.58893e-14 1 0
7.43205e-14 1 0
-8.55131e-14 1 0
-9.77816e-14 1 0
7.43205e-14 1 0
9.73559e-14 1 0
-9.7227e-14 1 0
-7.6005e-14 1 0
9.30632e-14 1 0
9.2188e-14 1 0
-7.6005e-14 1 0
-9.66066e-14 1 0
9.2188e-14 1 0
9.89912e-14 1 0
-9.77816e-14 1 0
-8.88779e-14 1 0
9.73559e-14 1 0
8.12485e-14 1 0
-8.88779e-14 1 0
-1.21494e-13 1 0
8.12485e-14 1 0
9.58887e-14 1 0
-9.66066e-14 1 0
-8.79369e-14 1 0
9.89912e-14 1 0
1.01818e-13 1 0
-8.79369e-14 1 0
-8.45742e-14 1 0
1.01818e-13 1 0
1.156e-13 1 0
-7.12891e-14 1 0
-7.36031e-14 1 0
7.44793e-14 1 0
6.74378e-14 1 0
-7.36031e-14 1 0
-6.74425e-14 1 0
6.74378e-14 1 0
7.49306e-14 1 0
-4.69248e-14 1 0
-5.52793e-14 1 0
6.32478e-14 1 0
6.32591e-14 1 0
-5.52793e-14 1 0
-7.12581e-14 1 0
6.32591e-14 1 0
8.26317e-14 1 0
-6.74425e-14 1 0
-6.21393e-14 1 0
7.49306e-14 1 0
6.85269e-14 1 0