# vtk DataFile Version 3.0
#This file was generated by the deal.II library on 2018/10/24 at 17:06:38
ASCII
DATASET UNSTRUCTURED_GRID

POINTS 20480 double
0 0 0
0.19635 0 0
0 0.312494 0
0.19635 0.312494 0
0.19635 0 0
0.392699 0 0
0.19635 0.312494 0
0.392699 0.312494 0
0 0.312494 0
0.19635 0.312494 0
0 0.624994 0
0.19635 0.624994 0
0.19635 0.312494 0
0.392699 0.312494 0
0.19635 0.624994 0
0.392699 0.624994 0
0.392699 0 0
0.589049 0 0
0.392699 0.312494 0
0.589049 0.312494 0
0.589049 0 0
0.785398 0 0
0.589049 0.312494 0
0.785398 0.312494 0
0.392699 0.312494 0
0.589049 0.312494 0
0.392699 0.624994 0
0.589049 0.624994 0
0.589049 0.312494 0
0.785398 0.312494 0
0.589049 0.624994 0
0.785398 0.624994 0
0 0.624994 0
0.19635 0.624994 0
0 0.937494 0
0.19635 0.937494 0
0.19635 0.624994 0
0.392699 0.624994 0
0.19635 0.937494 0
0.392699 0.937494 0
0 0.937494 0
0.19635 0.937494 0
0 1.24999 0
0.19635 1.24999 0
0.19635 0.937494 0
0.392699 0.937494 0
0.19635 1.24999 0
0.392699 1.24999 0
0.392699 0.624994 0
0.589049 0.624994 0
0.392699 0.937494 0
0.589049 0.937494 0
0.589049 0.624994 0
0.785398 0.624994 0
0.589049 0.937494 0
0.785398 0.937494 0
0.392699 0.937494 0
0.589049 0.937494 0
0.392699 1.24999 0
0.589049 1.24999 0
0.589049 0.937494 0
0.785398 0.937494 0
0.589049 1.24999 0
0.785398 1.24999 0
0.785398 0 0
0.981748 0 0
0.785398 0.312494 0
0.981748 0.312494 0
0.981748 0 0
1.1781 0 0
0.981748 0.312494 0
1.1781 0.312494 0
0.785398 0.312494 0
0.981748 0.312494 0
0.785398 0.624994 0
0.981748 0.624994 0
0.981748 0.312494 0
1.1781 0.312494 0
0.981748 0.624994 0
1.1781 0.624994 0
1.1781 0 0
1.37445 0 0
1.1781 0.312494 0
1.37445 0.312494 0
1.37445 0 0
1.5708 0 0
1.37445 0.312494 0
1.5708 0.312494 0
1.1781 0.312494 0
1.37445 0.312494 0
1.1781 0.624994 0
1.37445 0.624994 0
1.37445 0.312494 0
1.5708 0.312494 0
1.37445 0.624994 0
1.5708 0.624994 0
0.785398 0.624994 0
0.981748 0.624994 0
0.785398 0.937494 0
0.981748 0.937494 0
0.981748 0.624994 0
1.1781 0.624994 0
0.981748 0.937494 0
1.1781 0.937494 0
0.785398 0.937494 0
0.981748 0.937494 0
0.785398 1.24999 0
0.981748 1.24999 0
0.981748 0.937494 0
1.1781 0.937494 0
0.981748 1.24999 0
1.1781 1.24999 0
1.1781 0.624994 0
1.37445 0.624994 0
1.1781 0.937494 0
1.37445 0.937494 0
1.37445 0.624994 0
1.5708 0.624994 0
1.37445 0.937494 0
1.5708 0.937494 0
1.1781 0.937494 0
1.37445 0.937494 0
1.1781 1.24999 0
1.37445 1.24999 0
1.37445 0.937494 0
1.5708 0.937494 0
1.37445 1.24999 0
1.5708 1.24999 0
0 1.24999 0
0.19635 1.24999 0
0 1.56249 0
0.19635 1.56249 0
0.19635 1.24999 0
0.392699 1.24999 0
0.19635 1.56249 0
0.392699 1.56249 0
0 1.56249 0
0.19635 1.56249 0
0 1.87499 0
0.19635 1.87499 0
0.19635 1.56249 0
0.392699 1.56249 0
0.19635 1.87499 0
0.392699 1.87499 0
0.392699 1.24999 0
0.589049 1.24999 0
0.392699 1.56249 0
0.589049 1.56249 0
0.589049 1.24999 0
0.785398 1.24999 0
0.589049 1.56249 0
0.785398 1.56249 0
0.392699 1.56249 0
0.589049 1.56249 0
0.392699 1.87499 0
0.589049 1.87499 0
0.589049 1.56249 0
0.785398 1.56249 0
0.589049 1.87499 0
0.785398 1.87499 0
0 1.87499 0
0.19635 1.87499 0
0 2.1875 0
0.19635 2.1875 0
0.19635 1.87499 0
0.392699 1.87499 0
0.19635 2.1875 0
0.392699 2.1875 0
0 2.1875 0
0.19635 2.1875 0
0 2.5 0
0.19635 2.5 0
0.19635 2.1875 0
0.392699 2.1875 0
0.19635 2.5 0
0.392699 2.5 0
0.392699 1.87499 0
0.589049 1.87499 0
0.392699 2.1875 0
0.589049 2.1875 0
0.589049 1.87499 0
0.785398 1.87499 0
0.589049 2.1875 0
0.785398 2.1875 0
0.392699 2.1875 0
0.589049 2.1875 0
0.392699 2.5 0
0.589049 2.5 0
0.589049 2.1875 0
0.785398 2.1875 0
0.589049 2.5 0
0.785398 2.5 0
0.785398 1.24999 0
0.981748 1.24999 0
0.785398 1.56249 0
0.981748 1.56249 0
0.981748 1.24999 0
1.1781 1.24999 0
0.981748 1.56249 0
1.1781 1.56249 0
0.785398 1.56249 0
0.981748 1.56249 0
0.785398 1.87499 0
0.981748 1.87499 0
0.981748 1.56249 0
1.1781 1.56249 0
0.981748 1.87499 0
1.1781 1.87499 0
1.1781 1.24999 0
1.37445 1.24999 0
1.1781 1.56249 0
1.37445 1.56249 0
1.37445 1.24999 0
1.5708 1.24999 0
1.37445 1.56249 0
1.5708 1.56249 0
1.1781 1.56249 0
1.37445 1.56249 0
1.1781 1.87499 0
1.37445 1.87499 0
1.37445 1.56249 0
1.5708 1.56249 0
1.37445 1.87499 0
1.5708 1.87499 0
0.785398 1.87499 0
0.981748 1.87499 0
0.785398 2.1875 0
0.981748 2.1875 0
0.981748 1.87499 0
1.1781 1.87499 0
0.981748 2.1875 0
1.1781 2.1875 0
0.785398 2.1875 0
0.981748 2.1875 0
0.785398 2.5 0
0.981748 2.5 0
0.981748 2.1875 0
1.1781 2.1875 0
0.981748 2.5 0
1.1781 2.5 0
1.1781 1.87499 0
1.37445 1.87499 0
1.1781 2.1875 0
1.37445 2.1875 0
1.37445 1.87499 0
1.5708 1.87499 0
1.37445 2.1875 0
1.5708 2.1875 0
1.1781 2.1875 0
1.37445 2.1875 0
1.1781 2.5 0
1.37445 2.5 0
1.37445 2.1875 0
1.5708 2.1875 0
1.37445 2.5 0
1.5708 2.5 0
1.5708 0 0
1.76715 0 0
1.5708 0.312494 0
1.76715 0.312494 0
1.76715 0 0
1.9635 0 0
1.76715 0.312494 0
1.9635 0.312494 0
1.5708 0.312494 0
1.76715 0.312494 0
1.5708 0.624994 0
1.76715 0.624994 0
1.76715 0.312494 0
1.9635 0.312494 0
1.76715 0.624994 0
1.9635 0.624994 0
1.9635 0 0
2.15984 0 0
1.9635 0.312494 0
2.15984 0.312494 0
2.15984 0 0
2.35619 0 0
2.15984 0.312494 0
2.35619 0.312494 0
1.9635 0.312494 0
2.15984 0.312494 0
1.9635 0.624994 0
2.15984 0.624994 0
2.15984 0.312494 0
2.35619 0.312494 0
2.15984 0.624994 0
2.35619 0.624994 0
1.5708 0.624994 0
1.76715 0.624994 0
1.5708 0.937494 0
1.76715 0.937494 0
1.76715 0.624994 0
1.9635 0.624994 0
1.76715 0.937494 0
1.9635 0.937494 0
1.5708 0.937494 0
1.76715 0.937494 0
1.5708 1.24999 0
1.76715 1.24999 0
1.76715 0.937494 0
1.9635 0.937494 0
1.76715 1.24999 0
1.9635 1.24999 0
1.9635 0.624994 0
2.15984 0.624994 0
1.9635 0.937494 0
2.15984 0.937494 0
2.15984 0.624994 0
2.35619 0.624994 0
2.15984 0.937494 0
2.35619 0.937494 0
1.9635 0.937494 0
2.15984 0.937494 0
1.9635 1.24999 0
2.15984 1.24999 0
2.15984 0.937494 0
2.35619 0.937494 0
2.15984 1.24999 0
2.35619 1.24999 0
2.35619 0 0
2.55254 0 0
2.35619 0.312494 0
2.55254 0.312494 0
2.55254 0 0
2.74889 0 0
2.55254 0.312494 0
2.74889 0.312494 0
2.35619 0.312494 0
2.55254 0.312494 0
2.35619 0.624994 0
2.55254 0.624994 0
2.55254 0.312494 0
2.74889 0.312494 0
2.55254 0.624994 0
2.74889 0.624994 0
2.74889 0 0
2.94524 0 0
2.74889 0.312494 0
2.94524 0.312494 0
2.94524 0 0
3.14159 0 0
2.94524 0.312494 0
3.14159 0.312494 0
2.74889 0.312494 0
2.94524 0.312494 0
2.74889 0.624994 0
2.94524 0.624994 0
2.94524 0.312494 0
3.14159 0.312494 0
2.94524 0.624994 0
3.14159 0.624994 0
2.35619 0.624994 0
2.55254 0.624994 0
2.35619 0.937494 0
2.55254 0.937494 0
2.55254 0.624994 0
2.74889 0.624994 0
2.55254 0.937494 0
2.74889 0.937494 0
2.35619 0.937494 0
2.55254 0.937494 0
2.35619 1.24999 0
2.55254 1.24999 0
2.55254 0.937494 0
2.74889 0.937494 0
2.55254 1.24999 0
2.74889 1.24999 0
2.74889 0.624994 0
2.94524 0.624994 0
2.74889 0.937494 0
2.94524 0.937494 0
2.94524 0.624994 0
3.14159 0.624994 0
2.94524 0.937494 0
3.14159 0.937494 0
2.74889 0.937494 0
2.94524 0.937494 0
2.74889 1.24999 0
2.94524 1.24999 0
2.94524 0.937494 0
3.14159 0.937494 0
2.94524 1.24999 0
3.14159 1.24999 0
1.5708 1.24999 0
1.76715 1.24999 0
1.5708 1.56249 0
1.76715 1.56249 0
1.76715 1.24999 0
1.9635 1.24999 0
1.76715 1.56249 0
1.9635 1.56249 0
1.5708 1.56249 0
1.76715 1.56249 0
1.5708 1.87499 0
1.76715 1.87499 0
1.76715 1.56249 0
1.9635 1.56249 0
1.76715 1.87499 0
1.9635 1.87499 0
1.9635 1.24999 0
2.15984 1.24999 0
1.9635 1.56249 0
2.15984 1.56249 0
2.15984 1.24999 0
2.35619 1.24999 0
2.15984 1.56249 0
2.35619 1.56249 0
1.9635 1.56249 0
2.15984 1.56249 0
1.9635 1.87499 0
2.15984 1.87499 0
2.15984 1.56249 0
2.35619 1.56249 0
2.15984 1.87499 0
2.35619 1.87499 0
1.5708 1.87499 0
1.76715 1.87499 0
1.5708 2.1875 0
1.76715 2.1875 0
1.76715 1.87499 0
1.9635 1.87499 0
1.76715 2.1875 0
1.9635 2.1875 0
1.5708 2.1875 0
1.76715 2.1875 0
1.5708 2.5 0
1.76715 2.5 0
1.76715 2.1875 0
1.9635 2.1875 0
1.76715 2.5 0
1.9635 2.5 0
1.9635 1.87499 0
2.15984 1.87499 0
1.9635 2.1875 0
2.15984 2.1875 0
2.15984 1.87499 0
2.35619 1.87499 0
2.15984 2.1875 0
2.35619 2.1875 0
1.9635 2.1875 0
2.15984 2.1875 0
1.9635 2.5 0
2.15984 2.5 0
2.15984 2.1875 0
2.35619 2.1875 0
2.15984 2.5 0
2.35619 2.5 0
2.35619 1.24999 0
2.55254 1.24999 0
2.35619 1.56249 0
2.55254 1.56249 0
2.55254 1.24999 0
2.74889 1.24999 0
2.55254 1.56249 0
2.74889 1.56249 0
2.35619 1.56249 0
2.55254 1.56249 0
2.35619 1.87499 0
2.55254 1.87499 0
2.55254 1.56249 0
2.74889 1.56249 0
2.55254 1.87499 0
2.74889 1.87499 0
2.74889 1.24999 0
2.94524 1.24999 0
2.74889 1.56249 0
2.94524 1.56249 0
2.94524 1.24999 0
3.14159 1.24999 0
2.94524 1.56249 0
3.14159 1.56249 0
2.74889 1.56249 0
2.94524 1.56249 0
2.74889 1.87499 0
2.94524 1.87499 0
2.94524 1.56249 0
3.14159 1.56249 0
2.94524 1.87499 0
3.14159 1.87499 0
2.35619 1.87499 0
2.55254 1.87499 0
2.35619 2.1875 0
2.55254 2.1875 0
2.55254 1.87499 0
2.74889 1.87499 0
2.55254 2.1875 0
2.74889 2.1875 0
2.35619 2.1875 0
2.55254 2.1875 0
2.35619 2.5 0
2.55254 2.5 0
2.55254 2.1875 0
2.74889 2.1875 0
2.55254 2.5 0
2.74889 2.5 0
2.74889 1.87499 0
2.94524 1.87499 0
2.74889 2.1875 0
2.94524 2.1875 0
2.94524 1.87499 0
3.14159 1.87499 0
2.94524 2.1875 0
3.14159 2.1875 0
2.74889 2.1875 0
2.94524 2.1875 0
2.74889 2.5 0
2.94524 2.5 0
2.94524 2.1875 0
3.14159 2.1875 0
2.94524 2.5 0
3.14159 2.5 0
0 2.5 0
0.19635 2.5 0
0 2.8125 0
0.19635 2.8125 0
0.19635 2.5 0
0.392699 2.5 0
0.19635 2.8125 0
0.392699 2.8125 0
0 2.8125 0
0.19635 2.8125 0
0 3.125 0
0.19635 3.125 0
0.19635 2.8125 0
0.392699 2.8125 0
0.19635 3.125 0
0.392699 3.125 0
0.392699 2.5 0
0.589049 2.5 0
0.392699 2.8125 0
0.589049 2.8125 0
0.589049 2.5 0
0.785398 2.5 0
0.589049 2.8125 0
0.785398 2.8125 0
0.392699 2.8125 0
0.589049 2.8125 0
0.392699 3.125 0
0.589049 3.125 0
0.589049 2.8125 0
0.785398 2.8125 0
0.589049 3.125 0
0.785398 3.125 0
0 3.125 0
0.19635 3.125 0
0 3.4375 0
0.19635 3.4375 0
0.19635 3.125 0
0.392699 3.125 0
0.19635 3.4375 0
0.392699 3.4375 0
0 3.4375 0
0.19635 3.4375 0
0 3.75 0
0.19635 3.75 0
0.19635 3.4375 0
0.392699 3.4375 0
0.19635 3.75 0
0.392699 3.75 0
0.392699 3.125 0
0.589049 3.125 0
0.392699 3.4375 0
0.589049 3.4375 0
0.589049 3.125 0
0.785398 3.125 0
0.589049 3.4375 0
[...]
POINT_DATA 20480
VECTORS uf double
0 1 0
9.97769e-15 1 0
0 1.00001 0
-1.60535e-14 1.00001 0
9.97769e-15 1 0
-1.4625e-14 1 0
-1.60535e-14 1.00001 0
2.07833e-14 1.00001 0
0 1.00001 0
1.79557e-14 1.00001 0
0 1 0
-9.8013e-15 1 0
1.79557e-14 1.00001 0
-6.19275e-15 1.00001 0
-9.8013e-15 1 0
7.73895e-15 1 0
-1.4625e-14 1 0
-3.97339e-14 1 0
2.07833e-14 1.00001 0
5.05963e-14 1.00001 0
-3.97339e-14 1 0
-9.02791e-14 1 0
5.05963e-14 1.00001 0
1.10831e-13 1.00001 0
-6.19275e-15 1.00001 0
-3.96499e-14 1.00001 0
7.73895e-15 1 0
4.20269e-14 1 0
-3.96499e-14 1.00001 0
-5.90408e-14 1.00001 0
4.20269e-14 1 0
5.18063e-14 1 0
0 1 0
-1.4413e-15 1 0
0 1 0
-3.03559e-15 1 0
-1.4413e-15 1 0
-3.7911e-14 1 0
-3.03559e-15 1 0
4.40884e-14 1 0
0 1 0
6.28362e-15 1 0
0 1 0
-1.16478e-14 1 0
6.28362e-15 1 0
-3.73216e-14 1 0
-1.16478e-14 1 0
2.51405e-14 1 0
-3.7911e-14 1 0
-4.89265e-14 1 0
4.40884e-14 1 0
4.67629e-14 1 0
-4.89265e-14 1 0
-6.21166e-14 1 0
4.67629e-14 1 0
6.00152e-14 1 0
-3.73216e-14 1 0
-3.69629e-14 1 0
2.51405e-14 1 0
4.61616e-14 1 0
-3.69629e-14 1 0
-3.85619e-14 1 0
4.61616e-14 1 0
4.4088e-14 1 0
-9.02791e-14 1 0
-4.47629e-14 1 0
1.10831e-13 1.00001 0
4.62075e-14 1.00001 0
-4.47629e-14 1 0
-6.90513e-14 1 0
4.62075e-14 1.00001 0
9.13185e-14 1.00001 0
-5.90408e-14 1.00001 0
-1.239e-14 1.00001 0
5.18063e-14 1 0
-5.56545e-16 1 0
-1.239e-14 1.00001 0
-8.1899e-14 1.00001 0
-5.56545e-16 1 0
7.30341e-14 1 0
-6.90513e-14 1 0
-5.20969e-14 1 0
9.13185e-14 1.00001 0
6.8944e-14 1.00001 0
-5.20969e-14 1 0
-5.03312e-14 1 0
6.8944e-14 1.00001 0
6.41723e-14 1.00001 0
-8.1899e-14 1.00001 0
-5.57611e-14 1.00001 0
7.30341e-14 1 0
4.94052e-14 1 0
-5.57611e-14 1.00001 0
-3.3757e-14 1.00001 0
4.94052e-14 1 0
3.64454e-14 1 0
-6.21166e-14 1 0
-9.21321e-15 1 0
6.00152e-14 1 0
1.78532e-14 1 0
-9.21321e-15 1 0
-6.31878e-14 1 0
1.78532e-14 1 0
6.62844e-14 1 0
-3.85619e-14 1 0
-3.9821e-14 1 0
4.4088e-14 1 0
6.60264e-14 1 0
-3.9821e-14 1 0
-5.50206e-14 1 0
6.60264e-14 1 0
5.25041e-14 1 0
-6.31878e-14 1 0
-5.91104e-14 1 0
6.62844e-14 1 0
6.36221e-14 1 0
-5.91104e-14 1 0
-7.22096e-14 1 0
6.36221e-14 1 0
7.65811e-14 1 0
-5.50206e-14 1 0
-5.60067e-14 1 0
5.25041e-14 1 0
5.89105e-14 1 0
-5.60067e-14 1 0
-6.26859e-14 1 0
5.89105e-14 1 0
7.11664e-14 1 0
0 1 0
1.01217e-14 1 0
0 1 0
-6.92869e-15 1 0
1.01217e-14 1 0
-2.44428e-14 1 0
-6.92869e-15 1 0
3.17157e-14 1 0
0 1 0
1.35874e-14 1 0
0 1 0
-1.13161e-14 1 0
1.35874e-14 1 0
-2.99279e-14 1 0
-1.13161e-14 1 0
3.38307e-14 1 0
-2.44428e-14 1 0
-8.31994e-14 1 0
3.17157e-14 1 0
9.0256e-14 1 0
-8.31994e-14 1 0
-7.47352e-14 1 0
9.0256e-14 1 0
8.8415e-14 1 0
-2.99279e-14 1 0
-7.21295e-14 1 0
3.38307e-14 1 0
6.56279e-14 1 0
-7.21295e-14 1 0
-1.07894e-13 1 0
6.56279e-14 1 0
1.17458e-13 1 0
0 1 0
3.44537e-15 1 0
0 1 0
-1.98065e-15 1 0
3.44537e-15 1 0
-1.8734e-14 1 0
-1.98065e-15 1 0
1.37883e-14 1 0
0 1 0
8.43536e-15 1 0
0 1 0
-1.08828e-14 1 0
8.43536e-15 1 0
-1.65423e-14 1 0
-1.08828e-14 1 0
1.30639e-14 1 0
-1.8734e-14 1 0
-3.84425e-14 1 0
1.37883e-14 1 0
3.54595e-14 1 0
-3.84425e-14 1 0
-7.01747e-14 1 0
3.54595e-14 1 0
5.57056e-14 1 0
-1.65423e-14 1 0
-3.8044e-14 1 0
1.30639e-14 1 0
3.74711e-14 1 0
-3.8044e-14 1 0
-5.07961e-14 1 0
3.74711e-14 1 0
4.50514e-14 1 0
-7.47352e-14 1 0
-9.06477e-14 1 0
8.8415e-14 1 0
9.98451e-14 1 0
-9.06477e-14 1 0
-6.87421e-14 1 0
9.98451e-14 1 0
8.21783e-14 1 0
-1.07894e-13 1 0
-7.72783e-14 1 0
1.17458e-13 1 0
6.55562e-14 1 0
-7.72783e-14 1 0
-6.64365e-14 1 0
6.55562e-14 1 0
5.29008e-14 1 0
-6.87421e-14 1 0
-7.22676e-14 1 0
8.21783e-14 1 0
8.45154e-14 1 0
-7.22676e-14 1 0
-9.02406e-14 1 0
8.45154e-14 1 0
9.19392e-14 1 0
-6.64365e-14 1 0
-7.01782e-14 1 0
5.29008e-14 1 0
6.35436e-14 1 0
-7.01782e-14 1 0
-7.88849e-14 1 0
6.35436e-14 1 0
7.72352e-14 1 0
-7.01747e-14 1 0
-4.56274e-14 1 0
5.57056e-14 1 0
5.1828e-14 1 0
-4.56274e-14 1 0
-3.7104e-14 1 0
5.1828e-14 1 0
5.4113e-14 1 0
-5.07961e-14 1 0
-7.08105e-14 1 0
4.50514e-14 1 0
7.80122e-14 1 0
-7.08105e-14 1 0
-6.36061e-14 1 0
7.80122e-14 1 0
6.8367e-14 1 0
-3.7104e-14 1 0
-4.91461e-14 1 0
5.4113e-14 1 0
6.03573e-14 1 0
-4.91461e-14 1 0
-5.62657e-14 1 0
6.03573e-14 1 0
6.04107e-14 1 0
-6.36061e-14 1 0
-7.29958e-14 1 0
6.8367e-14 1 0
8.28319e-14 1 0
-7.29958e-14 1 0
-6.83408e-14 1 0
8.28319e-14 1 0
7.03773e-14 1 0
-5.03312e-14 1 0
-6.35748e-14 1 0
6.41723e-14 1.00001 0
7.86089e-14 1.00001 0
-6.35748e-14 1 0
-6.39642e-14 1 0
7.86089e-14 1.00001 0
8.13994e-14 1.00001 0
-3.3757e-14 1.00001 0
-4.31569e-14 1.00001 0
3.64454e-14 1 0
4.28755e-14 1 0
-4.31569e-14 1.00001 0
-4.34173e-14 1.00001 0
4.28755e-14 1 0
4.17911e-14 1 0
-6.39642e-14 1 0
-7.44032e-14 1 0
8.13994e-14 1.00001 0
9.52745e-14 1.00001 0
-7.44032e-14 1 0
-6.75274e-14 1 0
9.52745e-14 1.00001 0
8.82913e-14 1.00001 0
-4.34173e-14 1.00001 0
-5.22379e-14 1.00001 0
4.17911e-14 1 0
4.35988e-14 1 0
-5.22379e-14 1.00001 0
-7.18727e-14 1.00001 0
4.35988e-14 1 0
7.92505e-14 1 0
-7.22096e-14 1 0
-7.01632e-14 1 0
7.65811e-14 1 0
7.25822e-14 1 0
-7.01632e-14 1 0
-8.25695e-14 1 0
7.25822e-14 1 0
9.04785e-14 1 0
-6.26859e-14 1 0
-5.49176e-14 1 0
7.11664e-14 1 0
6.5862e-14 1 0
-5.49176e-14 1 0
-6.28339e-14 1 0
6.5862e-14 1 0
6.37436e-14 1 0
-8.25695e-14 1 0
-8.17471e-14 1 0
9.04785e-14 1 0
9.51067e-14 1 0
-8.17471e-14 1 0
-1.00164e-13 1 0
9.51067e-14 1 0
9.89257e-14 1 0
-6.28339e-14 1 0
-6.49206e-14 1 0
6.37436e-14 1 0
6.4513e-14 1 0
-6.49206e-14 1 0
-6.4633e-14 1 0
6.4513e-14 1 0
6.93613e-14 1 0
-6.75274e-14 1 0
-6.66801e-14 1 0
8.82913e-14 1.00001 0
8.87394e-14 1.00001 0
-6.66801e-14 1 0
-7.74601e-14 1 0
8.87394e-14 1.00001 0
1.03223e-13 1.00001 0
-7.18727e-14 1.00001 0
-6.13398e-14 1.00001 0
7.92505e-14 1 0
7.25524e-14 1 0
-6.13398e-14 1.00001 0
-5.0935e-14 1.00001 0
7.25524e-14 1 0
5.65588e-14 1 0
-7.74601e-14 1 0
-6.48006e-14 1 0
1.03223e-13 1.00001 0
8.85232e-14 1.00001 0
-6.48006e-14 1 0
-2.6042e-14 1 0
8.85232e-14 1.00001 0
3.88889e-14 1.00001 0
-5.0935e-14 1.00001 0
-5.51424e-14 1.00001 0
5.65588e-14 1 0
5.41255e-14 1 0
-5.51424e-14 1.00001 0
-2.75402e-14 1.00001 0
5.41255e-14 1 0
2.41223e-14 1 0
-1.00164e-13 1 0
-1.01671e-13 1 0
9.89257e-14 1 0
9.92504e-14 1 0
-1.01671e-13 1 0
-9.77917e-14 1 0
9.92504e-14 1 0
9.48972e-14 1 0
-6.4633e-14 1 0
-6.71418e-14 1 0
6.93613e-14 1 0
5.51879e-14 1 0
-6.71418e-14 1 0
-7.32998e-14 1 0
5.51879e-14 1 0
8.06244e-14 1 0
-9.77917e-14 1 0
-8.98069e-14 1 0
9.48972e-14 1 0
9.46579e-14 1 0
-8.98069e-14 1 0
-6.06621e-14 1 0
9.46579e-14 1 0
7.89182e-14 1 0
-7.32998e-14 1 0
-6.7656e-14 1 0
8.06244e-14 1 0
6.28155e-14 1 0
-6.7656e-14 1 0
-5.89685e-14 1 0
6.28155e-14 1 0
6.3607e-14 1 0
-9.02406e-14 1 0
-8.30715e-14 1 0
9.19392e-14 1 0
8.32083e-14 1 0
-8.30715e-14 1 0
-8.08904e-14 1 0
8.32083e-14 1 0
8.53024e-14 1 0
-7.88849e-14 1 0
-7.3951e-14 1 0
7.72352e-14 1 0
7.15753e-14 1 0
-7.3951e-14 1 0
-7.60899e-14 1 0
7.15753e-14 1 0
8.04449e-14 1 0
-8.08904e-14 1 0
-7.66115e-14 1 0
8.53024e-14 1 0
8.18002e-14 1 0
-7.66115e-14 1 0
-7.85317e-14 1 0
8.18002e-14 1 0
8.3208e-14 1 0
-7.60899e-14 1 0
-6.99652e-14 1 0
8.04449e-14 1 0
6.86549e-14 1 0
-6.99652e-14 1 0
-7.66824e-14 1 0
6.86549e-14 1 0
8.04881e-14 1 0
-5.62657e-14 1 0
-5.18561e-14 1 0
6.04107e-14 1 0
6.46128e-14 1 0
-5.18561e-14 1 0
-5.37561e-14 1 0
6.46128e-14 1 0
6.3424e-14 1 0
-6.83408e-14 1 0
-7.36455e-14 1 0
7.03773e-14 1 0
7.21382e-14 1 0
-7.36455e-14 1 0
-7.69385e-14 1 0
7.21382e-14 1 0
7.35809e-14 1 0
-5.37561e-14 1 0
-4.93291e-14 1 0
6.3424e-14 1 0
6.37984e-14 1 0
-4.93291e-14 1 0
-5.41745e-14 1 0
6.37984e-14 1 0
5.94506e-14 1 0
-7.69385e-14 1 0
-6.99128e-14 1 0
7.35809e-14 1 0
7.16595e-14 1 0
-6.99128e-14 1 0
-7.01021e-14 1 0
7.16595e-14 1 0
7.1944e-14 1 0
-7.85317e-14 1 0
-4.60233e-14 1 0
8.3208e-14 1 0
6.01636e-14 1 0
-4.60233e-14 1 0
-8.26741e-14 1 0
6.01636e-14 1 0
8.44887e-14 1 0
-7.66824e-14 1 0
-7.46336e-14 1 0
8.04881e-14 1 0
9.05823e-14 1 0
-7.46336e-14 1 0
-7.57278e-14 1 0
9.05823e-14 1 0
8.87032e-14 1 0
-8.26741e-14 1 0
-3.45233e-14 1 0
8.44887e-14 1 0
4.24347e-14 1 0
-3.45233e-14 1 0
-6.43213e-14 1 0
4.24347e-14 1 0
7.22576e-14 1 0
-7.57278e-14 1 0
-6.50247e-14 1 0
8.87032e-14 1 0
8.07711e-14 1 0
-6.50247e-14 1 0
-7.67996e-14 1 0
8.07711e-14 1 0
8.91017e-14 1 0
-5.41745e-14 1 0
-6.39162e-14 1 0
5.94506e-14 1 0
7.09515e-14 1 0
-6.39162e-14 1 0
-6.59694e-14 1 0
7.09515e-14 1 0
6.86302e-14 1 0
-7.01021e-14 1 0
-9.04971e-14 1 0
7.1944e-14 1 0
8.74817e-14 1 0
-9.04971e-14 1 0
-6.4564e-14 1 0
8.74817e-14 1 0
5.23286e-14 1 0
-6.59694e-14 1 0
-5.3822e-14 1 0
6.86302e-14 1 0
6.19467e-14 1 0
-5.3822e-14 1 0
-6.33477e-14 1 0
6.19467e-14 1 0
5.73111e-14 1 0
-6.4564e-14 1 0
-5.17532e-14 1 0
5.23286e-14 1 0
3.86674e-14 1 0
-5.17532e-14 1 0
-4.52549e-14 1 0
3.86674e-14 1 0
5.1042e-14 1 0
0 1 0
1.63826e-14 1 0
0 1 0
-1.37662e-14 1 0
1.63826e-14 1 0
-2.28098e-15 1 0
-1.37662e-14 1 0
1.00016e-14 1 0
0 1 0
1.42239e-14 1 0
0 1 0
-1.50787e-14 1 0
1.42239e-14 1 0
-1.83388e-14 1 0
-1.50787e-14 1 0
1.68371e-14 1 0
-2.28098e-15 1 0
-2.59783e-14 1 0
1.00016e-14 1 0
2.05633e-14 1 0
-2.59783e-14 1 0
-3.67659e-14 1 0
2.05633e-14 1 0
4.30561e-14 1 0
-1.83388e-14 1 0
-3.15553e-14 1 0
1.68371e-14 1 0
4.10474e-14 1 0
-3.15553e-14 1 0
-4.24887e-14 1 0
4.10474e-14 1 0
5.11022e-14 1 0
0 1 0
8.84086e-15 1 0
0 1 0
-1.14435e-14 1 0
8.84086e-15 1 0
-2.43526e-14 1 0
-1.14435e-14 1 0
2.44406e-14 1 0
0 1 0
1.0052e-14 1 0
0 1 0
-6.94017e-15 1 0
1.0052e-14 1 0
-2.73306e-14 1 0
-6.94017e-15 1 0
2.72195e-14 1 0
-2.43526e-14 1 0
-4.2708e-14 1 0
2.44406e-14 1 0
4.29684e-14 1 0
-4.2708e-14 1 0
-6.48819e-14 1 0
4.29684e-14 1 0
6.34283e-14 1 0
-2.73306e-14 1 0
-4.92165e-14 1 0
2.72195e-14 1 0
5.186e-14 1 0
-4.92165e-14 1 0
-6.98424e-14 1 0
5.186e-14 1 0
7.06609e-14 1 0
-3.67659e-14 1 0
-4.98877e-14 1 0
4.30561e-14 1 0
4.60592e-14 1 0
-4.98877e-14 1 0
-5.03223e-14 1 0
4.60592e-14 1 0
4.46147e-14 1 0
-4.24887e-14 1 0
-5.5616e-14 1 0
5.11022e-14 1 0
6.36061e-14 1 0
-5.5616e-14 1 0
-5.11152e-14 1 0
6.36061e-14 1 0
6.23111e-14 1 0
-5.03223e-14 1 0
-6.86711e-14 1 0
4.46147e-14 1 0
6.00126e-14 1 0
-6.86711e-14 1 0
-5.70094e-14 1 0
6.00126e-14 1 0
5.24929e-14 1 0
-5.11152e-14 1 0
-6.08224e-14 1 0
6.23111e-14 1 0
6.17106e-14 1 0
-6.08224e-14 1 0
-5.75861e-14 1 0
6.17106e-14 1 0
7.14937e-14 1 0
-6.48819e-14 1 0
-6.84639e-14 1 0
6.34283e-14 1 0
6.35727e-14 1 0
-6.84639e-14 1 0
-6.40978e-14 1 0
6.35727e-14 1 0
5.3429e-14 1 0
-6.98424e-14 1 0
-7.11443e-14 1 0
7.06609e-14 1 0
7.26592e-14 1 0
-7.11443e-14 1 0
-6.51783e-14 1 0
7.26592e-14 1 0
7.55481e-14 1 0
-6.40978e-14 1 0
-4.66778e-14 1 0
5.3429e-14 1 0
4.90258e-14 1 0
-4.66778e-14 1 0
-5.73548e-14 1 0
4.90258e-14 1 0
5.40318e-14 1 0
-6.51783e-14 1 0
-6.36349e-14 1 0
7.55481e-14 1 0
6.45147e-14 1 0
-6.36349e-14 1 0
-7.07034e-14 1 0
6.45147e-14 1 0
8.05629e-14 1 0
0 1 0
9.66462e-15 1 0
0 1 0
-7.7126e-15 1 0
9.66462e-15 1 0
-9.73996e-15 1 0
-7.7126e-15 1 0
1.53926e-14 1 0
0 1 0
4.18074e-15 1 0
0 1 0
-5.40171e-15 1 0
4.18074e-15 1 0
-2.43626e-14 1 0
-5.40171e-15 1 0
1.70502e-14 1 0
-9.73996e-15 1 0
-4.71875e-14 1 0
1.53926e-14 1 0
5.15505e-14 1 0
-4.71875e-14 1 0
-6.64873e-14 1 0
5.15505e-14 1 0
6.33009e-14 1 0
-2.43626e-14 1 0
-4.84487e-14 1 0
1.70502e-14 1 0
4.09015e-14 1 0
-4.84487e-14 1 0
-5.23011e-14 1 0
4.09015e-14 1 0
5.02224e-14 1 0
0 1 0
8.9115e-15 1 0
0 1 0
-4.83109e-15 1 0
8.9115e-15 1 0
-1.05197e-14 1 0
-4.83109e-15 1 0
1.46773e-14 1 0
0 1 0
3.52609e-15 1 0
0 1 0
-3.75557e-15 1 0
3.52609e-15 1 0
5.55506e-16 1 0
-3.75557e-15 1 0
-6.7799e-15 1 0
-1.05197e-14 1 0
-3.39158e-14 1 0
1.46773e-14 1 0
3.87947e-14 1 0
-3.39158e-14 1 0
-4.08291e-14 1 0
3.87947e-14 1 0
5.37793e-14 1 0
5.55506e-16 1 0
-3.30161e-14 1 0
-6.7799e-15 1 0
3.26694e-14 1 0
-3.30161e-14 1 0
-5.47256e-14 1 0
3.26694e-14 1 0
4.59812e-14 1 0
-6.64873e-14 1 0
-6.35793e-14 1 0
6.33009e-14 1 0
6.3021e-14 1 0
-6.35793e-14 1 0
-7.00415e-14 1 0
6.3021e-14 1 0
6.29842e-14 1 0
-5.23011e-14 1 0
-5.4585e-14 1 0
5.02224e-14 1 0
5.62954e-14 1 0
-5.4585e-14 1 0
-4.73379e-14 1 0
5.62954e-14 1 0
5.20866e-14 1 0
-7.00415e-14 1 0
-6.15645e-14 1 0
6.29842e-14 1 0
6.41214e-14 1 0
-6.15645e-14 1 0
-6.59499e-14 1 0
6.41214e-14 1 0
6.49795e-14 1 0
-4.73379e-14 1 0
-5.02335e-14 1 0
5.20866e-14 1 0
5.57758e-14 1 0
-5.02335e-14 1 0
-5.7415e-14 1 0
5.57758e-14 1 0
5.59621e-14 1 0
-4.08291e-14 1 0
-3.87966e-14 1 0
5.37793e-14 1 0
4.34034e-14 1 0
-3.87966e-14 1 0
-3.38486e-14 1 0
4.34034e-14 1 0
3.65843e-14 1 0
-5.47256e-14 1 0
-5.27942e-14 1 0
4.59812e-14 1 0
5.27878e-14 1 0
-5.27942e-14 1 0
-4.20106e-14 1 0
5.27878e-14 1 0
4.63178e-14 1 0
-3.38486e-14 1 0
-3.96831e-14 1 0
3.65843e-14 1 0
3.62773e-14 1 0
-3.96831e-14 1 0
-3.75214e-14 1 0
3.62773e-14 1 0
3.75394e-14 1 0
-4.20106e-14 1 0
-4.13936e-14 1 0
4.63178e-14 1 0
4.5881e-14 1 0
-4.13936e-14 1 0
-4.36629e-14 1 0
4.5881e-14 1 0
4.87137e-14 1 0
-5.70094e-14 1 0
-5.48774e-14 1 0
5.24929e-14 1 0
5.42696e-14 1 0
-5.48774e-14 1 0
-5.5894e-14 1 0
5.42696e-14 1 0
5.22642e-14 1 0
-5.75861e-14 1 0
-5.768e-14 1 0
7.14937e-14 1 0
6.7694e-14 1 0
-5.768e-14 1 0
-5.74433e-14 1 0
6.7694e-14 1 0
6.95557e-14 1 0
-5.5894e-14 1 0
-6.64767e-14 1 0
5.22642e-14 1 0
5.87377e-14 1 0
-6.64767e-14 1 0
-6.16786e-14 1 0
5.87377e-14 1 0
5.58801e-14 1 0
-5.74433e-14 1 0
-5.83759e-14 1 0
6.95557e-14 1 0
7.56112e-14 1 0
-5.83759e-14 1 0
-5.08127e-14 1 0
7.56112e-14 1 0
6.84298e-14 1 0
-5.73548e-14 1 0
-5.43981e-14 1 0
5.40318e-14 1 0
5.34022e-14 1 0
-5.43981e-14 1 0
-5.88425e-14 1 0
5.34022e-14 1 0
5.59654e-14 1 0
-7.07034e-14 1 0
-7.43777e-14 1 0
8.05629e-14 1 0
8.36452e-14 1 0
-7.43777e-14 1 0
-6.01988e-14 1 0
8.36452e-14 1 0
6.90644e-14 1 0
-5.88425e-14 1 0
-6.82866e-14 1 0
5.59654e-14 1 0
6.00286e-14 1 0
-6.82866e-14 1 0
-6.02649e-14 1 0
6.00286e-14 1 0
4.84284e-14 1 0
-6.01988e-14 1 0
-6.58919e-14 1 0
6.90644e-14 1 0
7.91876e-14 1 0
-6.58919e-14 1 0
-6.56157e-14 1 0
7.91876e-14 1 0
8.30103e-14 1 0
-6.16786e-14 1 0
-5.56867e-14 1 0
5.58801e-14 1 0
4.74535e-14 1 0
-5.56867e-14 1 0
-4.19795e-14 1 0
4.74535e-14 1 0
5.33505e-14 1 0
-5.08127e-14 1 0
-5.02492e-14 1 0
6.84298e-14 1 0
6.32367e-14 1 0
-5.02492e-14 1 0
-6.33232e-14 1 0
6.32367e-14 1 0
7.48643e-14 1 0
-4.19795e-14 1 0
-1.47212e-14 1 0
5.33505e-14 1 0
1.76348e-14 1 0
-1.47212e-14 1 0
-4.81047e-14 1 0
1.76348e-14 1 0
5.46307e-14 1 0
-6.33232e-14 1 0
-1.85425e-14 1 0
7.48643e-14 1 0
3.1928e-14 1 0
-1.85425e-14 1 0
-5.91703e-14 1 0
3.1928e-14 1 0
7.4189e-14 1 0
-6.02649e-14 1 0
-5.64955e-14 1 0
4.84284e-14 1 0
4.90411e-14 1 0
-5.64955e-14 1 0
-6.14591e-14 1 0
4.90411e-14 1 0
5.80803e-14 1 0
-6.56157e-14 1 0
-3.43689e-14 1 0
8.30103e-14 1 0
3.22061e-14 1 0
-3.43689e-14 1 0
-6.10656e-14 1 0
3.22061e-14 1 0
6.56857e-14 1 0
-6.14591e-14 1 0
-5.15512e-14 1 0
5.80803e-14 1 0
5.19084e-14 1 0
-5.15512e-14 1 0
-6.69666e-14 1 0
5.19084e-14 1 0
5.7693e-14 1 0
-6.10656e-14 1 0
-3.18572e-14 1 0
6.56857e-14 1 0
2.78032e-14 1 0
-3.18572e-14 1 0
-5.88096e-14 1 0
2.78032e-14 1 0
7.57411e-14 1 0
-6.59499e-14 1 0
-7.25562e-14 1 0
6.49795e-14 1 0
7.5539e-14 1 0
-7.25562e-14 1 0
-6.64646e-14 1 0
7.5539e-14 1 0
7.09911e-14 1 0
-5.7415e-14 1 0
-5.8153e-14 1 0
5.59621e-14 1 0
5.88965e-14 1 0
-5.8153e-14 1 0
-5.46697e-14 1 0
5.88965e-14 1 0
5.45135e-14 1 0
-6.64646e-14 1 0
-6.84326e-14 1 0
7.09911e-14 1 0
7.51045e-14 1 0
-6.84326e-14 1 0
-6.58754e-14 1 0
7.51045e-14 1 0
6.92448e-14 1 0
-5.46697e-14 1 0
-6.63241e-14 1 0
5.45135e-14 1 0
6.43936e-14 1 0
-6.63241e-14 1 0
-5.12791e-14 1 0
6.43936e-14 1 0
4.42271e-14 1 0
-3.75214e-14 1 0
-4.80014e-14 1 0
3.75394e-14 1 0
4.45667e-14 1 0
-4.80014e-14 1 0
-4.08555e-14 1 0
4.45667e-14 1 0
4.23646e-14 1 0
-4.36629e-14 1 0
-4.72826e-14 1 0
4.87137e-14 1 0
4.97779e-14 1 0
-4.72826e-14 1 0
-4.62011e-14 1 0
4.97779e-14 1 0
5.05664e-14 1 0
-4.08555e-14 1 0
-4.5114e-14 1 0
4.23646e-14 1 0
3.65569e-14 1 0
-4.5114e-14 1 0
-3.18232e-14 1 0
3.65569e-14 1 0
3.50662e-14 1 0
-4.62011e-14 1 0
-4.23354e-14 1 0
5.05664e-14 1 0
5.96647e-14 1 0
-4.23354e-14 1 0
-3.80535e-14 1 0
5.96647e-14 1 0
4.85553e-14 1 0
-6.58754e-14 1 0
-2.2977e-14 1 0
6.92448e-14 1 0
3.78401e-14 1 0
-2.2977e-14 1 0
-5.40391e-14 1 0
3.78401e-14 1 0
7.23784e-14 1 0
-5.12791e-14 1 0
-3.70819e-14 1 0
4.42271e-14 1 0
4.06959e-14 1 0
-3.70819e-14 1 0
-6.62568e-14 1 0
4.06959e-14 1 0
6.48981e-14 1 0
-5.40391e-14 1 0
-7.62919e-15 1 0
7.23784e-14 1 0
1.80932e-14 1 0
-7.62919e-15 1 0
-6.65805e-14 1 0
1.80932e-14 1 0
6.2318e-14 1 0
-6.62568e-14 1 0
-3.2597e-14 1 0
6.48981e-14 1 0
4.76204e-14 1 0
-3.2597e-14 1 0
-5.58508e-14 1 0
4.76204e-14 1 0
6.1693e-14 1 0
-3.18232e-14 1 0
-3.22155e-14 1 0
3.50662e-14 1 0
3.43542e-14 1 0
-3.22155e-14 1 0
-4.35818e-14 1 0
3.43542e-14 1 0
3.33898e-14 1 0
-3.80535e-14 1 0
-3.06487e-14 1 0
4.85553e-14 1 0
3.76192e-14 1 0
-3.06487e-14 1 0
-3.42188e-14 1 0
3.76192e-14 1 0
4.54189e-14 1 0
-4.35818e-14 1 0
-3.62548e-14 1 0
3.33898e-14 1 0
3.08826e-14 1 0
-3.62548e-14 1 0
-4.08589e-14 1 0
3.08826e-14 1 0
3.92714e-14 1 0
-3.42188e-14 1 0
-1.45053e-14 1 0
4.54189e-14 1 0
1.33164e-14 1 0
-1.45053e-14 1 0
-3.34503e-14 1 0
1.33164e-14 1 0
3.6553e-14 1 0
-2.6042e-14 1 0
-4.31e-15 1 0
3.88889e-14 1.00001 0
1.27514e-15 1.00001 0
-4.31e-15 1 0
-6.11009e-14 1 0
1.27514e-15 1.00001 0
8.83171e-14 1.00001 0
-2.75402e-14 1.00001 0
1.7627e-15 1.00001 0
2.41223e-14 1 0
7.52798e-15 1 0
1.7627e-15 1.00001 0
-7.03053e-14 1.00001 0
7.52798e-15 1 0
6.5222e-14 1 0
-6.11009e-14 1 0
-6.25697e-14 1 0
8.83171e-14 1.00001 0
9.40976e-14 1.00001 0
-6.25697e-14 1 0
-6.57448e-14 1 0
9.40976e-14 1.00001 0
9.9016e-14 1.00001 0
-7.03053e-14 1.00001 0
-6.92033e-14 1.00001 0
6.5222e-14 1 0
5.85381e-14 1 0
-6.92033e-14 1.00001 0
-1.02889e-13 1.00001 0
5.85381e-14 1 0
1.06302e-13 1 0
-6.06621e-14 1 0
-4.14669e-14 1 0
7.89182e-14 1 0
5.7469e-14 1 0
-4.14669e-14 1 0
-5.13987e-14 1 0
5.7469e-14 1 0
5.77317e-14 1 0
-5.89685e-14 1 0
-5.2692e-14 1 0
6.3607e-14 1 0
6.86797e-14 1 0
-5.2692e-14 1 0
-5.06524e-14 1 0
6.86797e-14 1 0
6.60665e-14 1 0
-5.13987e-14 1 0
-6.97949e-14 1 0
5.77317e-14 1 0
9.10685e-14 1 0
-6.97949e-14 1 0
-6.99097e-14 1 0
9.10685e-14 1 0
7.99219e-14 1 0
-5.06524e-14 1 0
-6.38084e-14 1 0
6.60665e-14 1 0
6.02132e-14 1 0
-6.38084e-14 1 0
-7.87036e-14 1 0
6.02132e-14 1 0
7.07196e-14 1 0
-6.57448e-14 1 0
-4.86092e-14 1 0
9.9016e-14 1.00001 0
6.04544e-14 1.00001 0
-4.86092e-14 1 0
-1.13581e-14 1 0
6.04544e-14 1.00001 0
2.5789e-14 1.00001 0
-1.02889e-13 1.00001 0
-1.75692e-14 1.00001 0
1.06302e-13 1 0
2.61916e-14 1 0
-1.75692e-14 1.00001 0
-1.0054e-14 1.00001 0
2.61916e-14 1 0
2.51453e-14 1 0
-1.13581e-14 1 0
-3.3069e-14 1 0
2.5789e-14 1.00001 0
4.97513e-14 1.00001 0
-3.3069e-14 1 0
-2.94574e-14 1 0
4.97513e-14 1.00001 0
3.74172e-14 1.00001 0
-1.0054e-14 1.00001 0
-1.95497e-14 1.00001 0
2.51453e-14 1 0
2.92478e-14 1 0
-1.95497e-14 1.00001 0
-2.29939e-14 1.00001 0
2.92478e-14 1 0
3.33398e-14 1 0
-6.99097e-14 1 0
-2.67184e-14 1 0
7.99219e-14 1 0
3.82844e-14 1 0
-2.67184e-14 1 0
-4.38624e-14 1 0
3.82844e-14 1 0
5.88375e-14 1 0
-7.87036e-14 1 0
-2.16936e-14 1 0
7.07196e-14 1 0
2.24857e-14 1 0
-2.16936e-14 1 0
-4.39483e-14 1 0
2.24857e-14 1 0
4.72665e-14 1 0
-4.38624e-14 1 0
-3.85879e-14 1 0
5.88375e-14 1 0
4.28967e-14 1 0
-3.85879e-14 1 0
-3.34677e-14 1 0
4.28967e-14 1 0
4.41326e-14 1 0
-4.39483e-14 1 0
-2.29425e-14 1 0
4.72665e-14 1 0
3.24271e-14 1 0
-2.29425e-14 1 0
-2.23322e-14 1 0
3.24271e-14 1 0
2.45411e-14 1 0
-6.43213e-14 1 0
-7.32918e-14 1 0
7.22576e-14 1 0
8.28993e-14 1 0
-7.32918e-14 1 0
-7.89142e-14 1 0
8.28993e-14 1 0
8.5822e-14 1 0
-7.67996e-14 1 0
-7.81573e-14 1 0
8.91017e-14 1 0
8.53088e-14 1 0
-7.81573e-14 1 0
-7.45316e-14 1 0
8.53088e-14 1 0
7.32308e-14 1 0
-7.89142e-14 1 0
-7.03115e-14 1 0
8.5822e-14 1 0
7.99616e-14 1 0
-7.03115e-14 1 0
-5.40467e-14 1 0
7.99616e-14 1 0
6.54705e-14 1 0
-7.45316e-14 1 0
-7.23353e-14 1 0
7.32308e-14 1 0
7.53531e-14 1 0
-7.23353e-14 1 0
-5.70014e-14 1 0
7.53531e-14 1 0
6.37578e-14 1 0
-6.33477e-14 1 0
-6.71011e-14 1 0
5.73111e-14 1 0
6.37005e-14 1 0
-6.71011e-14 1 0
-5.0206e-14 1 0
6.37005e-14 1 0
5.73644e-14 1 0
-4.52549e-14 1 0
-6.32402e-14 1 0
5.1042e-14 1 0
7.17309e-14 1 0
-6.32402e-14 1 0
-7.15138e-14 1 0
7.17309e-14 1 0
7.28774e-14 1 0
-5.0206e-14 1 0
-6.00715e-14 1 0
5.73644e-14 1 0
7.09197e-14 1 0