# vtk DataFile Version 3.0
#This file was generated by the deal.II library on 2018/10/24 at 16:39:29
ASCII
DATASET UNSTRUCTURED_GRID

POINTS 20480 double
0 0 0
0.19635 0 0
0 0.3125 0
0.19635 0.3125 0
0.19635 0 0
0.392699 0 0
0.19635 0.3125 0
0.392699 0.3125 0
0 0.3125 0
0.19635 0.3125 0
0 0.625 0
0.19635 0.625 0
0.19635 0.3125 0
0.392699 0.3125 0
0.19635 0.625 0
0.392699 0.625 0
0.392699 0 0
0.589049 0 0
0.392699 0.3125 0
0.589049 0.3125 0
0.589049 0 0
0.785398 0 0
0.589049 0.3125 0
0.785398 0.3125 0
0.392699 0.3125 0
0.589049 0.3125 0
0.392699 0.625 0
0.589049 0.625 0
0.589049 0.3125 0
0.785398 0.3125 0
0.589049 0.625 0
0.785398 0.625 0
0 0.625 0
0.19635 0.625 0
0 0.9375 0
0.19635 0.9375 0
0.19635 0.625 0
0.392699 0.625 0
0.19635 0.9375 0
0.392699 0.9375 0
0 0.9375 0
0.19635 0.9375 0
0 1.25 0
0.19635 1.25 0
0.19635 0.9375 0
0.392699 0.9375 0
0.19635 1.25 0
0.392699 1.25 0
0.392699 0.625 0
0.589049 0.625 0
0.392699 0.9375 0
0.589049 0.9375 0
0.589049 0.625 0
0.785398 0.625 0
0.589049 0.9375 0
0.785398 0.9375 0
0.392699 0.9375 0
0.589049 0.9375 0
0.392699 1.25 0
0.589049 1.25 0
0.589049 0.9375 0
0.785398 0.9375 0
0.589049 1.25 0
0.785398 1.25 0
0.785398 0 0
0.981748 0 0
0.785398 0.3125 0
0.981748 0.3125 0
0.981748 0 0
1.1781 0 0
0.981748 0.3125 0
1.1781 0.3125 0
0.785398 0.3125 0
0.981748 0.3125 0
0.785398 0.625 0
0.981748 0.625 0
0.981748 0.3125 0
1.1781 0.3125 0
0.981748 0.625 0
1.1781 0.625 0
1.1781 0 0
1.37445 0 0
1.1781 0.3125 0
1.37445 0.3125 0
1.37445 0 0
1.5708 0 0
1.37445 0.3125 0
1.5708 0.3125 0
1.1781 0.3125 0
1.37445 0.3125 0
1.1781 0.625 0
1.37445 0.625 0
1.37445 0.3125 0
1.5708 0.3125 0
1.37445 0.625 0
1.5708 0.625 0
0.785398 0.625 0
0.981748 0.625 0
0.785398 0.9375 0
0.981748 0.9375 0
0.981748 0.625 0
1.1781 0.625 0
0.981748 0.9375 0
1.1781 0.9375 0
0.785398 0.9375 0
0.981748 0.9375 0
0.785398 1.25 0
0.981748 1.25 0
0.981748 0.9375 0
1.1781 0.9375 0
0.981748 1.25 0
1.1781 1.25 0
1.1781 0.625 0
1.37445 0.625 0
1.1781 0.9375 0
1.37445 0.9375 0
1.37445 0.625 0
1.5708 0.625 0
1.37445 0.9375 0
1.5708 0.9375 0
1.1781 0.9375 0
1.37445 0.9375 0
1.1781 1.25 0
1.37445 1.25 0
1.37445 0.9375 0
1.5708 0.9375 0
1.37445 1.25 0
1.5708 1.25 0
0 1.25 0
0.19635 1.25 0
0 1.5625 0
0.19635 1.5625 0
0.19635 1.25 0
0.392699 1.25 0
0.19635 1.5625 0
0.392699 1.5625 0
0 1.5625 0
0.19635 1.5625 0
0 1.875 0
0.19635 1.875 0
0.19635 1.5625 0
0.392699 1.5625 0
0.19635 1.875 0
0.392699 1.875 0
0.392699 1.25 0
0.589049 1.25 0
0.392699 1.5625 0
0.589049 1.5625 0
0.589049 1.25 0
0.785398 1.25 0
0.589049 1.5625 0
0.785398 1.5625 0
0.392699 1.5625 0
0.589049 1.5625 0
0.392699 1.875 0
0.589049 1.875 0
0.589049 1.5625 0
0.785398 1.5625 0
0.589049 1.875 0
0.785398 1.875 0
0 1.875 0
0.19635 1.875 0
0 2.1875 0
0.19635 2.1875 0
0.19635 1.875 0
0.392699 1.875 0
0.19635 2.1875 0
0.392699 2.1875 0
0 2.1875 0
0.19635 2.1875 0
0 2.5 0
0.19635 2.5 0
0.19635 2.1875 0
0.392699 2.1875 0
0.19635 2.5 0
0.392699 2.5 0
0.392699 1.875 0
0.589049 1.875 0
0.392699 2.1875 0
0.589049 2.1875 0
0.589049 1.875 0
0.785398 1.875 0
0.589049 2.1875 0
0.785398 2.1875 0
0.392699 2.1875 0
0.589049 2.1875 0
0.392699 2.5 0
0.589049 2.5 0
0.589049 2.1875 0
0.785398 2.1875 0
0.589049 2.5 0
0.785398 2.5 0
0.785398 1.25 0
0.981748 1.25 0
0.785398 1.5625 0
0.981748 1.5625 0
0.981748 1.25 0
1.1781 1.25 0
0.981748 1.5625 0
1.1781 1.5625 0
0.785398 1.5625 0
0.981748 1.5625 0
0.785398 1.875 0
0.981748 1.875 0
0.981748 1.5625 0
1.1781 1.5625 0
0.981748 1.875 0
1.1781 1.875 0
1.1781 1.25 0
1.37445 1.25 0
1.1781 1.5625 0
1.37445 1.5625 0
1.37445 1.25 0
1.5708 1.25 0
1.37445 1.5625 0
1.5708 1.5625 0
1.1781 1.5625 0
1.37445 1.5625 0
1.1781 1.875 0
1.37445 1.875 0
1.37445 1.5625 0
1.5708 1.5625 0
1.37445 1.875 0
1.5708 1.875 0
0.785398 1.875 0
0.981748 1.875 0
0.785398 2.1875 0
0.981748 2.1875 0
0.981748 1.875 0
1.1781 1.875 0
0.981748 2.1875 0
1.1781 2.1875 0
0.785398 2.1875 0
0.981748 2.1875 0
0.785398 2.5 0
0.981748 2.5 0
0.981748 2.1875 0
1.1781 2.1875 0
0.981748 2.5 0
1.1781 2.5 0
1.1781 1.875 0
1.37445 1.875 0
1.1781 2.1875 0
1.37445 2.1875 0
1.37445 1.875 0
1.5708 1.875 0
1.37445 2.1875 0
1.5708 2.1875 0
1.1781 2.1875 0
1.37445 2.1875 0
1.1781 2.5 0
1.37445 2.5 0
1.37445 2.1875 0
1.5708 2.1875 0
1.37445 2.5 0
1.5708 2.5 0
1.5708 0 0
1.76715 0 0
1.5708 0.3125 0
1.76715 0.3125 0
1.76715 0 0
1.9635 0 0
1.76715 0.3125 0
1.9635 0.3125 0
1.5708 0.3125 0
1.76715 0.3125 0
1.5708 0.625 0
1.76715 0.625 0
1.76715 0.3125 0
1.9635 0.3125 0
1.76715 0.625 0
1.9635 0.625 0
1.9635 0 0
2.15984 0 0
1.9635 0.3125 0
2.15984 0.3125 0
2.15984 0 0
2.35619 0 0
2.15984 0.3125 0
2.35619 0.3125 0
1.9635 0.3125 0
2.15984 0.3125 0
1.9635 0.625 0
2.15984 0.625 0
2.15984 0.3125 0
2.35619 0.3125 0
2.15984 0.625 0
2.35619 0.625 0
1.5708 0.625 0
1.76715 0.625 0
1.5708 0.9375 0
1.76715 0.9375 0
1.76715 0.625 0
1.9635 0.625 0
1.76715 0.9375 0
1.9635 0.9375 0
1.5708 0.9375 0
1.76715 0.9375 0
1.5708 1.25 0
1.76715 1.25 0
1.76715 0.9375 0
1.9635 0.9375 0
1.76715 1.25 0
1.9635 1.25 0
1.9635 0.625 0
2.15984 0.625 0
1.9635 0.9375 0
2.15984 0.9375 0
2.15984 0.625 0
2.35619 0.625 0
2.15984 0.9375 0
2.35619 0.9375 0
1.9635 0.9375 0
2.15984 0.9375 0
1.9635 1.25 0
2.15984 1.25 0
2.15984 0.9375 0
2.35619 0.9375 0
2.15984 1.25 0
2.35619 1.25 0
2.35619 0 0
2.55254 0 0
2.35619 0.3125 0
2.55254 0.3125 0
2.55254 0 0
2.74889 0 0
2.55254 0.3125 0
2.74889 0.3125 0
2.35619 0.3125 0
2.55254 0.3125 0
2.35619 0.625 0
2.55254 0.625 0
2.55254 0.3125 0
2.74889 0.3125 0
2.55254 0.625 0
2.74889 0.625 0
2.74889 0 0
2.94524 0 0
2.74889 0.3125 0
2.94524 0.3125 0
2.94524 0 0
3.14159 0 0
2.94524 0.3125 0
3.14159 0.3125 0
2.74889 0.3125 0
2.94524 0.3125 0
2.74889 0.625 0
2.94524 0.625 0
2.94524 0.3125 0
3.14159 0.3125 0
2.94524 0.625 0
3.14159 0.625 0
2.35619 0.625 0
2.55254 0.625 0
2.35619 0.9375 0
2.55254 0.9375 0
2.55254 0.625 0
2.74889 0.625 0
2.55254 0.9375 0
2.74889 0.9375 0
2.35619 0.9375 0
2.55254 0.9375 0
2.35619 1.25 0
2.55254 1.25 0
2.55254 0.9375 0
2.74889 0.9375 0
2.55254 1.25 0
2.74889 1.25 0
2.74889 0.625 0
2.94524 0.625 0
2.74889 0.9375 0
2.94524 0.9375 0
2.94524 0.625 0
3.14159 0.625 0
2.94524 0.9375 0
3.14159 0.9375 0
2.74889 0.9375 0
2.94524 0.9375 0
2.74889 1.25 0
2.94524 1.25 0
2.94524 0.9375 0
3.14159 0.9375 0
2.94524 1.25 0
3.14159 1.25 0
1.5708 1.25 0
1.76715 1.25 0
1.5708 1.5625 0
1.76715 1.5625 0
1.76715 1.25 0
1.9635 1.25 0
1.76715 1.5625 0
1.9635 1.5625 0
1.5708 1.5625 0
1.76715 1.5625 0
1.5708 1.875 0
1.76715 1.875 0
1.76715 1.5625 0
1.9635 1.5625 0
1.76715 1.875 0
1.9635 1.875 0
1.9635 1.25 0
2.15984 1.25 0
1.9635 1.5625 0
2.15984 1.5625 0
2.15984 1.25 0
2.35619 1.25 0
2.15984 1.5625 0
2.35619 1.5625 0
1.9635 1.5625 0
2.15984 1.5625 0
1.9635 1.875 0
2.15984 1.875 0
2.15984 1.5625 0
2.35619 1.5625 0
2.15984 1.875 0
2.35619 1.875 0
1.5708 1.875 0
1.76715 1.875 0
1.5708 2.1875 0
1.76715 2.1875 0
1.76715 1.875 0
1.9635 1.875 0
1.76715 2.1875 0
1.9635 2.1875 0
1.5708 2.1875 0
1.76715 2.1875 0
1.5708 2.5 0
1.76715 2.5 0
1.76715 2.1875 0
1.9635 2.1875 0
1.76715 2.5 0
1.9635 2.5 0
1.9635 1.875 0
2.15984 1.875 0
1.9635 2.1875 0
2.15984 2.1875 0
2.15984 1.875 0
2.35619 1.875 0
2.15984 2.1875 0
2.35619 2.1875 0
1.9635 2.1875 0
2.15984 2.1875 0
1.9635 2.5 0
2.15984 2.5 0
2.15984 2.1875 0
2.35619 2.1875 0
2.15984 2.5 0
2.35619 2.5 0
2.35619 1.25 0
2.55254 1.25 0
2.35619 1.5625 0
2.55254 1.5625 0
2.55254 1.25 0
2.74889 1.25 0
2.55254 1.5625 0
2.74889 1.5625 0
2.35619 1.5625 0
2.55254 1.5625 0
2.35619 1.875 0
2.55254 1.875 0
2.55254 1.5625 0
2.74889 1.5625 0
2.55254 1.875 0
2.74889 1.875 0
2.74889 1.25 0
2.94524 1.25 0
2.74889 1.5625 0
2.94524 1.5625 0
2.94524 1.25 0
3.14159 1.25 0
2.94524 1.5625 0
3.14159 1.5625 0
2.74889 1.5625 0
2.94524 1.5625 0
2.74889 1.875 0
2.94524 1.875 0
2.94524 1.5625 0
3.14159 1.5625 0
2.94524 1.875 0
3.14159 1.875 0
2.35619 1.875 0
2.55254 1.875 0
2.35619 2.1875 0
2.55254 2.1875 0
2.55254 1.875 0
2.74889 1.875 0
2.55254 2.1875 0
2.74889 2.1875 0
2.35619 2.1875 0
2.55254 2.1875 0
2.35619 2.5 0
2.55254 2.5 0
2.55254 2.1875 0
2.74889 2.1875 0
2.55254 2.5 0
2.74889 2.5 0
2.74889 1.875 0
2.94524 1.875 0
2.74889 2.1875 0
2.94524 2.1875 0
2.94524 1.875 0
3.14159 1.875 0
2.94524 2.1875 0
3.14159 2.1875 0
2.74889 2.1875 0
2.94524 2.1875 0
2.74889 2.5 0
2.94524 2.5 0
2.94524 2.1875 0
3.14159 2.1875 0
2.94524 2.5 0
3.14159 2.5 0
0 2.5 0
0.19635 2.5 0
0 2.8125 0
0.19635 2.8125 0
0.19635 2.5 0
0.392699 2.5 0
0.19635 2.8125 0
0.392699 2.8125 0
0 2.8125 0
0.19635 2.8125 0
0 3.125 0
0.19635 3.125 0
0.19635 2.8125 0
0.392699 2.8125 0
0.19635 3.125 0
0.392699 3.125 0
0.392699 2.5 0
0.589049 2.5 0
0.392699 2.8125 0
0.589049 2.8125 0
0.589049 2.5 0
0.785398 2.5 0
0.589049 2.8125 0
0.785398 2.8125 0
0.392699 2.8125 0
0.589049 2.8125 0
0.392699 3.125 0
0.589049 3.125 0
0.589049 2.8125 0
0.785398 2.8125 0
0.589049 3.125 0
0.785398 3.125 0
0 3.125 0
0.19635 3.125 0
0 3.4375 0
0.19635 3.4375 0
0.19635 3.125 0
0.392699 3.125 0
0.19635 3.4375 0
0.392699 3.4375 0
0 3.4375 0
0.19635 3.4375 0
0 3.75 0
0.19635 3.75 0
0.19635 3.4375 0
0.392699 3.4375 0
0.19635 3.75 0
0.392699 3.75 0
0.392699 3.125 0
0.589049 3.125 0
0.392699 3.4375 0
0.589049 3.4375 0
0.589049 3.125 0
0.785398 3.125 0
0.589049 3.4375 0
0.785398 3.4375 0
0.392699 3.4375 0
0.589049 3.4375 0
0.392699 3.75 0
0.589049 3.75 0
0.589049 3.4375 0
0.785398 3.4375 0
0.589049 3.75 0
0.785398 3.75 0
0.785398 2.5 0
0.981748 2.5 0
0.785398 2.8125 0
0.981748 2.8125 0
0.981748 2.5 0
1.1781 2.5 0
0.981748 2.8125 0
1.1781 2.8125 0
0.785398 2.8125 0
0.981748 2.8125 0
0.785398 3.125 0
0.981748 3.125 0
0.981748 2.8125 0
1.1781 2.8125 0
0.981748 3.125 0
1.1781 3.125 0
1.1781 2.5 0
1.37445 2.5 0
1.1781 2.8125 0
1.37445 2.8125 0
1.37445 2.5 0
1.5708 2.5 0
1.37445 2.8125 0
1.5708 2.8125 0
1.1781 2.8125 0
1.37445 2.8125 0
1.1781 3.125 0
1.37445 3.125 0
1.37445 2.8125 0
1.5708 2.8125 0
1.37445 3.125 0
1.5708 3.125 0
0.785398 3.125 0
0.981748 3.125 0
0.785398 3.4375 0
0.981748 3.4375 0
0.981748 3.125 0
1.1781 3.125 0
0.981748 3.4375 0
1.1781 3.4375 0
0.785398 3.4375 0
0.981748 3.4375 0
[...]
POINT_DATA 20480
VECTORS velocity double
0 0 0
0 0 0
0 2.25362e-16 0
-2.9659e-16 4.59839e-16 0
0 0 0
0 0 0
-2.9659e-16 4.59839e-16 0
-5.29505e-16 6.39617e-16 0
0 2.25362e-16 0
-2.9659e-16 4.59839e-16 0
0 7.37776e-16 0
-1.88891e-16 7.41058e-16 0
-2.9659e-16 4.59839e-16 0
-5.29505e-16 6.39617e-16 0
-1.88891e-16 7.41058e-16 0
-2.96647e-16 6.45591e-16 0
0 0 0
0 0 0
-5.29505e-16 6.39617e-16 0
-7.69756e-16 6.68024e-17 0
0 0 0
0 0 0
-7.69756e-16 6.68024e-17 0
-5.33395e-16 -1.47284e-16 0
-5.29505e-16 6.39617e-16 0
-7.69756e-16 6.68024e-17 0
-2.96647e-16 6.45591e-16 0
-2.20187e-16 1.92323e-16 0
-7.69756e-16 6.68024e-17 0
-5.33395e-16 -1.47284e-16 0
-2.20187e-16 1.92323e-16 0
2.24605e-18 -8.12352e-16 0
0 7.37776e-16 0
-1.88891e-16 7.41058e-16 0
0 9.18935e-16 0
-3.48695e-17 8.7121e-16 0
-1.88891e-16 7.41058e-16 0
-2.96647e-16 6.45591e-16 0
-3.48695e-17 8.7121e-16 0
-4.0713e-17 6.98764e-16 0
0 9.18935e-16 0
-3.48695e-17 8.7121e-16 0
0 9.25721e-16 0
-7.05315e-18 8.8186e-16 0
-3.48695e-17 8.7121e-16 0
-4.0713e-17 6.98764e-16 0
-7.05315e-18 8.8186e-16 0
-4.0365e-17 7.59954e-16 0
-2.96647e-16 6.45591e-16 0
-2.20187e-16 1.92323e-16 0
-4.0713e-17 6.98764e-16 0
-1.13491e-16 3.76867e-16 0
-2.20187e-16 1.92323e-16 0
2.24605e-18 -8.12352e-16 0
-1.13491e-16 3.76867e-16 0
-3.97162e-16 -1.14693e-17 0
-4.0713e-17 6.98764e-16 0
-1.13491e-16 3.76867e-16 0
-4.0365e-17 7.59954e-16 0
-1.18819e-16 5.64379e-16 0
-1.13491e-16 3.76867e-16 0
-3.97162e-16 -1.14693e-17 0
-1.18819e-16 5.64379e-16 0
-2.58161e-16 4.14755e-16 0
0 0 0
0 0 0
-5.33395e-16 -1.47284e-16 0
-2.34554e-17 -1.10021e-15 0
0 0 0
0 0 0
-2.34554e-17 -1.10021e-15 0
-5.56943e-16 5.62007e-15 0
-5.33395e-16 -1.47284e-16 0
-2.34554e-17 -1.10021e-15 0
2.24605e-18 -8.12352e-16 0
-1.67863e-15 -7.7477e-16 0
-2.34554e-17 -1.10021e-15 0
-5.56943e-16 5.62007e-15 0
-1.67863e-15 -7.7477e-16 0
-1.32761e-15 1.30864e-15 0
0 0 0
0 0 0
-5.56943e-16 5.62007e-15 0
-8.06054e-16 -2.59243e-15 0
0 0 0
0 0 0
-8.06054e-16 -2.59243e-15 0
-9.0539e-16 -6.76814e-15 0
-5.56943e-16 5.62007e-15 0
-8.06054e-16 -2.59243e-15 0
-1.32761e-15 1.30864e-15 0
6.14972e-16 6.61553e-16 0
-8.06054e-16 -2.59243e-15 0
-9.0539e-16 -6.76814e-15 0
6.14972e-16 6.61553e-16 0
-3.43944e-16 -1.34055e-15 0
2.24605e-18 -8.12352e-16 0
-1.67863e-15 -7.7477e-16 0
-3.97162e-16 -1.14693e-17 0
-6.94324e-16 -1.23277e-17 0
-1.67863e-15 -7.7477e-16 0
-1.32761e-15 1.30864e-15 0
-6.94324e-16 -1.23277e-17 0
-7.26402e-16 4.38326e-16 0
-3.97162e-16 -1.14693e-17 0
-6.94324e-16 -1.23277e-17 0
-2.58161e-16 4.14755e-16 0
-4.23466e-16 3.25534e-16 0
-6.94324e-16 -1.23277e-17 0
-7.26402e-16 4.38326e-16 0
-4.23466e-16 3.25534e-16 0
-5.26812e-16 2.14362e-16 0
-1.32761e-15 1.30864e-15 0
6.14972e-16 6.61553e-16 0
-7.26402e-16 4.38326e-16 0
-5.52905e-16 7.14023e-17 0
6.14972e-16 6.61553e-16 0
-3.43944e-16 -1.34055e-15 0
-5.52905e-16 7.14023e-17 0
-6.42962e-16 -4.89818e-16 0
-7.26402e-16 4.38326e-16 0
-5.52905e-16 7.14023e-17 0
-5.26812e-16 2.14362e-16 0
-5.86761e-16 1.3875e-16 0
-5.52905e-16 7.14023e-17 0
-6.42962e-16 -4.89818e-16 0
-5.86761e-16 1.3875e-16 0
-7.28327e-16 3.49959e-17 0
0 9.25721e-16 0
-7.05315e-18 8.8186e-16 0
0 9.42359e-16 0
-2.06132e-17 9.1864e-16 0
-7.05315e-18 8.8186e-16 0
-4.0365e-17 7.59954e-16 0
-2.06132e-17 9.1864e-16 0
-5.77178e-17 8.50701e-16 0
0 9.42359e-16 0
-2.06132e-17 9.1864e-16 0
0 9.82314e-16 0
-3.66944e-17 9.71249e-16 0
-2.06132e-17 9.1864e-16 0
-5.77178e-17 8.50701e-16 0
-3.66944e-17 9.71249e-16 0
-8.57347e-17 9.35348e-16 0
-4.0365e-17 7.59954e-16 0
-1.18819e-16 5.64379e-16 0
-5.77178e-17 8.50701e-16 0
-1.27219e-16 7.36257e-16 0
-1.18819e-16 5.64379e-16 0
-2.58161e-16 4.14755e-16 0
-1.27219e-16 7.36257e-16 0
-2.32039e-16 6.16598e-16 0
-5.77178e-17 8.50701e-16 0
-1.27219e-16 7.36257e-16 0
-8.57347e-17 9.35348e-16 0
-1.50567e-16 8.59052e-16 0
-1.27219e-16 7.36257e-16 0
-2.32039e-16 6.16598e-16 0
-1.50567e-16 8.59052e-16 0
-2.33233e-16 7.75002e-16 0
0 9.82314e-16 0
-3.66944e-17 9.71249e-16 0
0 1.05564e-15 0
-5.18479e-17 1.05159e-15 0
-3.66944e-17 9.71249e-16 0
-8.57347e-17 9.35348e-16 0
-5.18479e-17 1.05159e-15 0
-1.03313e-16 1.02991e-15 0
0 1.05564e-15 0
-5.18479e-17 1.05159e-15 0
0 1.15299e-15 0
-6.30872e-17 1.14435e-15 0
-5.18479e-17 1.05159e-15 0
-1.03313e-16 1.02991e-15 0
-6.30872e-17 1.14435e-15 0
-1.27028e-16 1.13278e-15 0
-8.57347e-17 9.35348e-16 0
-1.50567e-16 8.59052e-16 0
-1.03313e-16 1.02991e-15 0
-1.75597e-16 9.72928e-16 0
-1.50567e-16 8.59052e-16 0
-2.33233e-16 7.75002e-16 0
-1.75597e-16 9.72928e-16 0
-2.61351e-16 9.09291e-16 0
-1.03313e-16 1.02991e-15 0
-1.75597e-16 9.72928e-16 0
-1.27028e-16 1.13278e-15 0
-2.0131e-16 1.09516e-15 0
-1.75597e-16 9.72928e-16 0
-2.61351e-16 9.09291e-16 0
-2.0131e-16 1.09516e-15 0
-2.83077e-16 1.04667e-15 0
-2.58161e-16 4.14755e-16 0
-4.23466e-16 3.25534e-16 0
-2.32039e-16 6.16598e-16 0
-3.3162e-16 5.11414e-16 0
-4.23466e-16 3.25534e-16 0
-5.26812e-16 2.14362e-16 0
-3.3162e-16 5.11414e-16 0
-4.51056e-16 4.18249e-16 0
-2.32039e-16 6.16598e-16 0
-3.3162e-16 5.11414e-16 0
-2.33233e-16 7.75002e-16 0
-3.12979e-16 6.82834e-16 0
-3.3162e-16 5.11414e-16 0
-4.51056e-16 4.18249e-16 0
-3.12979e-16 6.82834e-16 0
-4.29589e-16 5.77231e-16 0
-5.26812e-16 2.14362e-16 0
-5.86761e-16 1.3875e-16 0
-4.51056e-16 4.18249e-16 0
-5.68222e-16 3.10461e-16 0
-5.86761e-16 1.3875e-16 0
-7.28327e-16 3.49959e-17 0
-5.68222e-16 3.10461e-16 0
-6.8636e-16 2.17559e-16 0
-4.51056e-16 4.18249e-16 0
-5.68222e-16 3.10461e-16 0
-4.29589e-16 5.77231e-16 0
-5.43428e-16 4.9814e-16 0
-5.68222e-16 3.10461e-16 0
-6.8636e-16 2.17559e-16 0
-5.43428e-16 4.9814e-16 0
-6.61302e-16 4.39942e-16 0
-2.33233e-16 7.75002e-16 0
-3.12979e-16 6.82834e-16 0
-2.61351e-16 9.09291e-16 0
-3.35692e-16 8.34146e-16 0
-3.12979e-16 6.82834e-16 0
-4.29589e-16 5.77231e-16 0
-3.35692e-16 8.34146e-16 0
-4.3935e-16 7.5371e-16 0
-2.61351e-16 9.09291e-16 0
-3.35692e-16 8.34146e-16 0
-2.83077e-16 1.04667e-15 0
-3.68108e-16 9.88459e-16 0
-3.35692e-16 8.34146e-16 0
-4.3935e-16 7.5371e-16 0
-3.68108e-16 9.88459e-16 0
-4.79491e-16 9.22639e-16 0
-4.29589e-16 5.77231e-16 0
-5.43428e-16 4.9814e-16 0
-4.3935e-16 7.5371e-16 0
-5.56798e-16 6.88858e-16 0
-5.43428e-16 4.9814e-16 0
-6.61302e-16 4.39942e-16 0
-5.56798e-16 6.88858e-16 0
-6.77846e-16 6.36267e-16 0
-4.3935e-16 7.5371e-16 0
-5.56798e-16 6.88858e-16 0
-4.79491e-16 9.22639e-16 0
-5.91203e-16 8.74796e-16 0
-5.56798e-16 6.88858e-16 0
-6.77846e-16 6.36267e-16 0
-5.91203e-16 8.74796e-16 0
-7.09822e-16 8.34114e-16 0
0 0 0
0 0 0
-9.0539e-16 -6.76814e-15 0
-6.85989e-16 3.27719e-16 0
0 0 0
0 0 0
-6.85989e-16 3.27719e-16 0
-1.47948e-16 5.33805e-16 0
-9.0539e-16 -6.76814e-15 0
-6.85989e-16 3.27719e-16 0
-3.43944e-16 -1.34055e-15 0
-1.75924e-15 -6.71558e-16 0
-6.85989e-16 3.27719e-16 0
-1.47948e-16 5.33805e-16 0
-1.75924e-15 -6.71558e-16 0
-1.4602e-15 -3.46849e-17 0
0 0 0
0 0 0
-1.47948e-16 5.33805e-16 0
-2.4004e-16 2.87159e-16 0
0 0 0
0 0 0
-2.4004e-16 2.87159e-16 0
-3.65613e-16 1.36452e-16 0
-1.47948e-16 5.33805e-16 0
-2.4004e-16 2.87159e-16 0
-1.4602e-15 -3.46849e-17 0
-1.14039e-15 1.60492e-16 0
-2.4004e-16 2.87159e-16 0
-3.65613e-16 1.36452e-16 0
-1.14039e-15 1.60492e-16 0
-1.00808e-15 1.61987e-16 0
-3.43944e-16 -1.34055e-15 0
-1.75924e-15 -6.71558e-16 0
-6.42962e-16 -4.89818e-16 0
-1.04889e-15 -5.18808e-16 0
-1.75924e-15 -6.71558e-16 0
-1.4602e-15 -3.46849e-17 0
-1.04889e-15 -5.18808e-16 0
-1.25502e-15 -2.7363e-16 0
-6.42962e-16 -4.89818e-16 0
-1.04889e-15 -5.18808e-16 0
-7.28327e-16 3.49959e-17 0
-9.09488e-16 -5.07754e-17 0
-1.04889e-15 -5.18808e-16 0
-1.25502e-15 -2.7363e-16 0
-9.09488e-16 -5.07754e-17 0
-1.07024e-15 -4.32117e-17 0
-1.4602e-15 -3.46849e-17 0
-1.14039e-15 1.60492e-16 0
-1.25502e-15 -2.7363e-16 0
-1.27908e-15 -5.49623e-17 0
-1.14039e-15 1.60492e-16 0
-1.00808e-15 1.61987e-16 0
-1.27908e-15 -5.49623e-17 0
-1.26097e-15 6.82062e-17 0
-1.25502e-15 -2.7363e-16 0
-1.27908e-15 -5.49623e-17 0
-1.07024e-15 -4.32117e-17 0
-1.18174e-15 2.7053e-17 0
-1.27908e-15 -5.49623e-17 0
-1.26097e-15 6.82062e-17 0
-1.18174e-15 2.7053e-17 0
-1.24251e-15 1.20227e-16 0
0 0 0
0 0 0
-3.65613e-16 1.36452e-16 0
-4.50776e-16 5.55821e-17 0
0 0 0
0 0 0
-4.50776e-16 5.55821e-17 0
-5.05478e-16 1.48221e-17 0
-3.65613e-16 1.36452e-16 0
-4.50776e-16 5.55821e-17 0
-1.00808e-15 1.61987e-16 0
-9.65276e-16 1.09841e-16 0
-4.50776e-16 5.55821e-17 0
-5.05478e-16 1.48221e-17 0
-9.65276e-16 1.09841e-16 0
-9.67798e-16 5.59136e-17 0
0 0 0
0 0 0
-5.05478e-16 1.48221e-17 0
-5.32835e-16 1.15593e-17 0
0 0 0
0 0 0
-5.32835e-16 1.15593e-17 0
-5.88044e-16 3.85864e-17 0
-5.05478e-16 1.48221e-17 0
-5.32835e-16 1.15593e-17 0
-9.67798e-16 5.59136e-17 0
-9.8617e-16 7.21904e-17 0
-5.32835e-16 1.15593e-17 0
-5.88044e-16 3.85864e-17 0
-9.8617e-16 7.21904e-17 0
-1.0412e-15 1.89949e-16 0
-1.00808e-15 1.61987e-16 0
-9.65276e-16 1.09841e-16 0
-1.26097e-15 6.82062e-17 0
-1.28395e-15 1.01949e-16 0
-9.65276e-16 1.09841e-16 0
-9.67798e-16 5.59136e-17 0
-1.28395e-15 1.01949e-16 0
-1.29642e-15 5.2232e-17 0
-1.26097e-15 6.82062e-17 0
-1.28395e-15 1.01949e-16 0
-1.24251e-15 1.20227e-16 0
-1.27159e-15 4.36627e-16 0
-1.28395e-15 1.01949e-16 0
-1.29642e-15 5.2232e-17 0
-1.27159e-15 4.36627e-16 0
-1.32011e-15 -1.88544e-16 0
-9.67798e-16 5.59136e-17 0
-9.8617e-16 7.21904e-17 0
-1.29642e-15 5.2232e-17 0
-1.24178e-15 1.02474e-16 0
-9.8617e-16 7.21904e-17 0
-1.0412e-15 1.89949e-16 0
-1.24178e-15 1.02474e-16 0
-1.28256e-15 2.5766e-16 0
-1.29642e-15 5.2232e-17 0
-1.24178e-15 1.02474e-16 0
-1.32011e-15 -1.88544e-16 0
-1.47176e-15 -4.08172e-16 0
-1.24178e-15 1.02474e-16 0
-1.28256e-15 2.5766e-16 0
-1.47176e-15 -4.08172e-16 0
-1.50933e-15 8.82864e-16 0
-7.28327e-16 3.49959e-17 0
-9.09488e-16 -5.07754e-17 0
-6.8636e-16 2.17559e-16 0
-8.32312e-16 1.71593e-16 0
-9.09488e-16 -5.07754e-17 0
-1.07024e-15 -4.32117e-17 0
-8.32312e-16 1.71593e-16 0
-9.70311e-16 1.66921e-16 0
-6.8636e-16 2.17559e-16 0
-8.32312e-16 1.71593e-16 0
-6.61302e-16 4.39942e-16 0
-7.98221e-16 4.00763e-16 0
-8.32312e-16 1.71593e-16 0
-9.70311e-16 1.66921e-16 0
-7.98221e-16 4.00763e-16 0
-9.30215e-16 3.78076e-16 0
-1.07024e-15 -4.32117e-17 0
-1.18174e-15 2.7053e-17 0
-9.70311e-16 1.66921e-16 0
-1.09845e-15 1.90345e-16 0
-1.18174e-15 2.7053e-17 0
-1.24251e-15 1.20227e-16 0
-1.09845e-15 1.90345e-16 0
-1.19829e-15 2.02244e-16 0
-9.70311e-16 1.66921e-16 0
-1.09845e-15 1.90345e-16 0
-9.30215e-16 3.78076e-16 0
-1.05567e-15 3.84261e-16 0
-1.09845e-15 1.90345e-16 0
-1.19829e-15 2.02244e-16 0
-1.05567e-15 3.84261e-16 0
-1.1822e-15 3.98231e-16 0
-6.61302e-16 4.39942e-16 0
-7.98221e-16 4.00763e-16 0
-6.77846e-16 6.36267e-16 0
-8.0338e-16 6.03587e-16 0
-7.98221e-16 4.00763e-16 0
-9.30215e-16 3.78076e-16 0
-8.0338e-16 6.03587e-16 0
-9.27096e-16 5.84043e-16 0
-6.77846e-16 6.36267e-16 0
-8.0338e-16 6.03587e-16 0
-7.09822e-16 8.34114e-16 0
-8.35361e-16 8.05767e-16 0
-8.0338e-16 6.03587e-16 0
-9.27096e-16 5.84043e-16 0
-8.35361e-16 8.05767e-16 0
-9.57069e-16 7.84192e-16 0
-9.30215e-16 3.78076e-16 0
-1.05567e-15 3.84261e-16 0
-9.27096e-16 5.84043e-16 0
-1.05834e-15 5.85929e-16 0
-1.05567e-15 3.84261e-16 0
-1.1822e-15 3.98231e-16 0
-1.05834e-15 5.85929e-16 0
-1.172e-15 6.1855e-16 0
-9.27096e-16 5.84043e-16 0
-1.05834e-15 5.85929e-16 0
-9.57069e-16 7.84192e-16 0
-1.07474e-15 7.67746e-16 0
-1.05834e-15 5.85929e-16 0
-1.172e-15 6.1855e-16 0
-1.07474e-15 7.67746e-16 0
-1.16711e-15 7.57971e-16 0
-1.24251e-15 1.20227e-16 0
-1.27159e-15 4.36627e-16 0
-1.19829e-15 2.02244e-16 0
-1.2716e-15 -3.78648e-17 0
-1.27159e-15 4.36627e-16 0
-1.32011e-15 -1.88544e-16 0
-1.2716e-15 -3.78648e-17 0
-1.34645e-15 5.83037e-16 0
-1.19829e-15 2.02244e-16 0
-1.2716e-15 -3.78648e-17 0
-1.1822e-15 3.98231e-16 0
-1.36588e-15 3.99683e-16 0
-1.2716e-15 -3.78648e-17 0
-1.34645e-15 5.83037e-16 0
-1.36588e-15 3.99683e-16 0
-1.45312e-15 3.83486e-16 0
-1.32011e-15 -1.88544e-16 0
-1.47176e-15 -4.08172e-16 0
-1.34645e-15 5.83037e-16 0
-1.51004e-15 8.77037e-16 0
-1.47176e-15 -4.08172e-16 0
-1.50933e-15 8.82864e-16 0
-1.51004e-15 8.77037e-16 0
-1.55919e-15 -2.1815e-16 0
-1.34645e-15 5.83037e-16 0
-1.51004e-15 8.77037e-16 0
-1.45312e-15 3.83486e-16 0
-1.36106e-15 4.01738e-16 0
-1.51004e-15 8.77037e-16 0
-1.55919e-15 -2.1815e-16 0
-1.36106e-15 4.01738e-16 0
-1.42961e-15 4.55345e-16 0
-1.1822e-15 3.98231e-16 0
-1.36588e-15 3.99683e-16 0
-1.172e-15 6.1855e-16 0
-1.29732e-15 8.57177e-16 0
-1.36588e-15 3.99683e-16 0
-1.45312e-15 3.83486e-16 0
-1.29732e-15 8.57177e-16 0
-1.38551e-15 2.05011e-16 0
-1.172e-15 6.1855e-16 0
-1.29732e-15 8.57177e-16 0
-1.16711e-15 7.57971e-16 0
-1.22218e-15 7.40719e-16 0
-1.29732e-15 8.57177e-16 0
-1.38551e-15 2.05011e-16 0
-1.22218e-15 7.40719e-16 0
-1.31455e-15 6.92896e-16 0
-1.45312e-15 3.83486e-16 0
-1.36106e-15 4.01738e-16 0
-1.38551e-15 2.05011e-16 0
-1.48867e-15 -4.70345e-17 0
-1.36106e-15 4.01738e-16 0
-1.42961e-15 4.55345e-16 0
-1.48867e-15 -4.70345e-17 0
-1.55943e-15 1.13959e-15 0
-1.38551e-15 2.05011e-16 0
-1.48867e-15 -4.70345e-17 0
-1.31455e-15 6.92896e-16 0
-1.59845e-15 6.81207e-16 0
-1.48867e-15 -4.70345e-17 0
-1.55943e-15 1.13959e-15 0
-1.59845e-15 6.81207e-16 0
-1.67757e-15 7.24746e-16 0
0 1.15299e-15 0
-6.30872e-17 1.14435e-15 0
0 1.25996e-15 0
-6.98858e-17 1.25373e-15 0
-6.30872e-17 1.14435e-15 0
-1.27028e-16 1.13278e-15 0
-6.98858e-17 1.25373e-15 0
-1.44925e-16 1.24615e-15 0
0 1.25996e-15 0
-6.98858e-17 1.25373e-15 0
0 1.37843e-15 0
-7.72463e-17 1.37851e-15 0
-6.98858e-17 1.25373e-15 0
-1.44925e-16 1.24615e-15 0
-7.72463e-17 1.37851e-15 0
-1.61348e-16 1.38002e-15 0
-1.27028e-16 1.13278e-15 0
-2.0131e-16 1.09516e-15 0
-1.44925e-16 1.24615e-15 0
-2.27916e-16 1.21932e-15 0
-2.0131e-16 1.09516e-15 0
-2.83077e-16 1.04667e-15 0
-2.27916e-16 1.21932e-15 0
-3.17075e-16 1.18771e-15 0
-1.44925e-16 1.24615e-15 0
-2.27916e-16 1.21932e-15 0
-1.61348e-16 1.38002e-15 0
-2.51927e-16 1.35995e-15 0
-2.27916e-16 1.21932e-15 0
-3.17075e-16 1.18771e-15 0
-2.51927e-16 1.35995e-15 0
-3.52547e-16 1.34105e-15 0
0 1.37843e-15 0
-7.72463e-17 1.37851e-15 0
0 1.51672e-15 0
-9.29349e-17 1.51725e-15 0
-7.72463e-17 1.37851e-15 0
-1.61348e-16 1.38002e-15 0
-9.29349e-17 1.51725e-15 0
-1.88568e-16 1.52589e-15 0
0 1.51672e-15 0
-9.29349e-17 1.51725e-15 0
0 1.68554e-15 0
-1.19871e-16 1.69483e-15 0
-9.29349e-17 1.51725e-15 0
-1.88568e-16 1.52589e-15 0
-1.19871e-16 1.69483e-15 0
-2.41331e-16 1.70605e-15 0
-1.61348e-16 1.38002e-15 0
-2.51927e-16 1.35995e-15 0
-1.88568e-16 1.52589e-15 0
-2.94031e-16 1.52258e-15 0
-2.51927e-16 1.35995e-15 0
-3.52547e-16 1.34105e-15 0
-2.94031e-16 1.52258e-15 0
-4.10966e-16 1.51124e-15 0
-1.88568e-16 1.52589e-15 0
-2.94031e-16 1.52258e-15 0
-2.41331e-16 1.70605e-15 0
-3.64159e-16 1.71093e-15 0
-2.94031e-16 1.52258e-15 0
-4.10966e-16 1.51124e-15 0
-3.64159e-16 1.71093e-15 0
-4.87205e-16 1.70404e-15 0
-2.83077e-16 1.04667e-15 0
-3.68108e-16 9.88459e-16 0
-3.17075e-16 1.18771e-15 0
-3.97383e-16 1.14597e-15 0
-3.68108e-16 9.88459e-16 0
-4.79491e-16 9.22639e-16 0
-3.97383e-16 1.14597e-15 0
-5.08907e-16 1.0971e-15 0
-3.17075e-16 1.18771e-15 0
-3.97383e-16 1.14597e-15 0
-3.52547e-16 1.34105e-15 0
-4.47379e-16 1.3148e-15 0
-3.97383e-16 1.14597e-15 0
-5.08907e-16 1.0971e-15 0
-4.47379e-16 1.3148e-15 0
-5.66142e-16 1.27487e-15 0
-4.79491e-16 9.22639e-16 0
-5.91203e-16 8.74796e-16 0
-5.08907e-16 1.0971e-15 0
-6.26377e-16 1.0582e-15 0
-5.91203e-16 8.74796e-16 0
-7.09822e-16 8.34114e-16 0
-6.26377e-16 1.0582e-15 0
-7.39746e-16 1.02767e-15 0
-5.08907e-16 1.0971e-15 0
-6.26377e-16 1.0582e-15 0
-5.66142e-16 1.27487e-15 0
-6.81802e-16 1.24354e-15 0
-6.26377e-16 1.0582e-15 0
-7.39746e-16 1.02767e-15 0
-6.81802e-16 1.24354e-15 0
-7.93918e-16 1.21314e-15 0
-3.52547e-16 1.34105e-15 0
-4.47379e-16 1.3148e-15 0
-4.10966e-16 1.51124e-15 0
-5.13964e-16 1.49169e-15 0
-4.47379e-16 1.3148e-15 0
-5.66142e-16 1.27487e-15 0
-5.13964e-16 1.49169e-15 0
-6.3745e-16 1.45971e-15 0
-4.10966e-16 1.51124e-15 0
-5.13964e-16 1.49169e-15 0
-4.87205e-16 1.70404e-15 0
-6.07569e-16 1.6874e-15 0
-5.13964e-16 1.49169e-15 0
-6.3745e-16 1.45971e-15 0
-6.07569e-16 1.6874e-15 0
-7.35826e-16 1.65633e-15 0
-5.66142e-16 1.27487e-15 0
-6.81802e-16 1.24354e-15 0
-6.3745e-16 1.45971e-15 0
-7.55909e-16 1.42398e-15 0
-6.81802e-16 1.24354e-15 0
-7.93918e-16 1.21314e-15 0
-7.55909e-16 1.42398e-15 0
-8.67687e-16 1.39076e-15 0
-6.3745e-16 1.45971e-15 0
-7.55909e-16 1.42398e-15 0
-7.35826e-16 1.65633e-15 0
-8.52246e-16 1.622e-15 0
-7.55909e-16 1.42398e-15 0
-8.67687e-16 1.39076e-15 0
-8.52246e-16 1.622e-15 0
-9.67281e-16 1.58676e-15 0
0 1.68554e-15 0
-1.19871e-16 1.69483e-15 0
0 1.9022e-15 0
-1.37776e-16 1.90493e-15 0
-1.19871e-16 1.69483e-15 0
-2.41331e-16 1.70605e-15 0
-1.37776e-16 1.90493e-15 0
-2.75963e-16 1.90464e-15 0
0 1.9022e-15 0
-1.37776e-16 1.90493e-15 0
0 2.1407e-15 0
-1.36934e-16 2.14276e-15 0
-1.37776e-16 1.90493e-15 0
-2.75963e-16 1.90464e-15 0
-1.36934e-16 2.14276e-15 0
-2.86003e-16 2.13902e-15 0
-2.41331e-16 1.70605e-15 0
-3.64159e-16 1.71093e-15 0
-2.75963e-16 1.90464e-15 0
-4.19851e-16 1.90271e-15 0
-3.64159e-16 1.71093e-15 0
-4.87205e-16 1.70404e-15 0
-4.19851e-16 1.90271e-15 0
-5.52292e-16 1.90939e-15 0
-2.75963e-16 1.90464e-15 0
-4.19851e-16 1.90271e-15 0
-2.86003e-16 2.13902e-15 0
-4.26326e-16 2.1248e-15 0
-4.19851e-16 1.90271e-15 0
-5.52292e-16 1.90939e-15 0
-4.26326e-16 2.1248e-15 0
-5.61234e-16 2.10626e-15 0
0 2.1407e-15 0
-1.36934e-16 2.14276e-15 0
0 2.36869e-15 0
-1.33971e-16 2.36953e-15 0
-1.36934e-16 2.14276e-15 0
-2.86003e-16 2.13902e-15 0
-1.33971e-16 2.36953e-15 0
-2.8129e-16 2.36664e-15 0
0 2.36869e-15 0
-1.33971e-16 2.36953e-15 0
0 2.59455e-15 0
-1.28129e-16 2.59364e-15 0
-1.33971e-16 2.36953e-15 0
-2.8129e-16 2.36664e-15 0
-1.28129e-16 2.59364e-15 0
-2.65598e-16 2.58639e-15 0
-2.86003e-16 2.13902e-15 0
-4.26326e-16 2.1248e-15 0
-2.8129e-16 2.36664e-15 0
-4.16825e-16 2.3401e-15 0
-4.26326e-16 2.1248e-15 0
-5.61234e-16 2.10626e-15 0
-4.16825e-16 2.3401e-15 0
-5.54318e-16 2.31496e-15 0
-2.8129e-16 2.36664e-15 0
-4.16825e-16 2.3401e-15 0
-2.65598e-16 2.58639e-15 0
-3.97841e-16 2.55653e-15 0
-4.16825e-16 2.3401e-15 0
-5.54318e-16 2.31496e-15 0
-3.97841e-16 2.55653e-15 0
-5.33399e-16 2.52635e-15 0
-4.87205e-16 1.70404e-15 0
-6.07569e-16 1.6874e-15 0
-5.52292e-16 1.90939e-15 0
-6.62693e-16 1.88122e-15 0
-6.07569e-16 1.6874e-15 0
-7.35826e-16 1.65633e-15 0
-6.62693e-16 1.88122e-15 0
-7.87183e-16 1.8342e-15 0
-5.52292e-16 1.90939e-15 0
-6.62693e-16 1.88122e-15 0
-5.61234e-16 2.10626e-15 0
-6.81285e-16 2.08068e-15 0
-6.62693e-16 1.88122e-15 0
-7.87183e-16 1.8342e-15 0
-6.81285e-16 2.08068e-15 0
-8.13003e-16 2.03679e-15 0
-7.35826e-16 1.65633e-15 0
-8.52246e-16 1.622e-15 0
-7.87183e-16 1.8342e-15 0
-9.04117e-16 1.79496e-15 0
-8.52246e-16 1.622e-15 0
-9.67281e-16 1.58676e-15 0
-9.04117e-16 1.79496e-15 0
-1.02441e-15 1.75913e-15 0
-7.87183e-16 1.8342e-15 0
-9.04117e-16 1.79496e-15 0
-8.13003e-16 2.03679e-15 0
-9.37364e-16 1.99528e-15 0
-9.04117e-16 1.79496e-15 0
-1.02441e-15 1.75913e-15 0
-9.37364e-16 1.99528e-15 0
-1.06161e-15 1.95938e-15 0
-5.61234e-16 2.10626e-15 0
-6.81285e-16 2.08068e-15 0
-5.54318e-16 2.31496e-15 0
-6.79712e-16 2.28235e-15 0
-6.81285e-16 2.08068e-15 0
-8.13003e-16 2.03679e-15 0
-6.79712e-16 2.28235e-15 0
-8.14738e-16 2.23745e-15 0
-5.54318e-16 2.31496e-15 0
-6.79712e-16 2.28235e-15 0
-5.33399e-16 2.52635e-15 0
-6.57271e-16 2.4866e-15 0
-6.79712e-16 2.28235e-15 0
-8.14738e-16 2.23745e-15 0
-6.57271e-16 2.4866e-15 0
-7.90593e-16 2.43754e-15 0
-8.13003e-16 2.03679e-15 0
-9.37364e-16 1.99528e-15 0
-8.14738e-16 2.23745e-15 0
-9.37866e-16 2.18978e-15 0
-9.37364e-16 1.99528e-15 0
-1.06161e-15 1.95938e-15 0
-9.37866e-16 2.18978e-15 0
-1.06265e-15 2.14637e-15 0
-8.14738e-16 2.23745e-15 0
-9.37866e-16 2.18978e-15 0
-7.90593e-16 2.43754e-15 0
-9.18661e-16 2.39255e-15 0
-9.37866e-16 2.18978e-15 0
-1.06265e-15 2.14637e-15 0
-9.18661e-16 2.39255e-15 0
-1.04649e-15 2.34337e-15 0
-7.09822e-16 8.34114e-16 0
-8.35361e-16 8.05767e-16 0
-7.39746e-16 1.02767e-15 0
-8.64301e-16 9.98733e-16 0
-8.35361e-16 8.05767e-16 0
-9.57069e-16 7.84192e-16 0
-8.64301e-16 9.98733e-16 0
-9.76282e-16 9.73268e-16 0
-7.39746e-16 1.02767e-15 0
-8.64301e-16 9.98733e-16 0
-7.93918e-16 1.21314e-15 0