# vtk DataFile Version 3.0
#This file was generated by the deal.II library on 2018/10/24 at 17:35:31
ASCII
DATASET UNSTRUCTURED_GRID

POINTS 20480 double
0 0 0
0.19635 0 0
0 0.312485 0
0.19635 0.312485 0
0.19635 0 0
0.392699 0 0
0.19635 0.312485 0
0.392699 0.312485 0
0 0.312485 0
0.19635 0.312485 0
0 0.624986 0
0.19635 0.624986 0
0.19635 0.312485 0
0.392699 0.312485 0
0.19635 0.624986 0
0.392699 0.624986 0
0.392699 0 0
0.589049 0 0
0.392699 0.312485 0
0.589049 0.312485 0
0.589049 0 0
0.785398 0 0
0.589049 0.312485 0
0.785398 0.312485 0
0.392699 0.312485 0
0.589049 0.312485 0
0.392699 0.624986 0
0.589049 0.624986 0
0.589049 0.312485 0
0.785398 0.312485 0
0.589049 0.624986 0
0.785398 0.624986 0
0 0.624986 0
0.19635 0.624986 0
0 0.937486 0
0.19635 0.937486 0
0.19635 0.624986 0
0.392699 0.624986 0
0.19635 0.937486 0
0.392699 0.937486 0
0 0.937486 0
0.19635 0.937486 0
0 1.24999 0
0.19635 1.24999 0
0.19635 0.937486 0
0.392699 0.937486 0
0.19635 1.24999 0
0.392699 1.24999 0
0.392699 0.624986 0
0.589049 0.624986 0
0.392699 0.937486 0
0.589049 0.937486 0
0.589049 0.624986 0
0.785398 0.624986 0
0.589049 0.937486 0
0.785398 0.937486 0
0.392699 0.937486 0
0.589049 0.937486 0
0.392699 1.24999 0
0.589049 1.24999 0
0.589049 0.937486 0
0.785398 0.937486 0
0.589049 1.24999 0
0.785398 1.24999 0
0.785398 0 0
0.981748 0 0
0.785398 0.312485 0
0.981748 0.312485 0
0.981748 0 0
1.1781 0 0
0.981748 0.312485 0
1.1781 0.312485 0
0.785398 0.312485 0
0.981748 0.312485 0
0.785398 0.624986 0
0.981748 0.624986 0
0.981748 0.312485 0
1.1781 0.312485 0
0.981748 0.624986 0
1.1781 0.624986 0
1.1781 0 0
1.37445 0 0
1.1781 0.312485 0
1.37445 0.312485 0
1.37445 0 0
1.5708 0 0
1.37445 0.312485 0
1.5708 0.312485 0
1.1781 0.312485 0
1.37445 0.312485 0
1.1781 0.624986 0
1.37445 0.624986 0
1.37445 0.312485 0
1.5708 0.312485 0
1.37445 0.624986 0
1.5708 0.624986 0
0.785398 0.624986 0
0.981748 0.624986 0
0.785398 0.937486 0
0.981748 0.937486 0
0.981748 0.624986 0
1.1781 0.624986 0
0.981748 0.937486 0
1.1781 0.937486 0
0.785398 0.937486 0
0.981748 0.937486 0
0.785398 1.24999 0
0.981748 1.24999 0
0.981748 0.937486 0
1.1781 0.937486 0
0.981748 1.24999 0
1.1781 1.24999 0
1.1781 0.624986 0
1.37445 0.624986 0
1.1781 0.937486 0
1.37445 0.937486 0
1.37445 0.624986 0
1.5708 0.624986 0
1.37445 0.937486 0
1.5708 0.937486 0
1.1781 0.937486 0
1.37445 0.937486 0
1.1781 1.24999 0
1.37445 1.24999 0
1.37445 0.937486 0
1.5708 0.937486 0
1.37445 1.24999 0
1.5708 1.24999 0
0 1.24999 0
0.19635 1.24999 0
0 1.56249 0
0.19635 1.56249 0
0.19635 1.24999 0
0.392699 1.24999 0
0.19635 1.56249 0
0.392699 1.56249 0
0 1.56249 0
0.19635 1.56249 0
0 1.87499 0
0.19635 1.87499 0
0.19635 1.56249 0
0.392699 1.56249 0
0.19635 1.87499 0
0.392699 1.87499 0
0.392699 1.24999 0
0.589049 1.24999 0
0.392699 1.56249 0
0.589049 1.56249 0
0.589049 1.24999 0
0.785398 1.24999 0
0.589049 1.56249 0
0.785398 1.56249 0
0.392699 1.56249 0
0.589049 1.56249 0
0.392699 1.87499 0
0.589049 1.87499 0
0.589049 1.56249 0
0.785398 1.56249 0
0.589049 1.87499 0
0.785398 1.87499 0
0 1.87499 0
0.19635 1.87499 0
0 2.18749 0
0.19635 2.18749 0
0.19635 1.87499 0
0.392699 1.87499 0
0.19635 2.18749 0
0.392699 2.18749 0
0 2.18749 0
0.19635 2.18749 0
0 2.49999 0
0.19635 2.49999 0
0.19635 2.18749 0
0.392699 2.18749 0
0.19635 2.49999 0
0.392699 2.49999 0
0.392699 1.87499 0
0.589049 1.87499 0
0.392699 2.18749 0
0.589049 2.18749 0
0.589049 1.87499 0
0.785398 1.87499 0
0.589049 2.18749 0
0.785398 2.18749 0
0.392699 2.18749 0
0.589049 2.18749 0
0.392699 2.49999 0
0.589049 2.49999 0
0.589049 2.18749 0
0.785398 2.18749 0
0.589049 2.49999 0
0.785398 2.49999 0
0.785398 1.24999 0
0.981748 1.24999 0
0.785398 1.56249 0
0.981748 1.56249 0
0.981748 1.24999 0
1.1781 1.24999 0
0.981748 1.56249 0
1.1781 1.56249 0
0.785398 1.56249 0
0.981748 1.56249 0
0.785398 1.87499 0
0.981748 1.87499 0
0.981748 1.56249 0
1.1781 1.56249 0
0.981748 1.87499 0
1.1781 1.87499 0
1.1781 1.24999 0
1.37445 1.24999 0
1.1781 1.56249 0
1.37445 1.56249 0
1.37445 1.24999 0
1.5708 1.24999 0
1.37445 1.56249 0
1.5708 1.56249 0
1.1781 1.56249 0
1.37445 1.56249 0
1.1781 1.87499 0
1.37445 1.87499 0
1.37445 1.56249 0
1.5708 1.56249 0
1.37445 1.87499 0
1.5708 1.87499 0
0.785398 1.87499 0
0.981748 1.87499 0
0.785398 2.18749 0
0.981748 2.18749 0
0.981748 1.87499 0
1.1781 1.87499 0
0.981748 2.18749 0
1.1781 2.18749 0
0.785398 2.18749 0
0.981748 2.18749 0
0.785398 2.49999 0
0.981748 2.49999 0
0.981748 2.18749 0
1.1781 2.18749 0
0.981748 2.49999 0
1.1781 2.49999 0
1.1781 1.87499 0
1.37445 1.87499 0
1.1781 2.18749 0
1.37445 2.18749 0
1.37445 1.87499 0
1.5708 1.87499 0
1.37445 2.18749 0
1.5708 2.18749 0
1.1781 2.18749 0
1.37445 2.18749 0
1.1781 2.49999 0
1.37445 2.49999 0
1.37445 2.18749 0
1.5708 2.18749 0
1.37445 2.49999 0
1.5708 2.49999 0
1.5708 0 0
1.76715 0 0
1.5708 0.312485 0
1.76715 0.312485 0
1.76715 0 0
1.9635 0 0
1.76715 0.312485 0
1.9635 0.312485 0
1.5708 0.312485 0
1.76715 0.312485 0
1.5708 0.624986 0
1.76715 0.624986 0
1.76715 0.312485 0
1.9635 0.312485 0
1.76715 0.624986 0
1.9635 0.624986 0
1.9635 0 0
2.15984 0 0
1.9635 0.312485 0
2.15984 0.312485 0
2.15984 0 0
2.35619 0 0
2.15984 0.312485 0
2.35619 0.312485 0
1.9635 0.312485 0
2.15984 0.312485 0
1.9635 0.624986 0
2.15984 0.624986 0
2.15984 0.312485 0
2.35619 0.312485 0
2.15984 0.624986 0
2.35619 0.624986 0
1.5708 0.624986 0
1.76715 0.624986 0
1.5708 0.937486 0
1.76715 0.937486 0
1.76715 0.624986 0
1.9635 0.624986 0
1.76715 0.937486 0
1.9635 0.937486 0
1.5708 0.937486 0
1.76715 0.937486 0
1.5708 1.24999 0
1.76715 1.24999 0
1.76715 0.937486 0
1.9635 0.937486 0
1.76715 1.24999 0
1.9635 1.24999 0
1.9635 0.624986 0
2.15984 0.624986 0
1.9635 0.937486 0
2.15984 0.937486 0
2.15984 0.624986 0
2.35619 0.624986 0
2.15984 0.937486 0
2.35619 0.937486 0
1.9635 0.937486 0
2.15984 0.937486 0
1.9635 1.24999 0
2.15984 1.24999 0
2.15984 0.937486 0
2.35619 0.937486 0
2.15984 1.24999 0
2.35619 1.24999 0
2.35619 0 0
2.55254 0 0
2.35619 0.312485 0
2.55254 0.312485 0
2.55254 0 0
2.74889 0 0
2.55254 0.312485 0
2.74889 0.312485 0
2.35619 0.312485 0
2.55254 0.312485 0
2.35619 0.624986 0
2.55254 0.624986 0
2.55254 0.312485 0
2.74889 0.312485 0
2.55254 0.624986 0
2.74889 0.624986 0
2.74889 0 0
2.94524 0 0
2.74889 0.312485 0
2.94524 0.312485 0
2.94524 0 0
3.14159 0 0
2.94524 0.312485 0
3.14159 0.312485 0
2.74889 0.312485 0
2.94524 0.312485 0
2.74889 0.624986 0
2.94524 0.624986 0
2.94524 0.312485 0
3.14159 0.312485 0
2.94524 0.624986 0
3.14159 0.624986 0
2.35619 0.624986 0
2.55254 0.624986 0
2.35619 0.937486 0
2.55254 0.937486 0
2.55254 0.624986 0
2.74889 0.624986 0
2.55254 0.937486 0
2.74889 0.937486 0
2.35619 0.937486 0
2.55254 0.937486 0
2.35619 1.24999 0
2.55254 1.24999 0
2.55254 0.937486 0
2.74889 0.937486 0
2.55254 1.24999 0
2.74889 1.24999 0
2.74889 0.624986 0
2.94524 0.624986 0
2.74889 0.937486 0
2.94524 0.937486 0
2.94524 0.624986 0
3.14159 0.624986 0
2.94524 0.937486 0
3.14159 0.937486 0
2.74889 0.937486 0
2.94524 0.937486 0
2.74889 1.24999 0
2.94524 1.24999 0
2.94524 0.937486 0
3.14159 0.937486 0
2.94524 1.24999 0
3.14159 1.24999 0
1.5708 1.24999 0
1.76715 1.24999 0
1.5708 1.56249 0
1.76715 1.56249 0
1.76715 1.24999 0
1.9635 1.24999 0
1.76715 1.56249 0
1.9635 1.56249 0
1.5708 1.56249 0
1.76715 1.56249 0
1.5708 1.87499 0
1.76715 1.87499 0
1.76715 1.56249 0
1.9635 1.56249 0
1.76715 1.87499 0
1.9635 1.87499 0
1.9635 1.24999 0
2.15984 1.24999 0
1.9635 1.56249 0
2.15984 1.56249 0
2.15984 1.24999 0
2.35619 1.24999 0
2.15984 1.56249 0
2.35619 1.56249 0
1.9635 1.56249 0
2.15984 1.56249 0
1.9635 1.87499 0
2.15984 1.87499 0
2.15984 1.56249 0
2.35619 1.56249 0
2.15984 1.87499 0
2.35619 1.87499 0
1.5708 1.87499 0
1.76715 1.87499 0
1.5708 2.18749 0
1.76715 2.18749 0
1.76715 1.87499 0
1.9635 1.87499 0
1.76715 2.18749 0
1.9635 2.18749 0
1.5708 2.18749 0
1.76715 2.18749 0
1.5708 2.49999 0
1.76715 2.49999 0
1.76715 2.18749 0
1.9635 2.18749 0
1.76715 2.49999 0
1.9635 2.49999 0
1.9635 1.87499 0
2.15984 1.87499 0
1.9635 2.18749 0
2.15984 2.18749 0
2.15984 1.87499 0
2.35619 1.87499 0
2.15984 2.18749 0
2.35619 2.18749 0
1.9635 2.18749 0
2.15984 2.18749 0
1.9635 2.49999 0
2.15984 2.49999 0
2.15984 2.18749 0
2.35619 2.18749 0
2.15984 2.49999 0
2.35619 2.49999 0
2.35619 1.24999 0
2.55254 1.24999 0
2.35619 1.56249 0
2.55254 1.56249 0
2.55254 1.24999 0
2.74889 1.24999 0
2.55254 1.56249 0
2.74889 1.56249 0
2.35619 1.56249 0
2.55254 1.56249 0
2.35619 1.87499 0
2.55254 1.87499 0
2.55254 1.56249 0
2.74889 1.56249 0
2.55254 1.87499 0
2.74889 1.87499 0
2.74889 1.24999 0
2.94524 1.24999 0
2.74889 1.56249 0
2.94524 1.56249 0
2.94524 1.24999 0
3.14159 1.24999 0
2.94524 1.56249 0
3.14159 1.56249 0
2.74889 1.56249 0
2.94524 1.56249 0
2.74889 1.87499 0
2.94524 1.87499 0
2.94524 1.56249 0
3.14159 1.56249 0
2.94524 1.87499 0
3.14159 1.87499 0
2.35619 1.87499 0
2.55254 1.87499 0
2.35619 2.18749 0
2.55254 2.18749 0
2.55254 1.87499 0
2.74889 1.87499 0
2.55254 2.18749 0
2.74889 2.18749 0
2.35619 2.18749 0
2.55254 2.18749 0
2.35619 2.49999 0
2.55254 2.49999 0
2.55254 2.18749 0
2.74889 2.18749 0
2.55254 2.49999 0
2.74889 2.49999 0
2.74889 1.87499 0
2.94524 1.87499 0
2.74889 2.18749 0
2.94524 2.18749 0
2.94524 1.87499 0
3.14159 1.87499 0
2.94524 2.18749 0
3.14159 2.18749 0
2.74889 2.18749 0
2.94524 2.18749 0
2.74889 2.49999 0
2.94524 2.49999 0
2.94524 2.18749 0
3.14159 2.18749 0
2.94524 2.49999 0
3.14159 2.49999 0
0 2.49999 0
0.19635 2.49999 0
0 2.81249 0
0.19635 2.81249 0
0.19635 2.49999 0
0.392699 2.49999 0
0.19635 2.81249 0
0.392699 2.81249 0
0 2.81249 0
0.19635 2.81249 0
0 3.12499 0
0.19635 3.12499 0
0.19635 2.81249 0
0.392699 2.81249 0
0.19635 3.12499 0
0.392699 3.12499 0
0.392699 2.49999 0
0.589049 2.49999 0
0.392699 2.81249 0
0.589049 2.81249 0
0.589049 2.49999 0
0.785398 2.49999 0
0.589049 2.81249 0
0.785398 2.81249 0
0.392699 2.81249 0
0.589049 2.81249 0
0.392699 3.12499 0
0.589049 3.12499 0
0.589049 2.81249 0
0.785398 2.81249 0
0.589049 3.12499 0
0.785398 3.12499 0
0 3.12499 0
0.19635 3.12499 0
0 3.43749 0
0.19635 3.43749 0
0.19635 3.12499 0
0.392699 3.12499 0
0.19635 3.43749 0
[...]
POINT_DATA 20480
VECTORS uf double
0 1 0
3.09797e-15 1 0
0 1.00001 0
-3.64405e-15 1.00001 0
3.09797e-15 1 0
-2.53838e-14 1 0
-3.64405e-15 1.00001 0
3.61519e-14 1.00001 0
0 1.00001 0
1.01223e-14 1.00001 0
0 1 0
-1.1842e-14 1 0
1.01223e-14 1.00001 0
-3.54134e-14 1.00001 0
-1.1842e-14 1 0
3.50879e-14 1 0
-2.53838e-14 1 0
-3.94752e-14 1 0
3.61519e-14 1.00001 0
4.79219e-14 1.00001 0
-3.94752e-14 1 0
-5.92997e-14 1 0
4.79219e-14 1.00001 0
7.20559e-14 1.00001 0
-3.54134e-14 1.00001 0
-4.18922e-14 1.00001 0
3.50879e-14 1 0
4.6276e-14 1 0
-4.18922e-14 1.00001 0
-5.00307e-14 1.00001 0
4.6276e-14 1 0
5.86363e-14 1 0
0 1 0
1.34276e-14 1 0
0 1 0
-1.63724e-14 1 0
1.34276e-14 1 0
-3.0132e-14 1 0
-1.63724e-14 1 0
2.44299e-14 1 0
0 1 0
1.03383e-14 1 0
0 1 0
-8.82746e-15 1 0
1.03383e-14 1 0
-2.11596e-14 1 0
-8.82746e-15 1 0
2.80936e-14 1 0
-3.0132e-14 1 0
-4.41755e-14 1 0
2.44299e-14 1 0
4.67005e-14 1 0
-4.41755e-14 1 0
-6.17209e-14 1 0
4.67005e-14 1 0
6.15334e-14 1 0
-2.11596e-14 1 0
-5.76742e-14 1 0
2.80936e-14 1 0
7.38942e-14 1 0
-5.76742e-14 1 0
-7.99649e-14 1 0
7.38942e-14 1 0
9.1602e-14 1 0
-5.92997e-14 1 0
-3.97766e-14 1 0
7.20559e-14 1.00001 0
4.61985e-14 1.00001 0
-3.97766e-14 1 0
-4.97866e-14 1 0
4.61985e-14 1.00001 0
6.71153e-14 1.00001 0
-5.00307e-14 1.00001 0
-1.86709e-14 1.00001 0
5.86363e-14 1 0
1.37661e-14 1 0
-1.86709e-14 1.00001 0
-6.16235e-14 1.00001 0
1.37661e-14 1 0
5.88472e-14 1 0
-4.97866e-14 1 0
-4.99191e-14 1 0
6.71153e-14 1.00001 0
6.00532e-14 1.00001 0
-4.99191e-14 1 0
-4.92828e-14 1 0
6.00532e-14 1.00001 0
6.28173e-14 1.00001 0
-6.16235e-14 1.00001 0
-4.83706e-14 1.00001 0
5.88472e-14 1 0
5.53162e-14 1 0
-4.83706e-14 1.00001 0
-4.66592e-14 1.00001 0
5.53162e-14 1 0
5.30352e-14 1 0
-6.17209e-14 1 0
-1.34235e-14 1 0
6.15334e-14 1 0
1.66399e-14 1 0
-1.34235e-14 1 0
-6.04006e-14 1 0
1.66399e-14 1 0
6.52944e-14 1 0
-7.99649e-14 1 0
-3.81571e-14 1 0
9.1602e-14 1 0
5.82815e-14 1 0
-3.81571e-14 1 0
-6.47743e-14 1 0
5.82815e-14 1 0
6.96989e-14 1 0
-6.04006e-14 1 0
-6.54048e-14 1 0
6.52944e-14 1 0
6.07168e-14 1 0
-6.54048e-14 1 0
-7.13405e-14 1 0
6.07168e-14 1 0
7.42377e-14 1 0
-6.47743e-14 1 0
-4.79848e-14 1 0
6.96989e-14 1 0
5.83682e-14 1 0
-4.79848e-14 1 0
-7.0048e-14 1 0
5.83682e-14 1 0
6.4196e-14 1 0
0 1 0
1.55243e-14 1 0
0 1 0
-1.41636e-14 1 0
1.55243e-14 1 0
-2.08219e-14 1 0
-1.41636e-14 1 0
1.79029e-14 1 0
0 1 0
1.01689e-14 1 0
0 1 0
-9.71713e-15 1 0
1.01689e-14 1 0
-1.98608e-14 1 0
-9.71713e-15 1 0
1.93633e-14 1 0
-2.08219e-14 1 0
-1.00941e-13 1 0
1.79029e-14 1 0
9.92453e-14 1 0
-1.00941e-13 1 0
-1.04967e-13 1 0
9.92453e-14 1 0
1.03145e-13 1 0
-1.98608e-14 1 0
-7.54675e-14 1 0
1.93633e-14 1 0
7.39969e-14 1 0
-7.54675e-14 1 0
-8.62485e-14 1 0
7.39969e-14 1 0
8.82727e-14 1 0
0 1 0
5.97824e-15 1 0
0 1 0
-8.82077e-15 1 0
5.97824e-15 1 0
-6.99179e-15 1 0
-8.82077e-15 1 0
-2.74166e-16 1 0
0 1 0
1.65881e-14 1 0
0 1 0
-1.77103e-14 1 0
1.65881e-14 1 0
-1.17845e-14 1 0
-1.77103e-14 1 0
1.22016e-14 1 0
-6.99179e-15 1 0
-7.03985e-14 1 0
-2.74166e-16 1 0
5.95918e-14 1 0
-7.03985e-14 1 0
-7.44506e-14 1 0
5.95918e-14 1 0
6.64573e-14 1 0
-1.17845e-14 1 0
-4.88849e-14 1 0
1.22016e-14 1 0
4.32315e-14 1 0
-4.88849e-14 1 0
-6.36442e-14 1 0
4.32315e-14 1 0
6.0025e-14 1 0
-1.04967e-13 1 0
-7.2871e-14 1 0
1.03145e-13 1 0
7.7525e-14 1 0
-7.2871e-14 1 0
-6.61943e-14 1 0
7.7525e-14 1 0
6.46309e-14 1 0
-8.62485e-14 1 0
-7.30309e-14 1 0
8.82727e-14 1 0
6.35275e-14 1 0
-7.30309e-14 1 0
-5.3813e-14 1 0
6.35275e-14 1 0
5.64238e-14 1 0
-6.61943e-14 1 0
-6.41488e-14 1 0
6.46309e-14 1 0
6.68546e-14 1 0
-6.41488e-14 1 0
-5.22683e-14 1 0
6.68546e-14 1 0
6.25294e-14 1 0
-5.3813e-14 1 0
-6.31179e-14 1 0
5.64238e-14 1 0
7.03246e-14 1 0
-6.31179e-14 1 0
-6.98215e-14 1 0
7.03246e-14 1 0
7.78091e-14 1 0
-7.44506e-14 1 0
-4.85073e-14 1 0
6.64573e-14 1 0
5.73091e-14 1 0
-4.85073e-14 1 0
-4.56809e-14 1 0
5.73091e-14 1 0
4.40079e-14 1 0
-6.36442e-14 1 0
-6.67822e-14 1 0
6.0025e-14 1 0
5.68379e-14 1 0
-6.67822e-14 1 0
-5.18081e-14 1 0
5.68379e-14 1 0
5.17363e-14 1 0
-4.56809e-14 1 0
-5.38365e-14 1 0
4.40079e-14 1 0
5.47212e-14 1 0
-5.38365e-14 1 0
-5.09836e-14 1 0
5.47212e-14 1 0
5.14471e-14 1 0
-5.18081e-14 1 0
-5.97809e-14 1 0
5.17363e-14 1 0
5.92092e-14 1 0
-5.97809e-14 1 0
-5.78341e-14 1 0
5.92092e-14 1 0
5.88759e-14 1 0
-4.92828e-14 1 0
-5.95749e-14 1 0
6.28173e-14 1.00001 0
7.96793e-14 1.00001 0
-5.95749e-14 1 0
-6.38038e-14 1 0
7.96793e-14 1.00001 0
8.29833e-14 1.00001 0
-4.66592e-14 1.00001 0
-7.54251e-14 1.00001 0
5.30352e-14 1 0
8.07985e-14 1 0
-7.54251e-14 1.00001 0
-6.57513e-14 1.00001 0
8.07985e-14 1 0
6.61583e-14 1 0
-6.38038e-14 1 0
-5.66386e-14 1 0
8.29833e-14 1.00001 0
6.99089e-14 1.00001 0
-5.66386e-14 1 0
-6.11659e-14 1 0
6.99089e-14 1.00001 0
7.72738e-14 1.00001 0
-6.57513e-14 1.00001 0
-6.6812e-14 1.00001 0
6.61583e-14 1 0
6.78243e-14 1 0
-6.6812e-14 1.00001 0
-7.58385e-14 1.00001 0
6.78243e-14 1 0
7.29834e-14 1 0
-7.13405e-14 1 0
-8.19338e-14 1 0
7.42377e-14 1 0
7.43135e-14 1 0
-8.19338e-14 1 0
-7.12114e-14 1 0
7.43135e-14 1 0
6.96834e-14 1 0
-7.0048e-14 1 0
-6.25523e-14 1 0
6.4196e-14 1 0
7.06317e-14 1 0
-6.25523e-14 1 0
-6.00385e-14 1 0
7.06317e-14 1 0
7.71305e-14 1 0
-7.12114e-14 1 0
-7.52227e-14 1 0
6.96834e-14 1 0
8.2084e-14 1 0
-7.52227e-14 1 0
-7.36929e-14 1 0
8.2084e-14 1 0
8.39491e-14 1 0
-6.00385e-14 1 0
-6.20646e-14 1 0
7.71305e-14 1 0
6.95981e-14 1 0
-6.20646e-14 1 0
-6.46018e-14 1 0
6.95981e-14 1 0
7.45343e-14 1 0
-6.11659e-14 1 0
-5.64408e-14 1 0
7.72738e-14 1.00001 0
8.19078e-14 1.00001 0
-5.64408e-14 1 0
-5.79954e-14 1 0
8.19078e-14 1.00001 0
7.49078e-14 1.00001 0
-7.58385e-14 1.00001 0
-8.47262e-14 1.00001 0
7.29834e-14 1 0
8.1754e-14 1 0
-8.47262e-14 1.00001 0
-6.55768e-14 1.00001 0
8.1754e-14 1 0
6.97433e-14 1 0
-5.79954e-14 1 0
-6.4958e-14 1 0
7.49078e-14 1.00001 0
7.40905e-14 1.00001 0
-6.4958e-14 1 0
-3.29852e-14 1 0
7.40905e-14 1.00001 0
2.86716e-14 1.00001 0
-6.55768e-14 1.00001 0
-5.27894e-14 1.00001 0
6.97433e-14 1 0
6.35257e-14 1 0
-5.27894e-14 1.00001 0
-2.0251e-14 1.00001 0
6.35257e-14 1 0
4.30865e-14 1 0
-7.36929e-14 1 0
-8.44112e-14 1 0
8.39491e-14 1 0
7.89189e-14 1 0
-8.44112e-14 1 0
-8.43347e-14 1 0
7.89189e-14 1 0
8.8682e-14 1 0
-6.46018e-14 1 0
-4.37371e-14 1 0
7.45343e-14 1 0
5.4665e-14 1 0
-4.37371e-14 1 0
-5.88648e-14 1 0
5.4665e-14 1 0
5.60961e-14 1 0
-8.43347e-14 1 0
-8.08178e-14 1 0
8.8682e-14 1 0
7.99588e-14 1 0
-8.08178e-14 1 0
-7.00593e-14 1 0
7.99588e-14 1 0
8.26095e-14 1 0
-5.88648e-14 1 0
-4.56351e-14 1 0
5.60961e-14 1 0
3.73505e-14 1 0
-4.56351e-14 1 0
-6.28701e-14 1 0
3.73505e-14 1 0
5.3885e-14 1 0
-5.22683e-14 1 0
-6.26099e-14 1 0
6.25294e-14 1 0
6.01879e-14 1 0
-6.26099e-14 1 0
-7.49556e-14 1 0
6.01879e-14 1 0
7.23539e-14 1 0
-6.98215e-14 1 0
-6.23195e-14 1 0
7.78091e-14 1 0
6.91446e-14 1 0
-6.23195e-14 1 0
-7.5903e-14 1 0
6.91446e-14 1 0
8.0366e-14 1 0
-7.49556e-14 1 0
-6.49825e-14 1 0
7.23539e-14 1 0
7.30988e-14 1 0
-6.49825e-14 1 0
-6.72615e-14 1 0
7.30988e-14 1 0
6.54787e-14 1 0
-7.5903e-14 1 0
-7.63833e-14 1 0
8.0366e-14 1 0
6.14681e-14 1 0
-7.63833e-14 1 0
-6.52299e-14 1 0
6.14681e-14 1 0
6.4202e-14 1 0
-5.09836e-14 1 0
-4.94246e-14 1 0
5.14471e-14 1 0
5.63823e-14 1 0
-4.94246e-14 1 0
-4.83694e-14 1 0
5.63823e-14 1 0
4.8156e-14 1 0
-5.78341e-14 1 0
-5.11556e-14 1 0
5.88759e-14 1 0
4.71517e-14 1 0
-5.11556e-14 1 0
-4.5292e-14 1 0
4.71517e-14 1 0
4.43044e-14 1 0
-4.83694e-14 1 0
-3.01755e-14 1 0
4.8156e-14 1 0
3.90155e-14 1 0
-3.01755e-14 1 0
-4.89181e-14 1 0
3.90155e-14 1 0
4.96214e-14 1 0
-4.5292e-14 1 0
-4.69004e-14 1 0
4.43044e-14 1 0
5.75471e-14 1 0
-4.69004e-14 1 0
-4.11448e-14 1 0
5.75471e-14 1 0
5.47484e-14 1 0
-6.72615e-14 1 0
-4.6935e-14 1 0
6.54787e-14 1 0
4.94462e-14 1 0
-4.6935e-14 1 0
-4.61474e-14 1 0
4.94462e-14 1 0
5.13278e-14 1 0
-6.52299e-14 1 0
-6.72978e-14 1 0
6.4202e-14 1 0
6.52132e-14 1 0
-6.72978e-14 1 0
-6.03175e-14 1 0
6.52132e-14 1 0
6.57196e-14 1 0
-4.61474e-14 1 0
-1.19401e-14 1 0
5.13278e-14 1 0
2.72653e-14 1 0
-1.19401e-14 1 0
-4.219e-14 1 0
2.72653e-14 1 0
5.09777e-14 1 0
-6.03175e-14 1 0
-5.89843e-14 1 0
6.57196e-14 1 0
6.73419e-14 1 0
-5.89843e-14 1 0
-6.76679e-14 1 0
6.73419e-14 1 0
7.50548e-14 1 0
-4.89181e-14 1 0
-5.41707e-14 1 0
4.96214e-14 1 0
6.72816e-14 1 0
-5.41707e-14 1 0
-4.62418e-14 1 0
6.72816e-14 1 0
5.83745e-14 1 0
-4.11448e-14 1 0
-6.2081e-14 1 0
5.47484e-14 1 0
7.04085e-14 1 0
-6.2081e-14 1 0
-4.61868e-14 1 0
7.04085e-14 1 0
4.98398e-14 1 0
-4.62418e-14 1 0
-4.13537e-14 1 0
5.83745e-14 1 0
4.10303e-14 1 0
-4.13537e-14 1 0
-5.2904e-14 1 0
4.10303e-14 1 0
5.28547e-14 1 0
-4.61868e-14 1 0
-6.50568e-15 1 0
4.98398e-14 1 0
5.97394e-15 1 0
-6.50568e-15 1 0
-3.30239e-14 1 0
5.97394e-15 1 0
5.30333e-14 1 0
0 1 0
1.56856e-14 1 0
0 1 0
-1.11939e-14 1 0
1.56856e-14 1 0
-1.52412e-14 1 0
-1.11939e-14 1 0
2.03747e-14 1 0
0 1 0
1.35836e-14 1 0
0 1 0
-1.18119e-14 1 0
1.35836e-14 1 0
-1.47889e-14 1 0
-1.18119e-14 1 0
1.85528e-14 1 0
-1.52412e-14 1 0
-3.6823e-14 1 0
2.03747e-14 1 0
3.86802e-14 1 0
-3.6823e-14 1 0
-5.47108e-14 1 0
3.86802e-14 1 0
6.36174e-14 1 0
-1.47889e-14 1 0
-3.64697e-14 1 0
1.85528e-14 1 0
4.99974e-14 1 0
-3.64697e-14 1 0
-5.99939e-14 1 0
4.99974e-14 1 0
6.18197e-14 1 0
0 1 0
9.12031e-15 1 0
0 1 0
-1.26425e-14 1 0
9.12031e-15 1 0
-1.22226e-14 1 0
-1.26425e-14 1 0
1.44473e-14 1 0
0 1 0
1.17426e-14 1 0
0 1 0
-7.5305e-15 1 0
1.17426e-14 1 0
-1.87167e-14 1 0
-7.5305e-15 1 0
1.64881e-14 1 0
-1.22226e-14 1 0
-5.97667e-14 1 0
1.44473e-14 1 0
6.21572e-14 1 0
-5.97667e-14 1 0
-6.50726e-14 1 0
6.21572e-14 1 0
7.38133e-14 1 0
-1.87167e-14 1 0
-6.11088e-14 1 0
1.64881e-14 1 0
5.27071e-14 1 0
-6.11088e-14 1 0
-7.38113e-14 1 0
5.27071e-14 1 0
6.65796e-14 1 0
-5.47108e-14 1 0
-4.74688e-14 1 0
6.36174e-14 1 0
5.56002e-14 1 0
-4.74688e-14 1 0
-4.54809e-14 1 0
5.56002e-14 1 0
4.33628e-14 1 0
-5.99939e-14 1 0
-5.33892e-14 1 0
6.18197e-14 1 0
6.14754e-14 1 0
-5.33892e-14 1 0
-4.45902e-14 1 0
6.14754e-14 1 0
5.40003e-14 1 0
-4.54809e-14 1 0
-5.40545e-14 1 0
4.33628e-14 1 0
5.10356e-14 1 0
-5.40545e-14 1 0
-4.58842e-14 1 0
5.10356e-14 1 0
4.13904e-14 1 0
-4.45902e-14 1 0
-4.931e-14 1 0
5.40003e-14 1 0
5.52442e-14 1 0
-4.931e-14 1 0
-5.12043e-14 1 0
5.52442e-14 1 0
5.67327e-14 1 0
-6.50726e-14 1 0
-5.74375e-14 1 0
7.38133e-14 1 0
6.1552e-14 1 0
-5.74375e-14 1 0
-4.55789e-14 1 0
6.1552e-14 1 0
5.49305e-14 1 0
-7.38113e-14 1 0
-6.53119e-14 1 0
6.65796e-14 1 0
6.24925e-14 1 0
-6.53119e-14 1 0
-6.73518e-14 1 0
6.24925e-14 1 0
6.71585e-14 1 0
-4.55789e-14 1 0
-4.94911e-14 1 0
5.49305e-14 1 0
5.51526e-14 1 0
-4.94911e-14 1 0
-4.36174e-14 1 0
5.51526e-14 1 0
4.62681e-14 1 0
-6.73518e-14 1 0
-6.28315e-14 1 0
6.71585e-14 1 0
6.25721e-14 1 0
-6.28315e-14 1 0
-5.33338e-14 1 0
6.25721e-14 1 0
5.4102e-14 1 0
0 1 0
1.03726e-14 1 0
0 1 0
-1.2434e-14 1 0
1.03726e-14 1 0
-9.42379e-15 1 0
-1.2434e-14 1 0
1.78213e-14 1 0
0 1 0
9.40254e-15 1 0
0 1 0
1.14372e-15 1 0
9.40254e-15 1 0
-1.95889e-14 1 0
1.14372e-15 1 0
1.52209e-14 1 0
-9.42379e-15 1 0
-3.22496e-14 1 0
1.78213e-14 1 0
4.32941e-14 1 0
-3.22496e-14 1 0
-4.59989e-14 1 0
4.32941e-14 1 0
4.383e-14 1 0
-1.95889e-14 1 0
-4.6281e-14 1 0
1.52209e-14 1 0
4.08523e-14 1 0
-4.6281e-14 1 0
-4.65e-14 1 0
4.08523e-14 1 0
4.65185e-14 1 0
0 1 0
-2.28283e-15 1 0
0 1 0
-4.09826e-15 1 0
-2.28283e-15 1 0
-7.96425e-15 1 0
-4.09826e-15 1 0
8.0845e-15 1 0
0 1 0
9.92714e-15 1 0
0 1 0
-1.23994e-14 1 0
9.92714e-15 1 0
-2.92785e-15 1 0
-1.23994e-14 1 0
-3.76196e-15 1 0
-7.96425e-15 1 0
-4.12651e-14 1 0
8.0845e-15 1 0
4.54294e-14 1 0
-4.12651e-14 1 0
-4.20853e-14 1 0
4.54294e-14 1 0
4.90138e-14 1 0
-2.92785e-15 1 0
-4.02447e-14 1 0
-3.76196e-15 1 0
3.51256e-14 1 0
-4.02447e-14 1 0
-4.47864e-14 1 0
3.51256e-14 1 0
3.84573e-14 1 0
-4.59989e-14 1 0
-6.64521e-14 1 0
4.383e-14 1 0
6.20843e-14 1 0
-6.64521e-14 1 0
-7.17002e-14 1 0
6.20843e-14 1 0
6.39234e-14 1 0
-4.65e-14 1 0
-4.8208e-14 1 0
4.65185e-14 1 0
4.89416e-14 1 0
-4.8208e-14 1 0
-3.93387e-14 1 0
4.89416e-14 1 0
3.99319e-14 1 0
-7.17002e-14 1 0
-6.83015e-14 1 0
6.39234e-14 1 0
7.12584e-14 1 0
-6.83015e-14 1 0
-6.88937e-14 1 0
7.12584e-14 1 0
7.48804e-14 1 0
-3.93387e-14 1 0
-5.10283e-14 1 0
3.99319e-14 1 0
4.7934e-14 1 0
-5.10283e-14 1 0
-5.1371e-14 1 0
4.7934e-14 1 0
5.03416e-14 1 0
-4.20853e-14 1 0
-3.18951e-14 1 0
4.90138e-14 1 0
3.9852e-14 1 0
-3.18951e-14 1 0
-2.69203e-14 1 0
3.9852e-14 1 0
3.66575e-14 1 0
-4.47864e-14 1 0
-5.37497e-14 1 0
3.84573e-14 1 0
4.90645e-14 1 0
-5.37497e-14 1 0
-5.74173e-14 1 0
4.90645e-14 1 0
5.79617e-14 1 0
-2.69203e-14 1 0
-3.29729e-14 1 0
3.66575e-14 1 0
4.04949e-14 1 0
-3.29729e-14 1 0
-3.04975e-14 1 0
4.04949e-14 1 0
3.36431e-14 1 0
-5.74173e-14 1 0
-5.58971e-14 1 0
5.79617e-14 1 0
5.20429e-14 1 0
-5.58971e-14 1 0
-5.73867e-14 1 0
5.20429e-14 1 0
6.04753e-14 1 0
-4.58842e-14 1 0
-3.67101e-14 1 0
4.13904e-14 1 0
4.22709e-14 1 0
-3.67101e-14 1 0
-3.49657e-14 1 0
4.22709e-14 1 0
3.84994e-14 1 0
-5.12043e-14 1 0
-5.52209e-14 1 0
5.67327e-14 1 0
6.11582e-14 1 0
-5.52209e-14 1 0
-4.45988e-14 1 0
6.11582e-14 1 0
4.96079e-14 1 0
-3.49657e-14 1 0
-4.11723e-14 1 0
3.84994e-14 1 0
4.4817e-14 1 0
-4.11723e-14 1 0
-3.88993e-14 1 0
4.4817e-14 1 0
3.75173e-14 1 0
-4.45988e-14 1 0
-5.90245e-14 1 0
4.96079e-14 1 0
6.2278e-14 1 0
-5.90245e-14 1 0
-4.83847e-14 1 0
6.2278e-14 1 0
5.86033e-14 1 0
-4.36174e-14 1 0
-5.03454e-14 1 0
4.62681e-14 1 0
5.66983e-14 1 0
-5.03454e-14 1 0
-4.07438e-14 1 0
5.66983e-14 1 0
4.56654e-14 1 0
-5.33338e-14 1 0
-7.12867e-14 1 0
5.4102e-14 1 0
7.14661e-14 1 0
-7.12867e-14 1 0
-5.23007e-14 1 0
7.14661e-14 1 0
6.10937e-14 1 0
-4.07438e-14 1 0
-4.0426e-14 1 0
4.56654e-14 1 0
4.04495e-14 1 0
-4.0426e-14 1 0
-4.80884e-14 1 0
4.04495e-14 1 0
5.18686e-14 1 0
-5.23007e-14 1 0
-5.66798e-14 1 0
6.10937e-14 1 0
6.52025e-14 1 0
-5.66798e-14 1 0
-6.10225e-14 1 0
6.52025e-14 1 0
7.19534e-14 1 0
-3.88993e-14 1 0
-3.91383e-14 1 0
3.75173e-14 1 0
4.32691e-14 1 0
-3.91383e-14 1 0
-3.0718e-14 1 0
4.32691e-14 1 0
2.89818e-14 1 0
-4.83847e-14 1 0
-6.07512e-14 1 0
5.86033e-14 1 0
6.06543e-14 1 0
-6.07512e-14 1 0
-4.42804e-14 1 0
6.06543e-14 1 0
6.22784e-14 1 0
-3.0718e-14 1 0
8.56166e-15 1 0
2.89818e-14 1 0
-1.79436e-15 1 0
8.56166e-15 1 0
-3.9075e-14 1 0
-1.79436e-15 1 0
3.90011e-14 1 0
-4.42804e-14 1 0
-6.85457e-15 1 0
6.22784e-14 1 0
1.63225e-14 1 0
-6.85457e-15 1 0
-5.47045e-14 1 0
1.63225e-14 1 0
6.01124e-14 1 0
-4.80884e-14 1 0
-3.65017e-14 1 0
5.18686e-14 1 0
4.59611e-14 1 0
-3.65017e-14 1 0
-4.93467e-14 1 0
4.59611e-14 1 0
4.97051e-14 1 0
-6.10225e-14 1 0
-4.43562e-14 1 0
7.19534e-14 1 0
3.93305e-14 1 0
-4.43562e-14 1 0
-5.18796e-14 1 0
3.93305e-14 1 0
5.33645e-14 1 0
-4.93467e-14 1 0
-2.7651e-14 1 0
4.97051e-14 1 0
3.05857e-14 1 0
-2.7651e-14 1 0
-5.29117e-14 1 0
3.05857e-14 1 0
5.744e-14 1 0
-5.18796e-14 1 0
-1.35339e-14 1 0
5.33645e-14 1 0
2.05979e-14 1 0
-1.35339e-14 1 0
-5.56809e-14 1 0
2.05979e-14 1 0
5.94812e-14 1 0
-6.88937e-14 1 0
-6.9135e-14 1 0
7.48804e-14 1 0
6.53693e-14 1 0
-6.9135e-14 1 0
-7.46464e-14 1 0
6.53693e-14 1 0
7.23743e-14 1 0
-5.1371e-14 1 0
-4.585e-14 1 0
5.03416e-14 1 0
4.59886e-14 1 0
-4.585e-14 1 0
-4.72396e-14 1 0
4.59886e-14 1 0
4.24929e-14 1 0
-7.46464e-14 1 0
-6.81063e-14 1 0
7.23743e-14 1 0
7.0036e-14 1 0
-6.81063e-14 1 0
-7.1381e-14 1 0
7.0036e-14 1 0
7.11276e-14 1 0
-4.72396e-14 1 0
-5.51704e-14 1 0
4.24929e-14 1 0
4.88207e-14 1 0
-5.51704e-14 1 0
-5.97115e-14 1 0
4.88207e-14 1 0
4.74115e-14 1 0
-3.04975e-14 1 0
-3.2429e-14 1 0
3.36431e-14 1 0
3.72239e-14 1 0
-3.2429e-14 1 0
-2.91354e-14 1 0
3.72239e-14 1 0
3.39674e-14 1 0
-5.73867e-14 1 0
-5.14754e-14 1 0
6.04753e-14 1 0
5.44994e-14 1 0
-5.14754e-14 1 0
-5.36211e-14 1 0
5.44994e-14 1 0
5.65749e-14 1 0
-2.91354e-14 1 0
-2.97322e-14 1 0
3.39674e-14 1 0
3.31518e-14 1 0
-2.97322e-14 1 0
-2.84011e-14 1 0
3.31518e-14 1 0
3.50375e-14 1 0
-5.36211e-14 1 0
-5.02198e-14 1 0
5.65749e-14 1 0
5.33869e-14 1 0
-5.02198e-14 1 0
-4.9953e-14 1 0
5.33869e-14 1 0
5.23476e-14 1 0
-7.1381e-14 1 0
-3.19517e-14 1 0
7.11276e-14 1 0
3.43265e-14 1 0
-3.19517e-14 1 0
-5.53665e-14 1 0
3.43265e-14 1 0
6.67519e-14 1 0
-5.97115e-14 1 0
-3.76647e-14 1 0
4.74115e-14 1 0
4.10789e-14 1 0
-3.76647e-14 1 0
-5.97552e-14 1 0
4.10789e-14 1 0
5.83677e-14 1 0
-5.53665e-14 1 0
-1.44791e-14 1 0
6.67519e-14 1 0
2.64517e-14 1 0
-1.44791e-14 1 0
-5.61821e-14 1 0
2.64517e-14 1 0
6.78786e-14 1 0
-5.97552e-14 1 0
-4.08022e-14 1 0
5.83677e-14 1 0
4.48396e-14 1 0
-4.08022e-14 1 0
-6.64342e-14 1 0
4.48396e-14 1 0
5.41438e-14 1 0
-2.84011e-14 1 0
-3.4381e-14 1 0
3.50375e-14 1 0
3.86071e-14 1 0
-3.4381e-14 1 0
-4.1853e-14 1 0
3.86071e-14 1 0
3.80965e-14 1 0
-4.9953e-14 1 0
-3.89024e-14 1 0
5.23476e-14 1 0
4.19779e-14 1 0
-3.89024e-14 1 0
-4.6156e-14 1 0
4.19779e-14 1 0
4.86265e-14 1 0
-4.1853e-14 1 0
-3.22712e-14 1 0
3.80965e-14 1 0
2.25867e-14 1 0
-3.22712e-14 1 0
-2.7089e-14 1 0
2.25867e-14 1 0
3.2317e-14 1 0
-4.6156e-14 1 0
-1.06574e-14 1 0
4.86265e-14 1 0
1.57749e-14 1 0
-1.06574e-14 1 0
-4.1382e-14 1 0
1.57749e-14 1 0
4.76741e-14 1 0
-3.29852e-14 1 0
-1.42051e-14 1 0
2.86716e-14 1.00001 0
-6.78621e-16 1.00001 0
-1.42051e-14 1 0
-5.85303e-14 1 0
-6.78621e-16 1.00001 0
7.16363e-14 1.00001 0
-2.0251e-14 1.00001 0
2.23292e-15 1.00001 0
4.30865e-14 1 0
2.21305e-14 1 0
2.23292e-15 1.00001 0
-6.09876e-14 1.00001 0
2.21305e-14 1 0
6.25914e-14 1 0
-5.85303e-14 1 0
-6.60269e-14 1 0
7.16363e-14 1.00001 0
8.9709e-14 1.00001 0
-6.60269e-14 1 0
-4.33455e-14 1 0
8.9709e-14 1.00001 0
7.04716e-14 1.00001 0
-6.09876e-14 1.00001 0
-7.15435e-14 1.00001 0
6.25914e-14 1 0
7.67134e-14 1 0
-7.15435e-14 1.00001 0
-8.75107e-14 1.00001 0
7.67134e-14 1 0
9.50975e-14 1 0
-7.00593e-14 1 0
-3.59769e-14 1 0
8.26095e-14 1 0
5.24432e-14 1 0
-3.59769e-14 1 0
-4.71244e-14 1 0
5.24432e-14 1 0
6.69645e-14 1 0
-6.28701e-14 1 0
-6.0054e-14 1 0
5.3885e-14 1 0
6.92064e-14 1 0
-6.0054e-14 1 0
-6.66356e-14 1 0
6.92064e-14 1 0
6.43287e-14 1 0
-4.71244e-14 1 0
-7.65632e-14 1 0
6.69645e-14 1 0
8.92861e-14 1 0
-7.65632e-14 1 0
-6.3094e-14 1 0
8.92861e-14 1 0
6.83703e-14 1 0
-6.66356e-14 1 0
-7.24727e-14 1 0
6.43287e-14 1 0
6.90043e-14 1 0
-7.24727e-14 1 0
-8.17245e-14 1 0
6.90043e-14 1 0
9.67158e-14 1 0
-4.33455e-14 1 0
-4.17859e-14 1 0
7.04716e-14 1.00001 0
5.66003e-14 1.00001 0
-4.17859e-14 1 0
-2.90696e-14 1 0
5.66003e-14 1.00001 0
4.93649e-14 1.00001 0
-8.75107e-14 1.00001 0
-1.76069e-14 1.00001 0
9.50975e-14 1 0
1.53839e-14 1 0
-1.76069e-14 1.00001 0
-3.2154e-14 1.00001 0
1.53839e-14 1 0
4.6587e-14 1 0
-2.90696e-14 1 0
-3.26834e-14 1 0
4.93649e-14 1.00001 0
4.96829e-14 1.00001 0
-3.26834e-14 1 0
-2.87321e-14 1 0
4.96829e-14 1.00001 0
4.60036e-14 1.00001 0
-3.2154e-14 1.00001 0
-4.10104e-14 1.00001 0
4.6587e-14 1 0
5.91972e-14 1 0
-4.10104e-14 1.00001 0
-5.28155e-14 1.00001 0
5.91972e-14 1 0
6.84024e-14 1 0
-6.3094e-14 1 0
-7.60465e-15 1 0
6.83703e-14 1 0
2.45917e-14 1 0
-7.60465e-15 1 0
-4.97931e-14 1 0
2.45917e-14 1 0
5.60809e-14 1 0
-8.17245e-14 1 0
-1.08383e-14 1 0
9.67158e-14 1 0
1.0415e-14 1 0
-1.08383e-14 1 0
-2.81925e-14 1 0
1.0415e-14 1 0
3.72234e-14 1 0
-4.97931e-14 1 0
-4.9558e-14 1 0
5.60809e-14 1 0
4.99907e-14 1 0
-4.9558e-14 1 0
-5.10433e-14 1 0
4.99907e-14 1 0
5.05138e-14 1 0
-2.81925e-14 1 0
-3.22977e-14 1 0
3.72234e-14 1 0
4.4961e-14 1 0
-3.22977e-14 1 0
-3.2366e-14 1 0
4.4961e-14 1 0
4.71702e-14 1 0
-4.219e-14 1 0
-6.26877e-14 1 0
5.09777e-14 1 0
6.4271e-14 1 0
-6.26877e-14 1 0
-5.35735e-14 1 0
6.4271e-14 1 0
6.14621e-14 1 0
-6.76679e-14 1 0
-7.18631e-14 1 0
7.50548e-14 1 0
8.44129e-14 1 0
-7.18631e-14 1 0
-5.92897e-14 1 0
8.44129e-14 1 0
6.15096e-14 1 0
-5.35735e-14 1 0
-5.41511e-14 1 0
6.14621e-14 1 0
6.41893e-14 1 0
-5.41511e-14 1 0
-7.72902e-14 1 0
6.41893e-14 1 0
7.77523e-14 1 0
-5.92897e-14 1 0
-6.62836e-14 1 0
6.15096e-14 1 0
6.68111e-14 1 0
-6.62836e-14 1 0
-6.5904e-14 1 0
6.68111e-14 1 0
7.19713e-14 1 0
-5.2904e-14 1 0
-6.07719e-14 1 0
5.28547e-14 1 0
5.8282e-14 1 0
-6.07719e-14 1 0
-3.73818e-14 1 0
5.8282e-14 1 0
5.03803e-14 1 0
-3.30239e-14 1 0
-4.38055e-14 1 0
5.30333e-14 1 0
5.97188e-14 1 0
-4.38055e-14 1 0
-4.24106e-14 1 0
5.97188e-14 1 0
4.10837e-14 1 0
-3.73818e-14 1 0
-4.65795e-14 1 0
5.03803e-14 1 0
5.85101e-14 1 0