# vtk DataFile Version 3.0
#This file was generated by the deal.II library on 2018/10/24 at 16:59:57
ASCII
DATASET UNSTRUCTURED_GRID

POINTS 20480 double
0 0 0
0.19635 0 0
0 0.312496 0
0.19635 0.312496 0
0.19635 0 0
0.392699 0 0
0.19635 0.312496 0
0.392699 0.312496 0
0 0.312496 0
0.19635 0.312496 0
0 0.624996 0
0.19635 0.624996 0
0.19635 0.312496 0
0.392699 0.312496 0
0.19635 0.624996 0
0.392699 0.624996 0
0.392699 0 0
0.589049 0 0
0.392699 0.312496 0
0.589049 0.312496 0
0.589049 0 0
0.785398 0 0
0.589049 0.312496 0
0.785398 0.312496 0
0.392699 0.312496 0
0.589049 0.312496 0
0.392699 0.624996 0
0.589049 0.624996 0
0.589049 0.312496 0
0.785398 0.312496 0
0.589049 0.624996 0
0.785398 0.624996 0
0 0.624996 0
0.19635 0.624996 0
0 0.937496 0
0.19635 0.937496 0
0.19635 0.624996 0
0.392699 0.624996 0
0.19635 0.937496 0
0.392699 0.937496 0
0 0.937496 0
0.19635 0.937496 0
0 1.25 0
0.19635 1.25 0
0.19635 0.937496 0
0.392699 0.937496 0
0.19635 1.25 0
0.392699 1.25 0
0.392699 0.624996 0
0.589049 0.624996 0
0.392699 0.937496 0
0.589049 0.937496 0
0.589049 0.624996 0
0.785398 0.624996 0
0.589049 0.937496 0
0.785398 0.937496 0
0.392699 0.937496 0
0.589049 0.937496 0
0.392699 1.25 0
0.589049 1.25 0
0.589049 0.937496 0
0.785398 0.937496 0
0.589049 1.25 0
0.785398 1.25 0
0.785398 0 0
0.981748 0 0
0.785398 0.312496 0
0.981748 0.312496 0
0.981748 0 0
1.1781 0 0
0.981748 0.312496 0
1.1781 0.312496 0
0.785398 0.312496 0
0.981748 0.312496 0
0.785398 0.624996 0
0.981748 0.624996 0
0.981748 0.312496 0
1.1781 0.312496 0
0.981748 0.624996 0
1.1781 0.624996 0
1.1781 0 0
1.37445 0 0
1.1781 0.312496 0
1.37445 0.312496 0
1.37445 0 0
1.5708 0 0
1.37445 0.312496 0
1.5708 0.312496 0
1.1781 0.312496 0
1.37445 0.312496 0
1.1781 0.624996 0
1.37445 0.624996 0
1.37445 0.312496 0
1.5708 0.312496 0
1.37445 0.624996 0
1.5708 0.624996 0
0.785398 0.624996 0
0.981748 0.624996 0
0.785398 0.937496 0
0.981748 0.937496 0
0.981748 0.624996 0
1.1781 0.624996 0
0.981748 0.937496 0
1.1781 0.937496 0
0.785398 0.937496 0
0.981748 0.937496 0
0.785398 1.25 0
0.981748 1.25 0
0.981748 0.937496 0
1.1781 0.937496 0
0.981748 1.25 0
1.1781 1.25 0
1.1781 0.624996 0
1.37445 0.624996 0
1.1781 0.937496 0
1.37445 0.937496 0
1.37445 0.624996 0
1.5708 0.624996 0
1.37445 0.937496 0
1.5708 0.937496 0
1.1781 0.937496 0
1.37445 0.937496 0
1.1781 1.25 0
1.37445 1.25 0
1.37445 0.937496 0
1.5708 0.937496 0
1.37445 1.25 0
1.5708 1.25 0
0 1.25 0
0.19635 1.25 0
0 1.5625 0
0.19635 1.5625 0
0.19635 1.25 0
0.392699 1.25 0
0.19635 1.5625 0
0.392699 1.5625 0
0 1.5625 0
0.19635 1.5625 0
0 1.875 0
0.19635 1.875 0
0.19635 1.5625 0
0.392699 1.5625 0
0.19635 1.875 0
0.392699 1.875 0
0.392699 1.25 0
0.589049 1.25 0
0.392699 1.5625 0
0.589049 1.5625 0
0.589049 1.25 0
0.785398 1.25 0
0.589049 1.5625 0
0.785398 1.5625 0
0.392699 1.5625 0
0.589049 1.5625 0
0.392699 1.875 0
0.589049 1.875 0
0.589049 1.5625 0
0.785398 1.5625 0
0.589049 1.875 0
0.785398 1.875 0
0 1.875 0
0.19635 1.875 0
0 2.1875 0
0.19635 2.1875 0
0.19635 1.875 0
0.392699 1.875 0
0.19635 2.1875 0
0.392699 2.1875 0
0 2.1875 0
0.19635 2.1875 0
0 2.5 0
0.19635 2.5 0
0.19635 2.1875 0
0.392699 2.1875 0
0.19635 2.5 0
0.392699 2.5 0
0.392699 1.875 0
0.589049 1.875 0
0.392699 2.1875 0
0.589049 2.1875 0
0.589049 1.875 0
0.785398 1.875 0
0.589049 2.1875 0
0.785398 2.1875 0
0.392699 2.1875 0
0.589049 2.1875 0
0.392699 2.5 0
0.589049 2.5 0
0.589049 2.1875 0
0.785398 2.1875 0
0.589049 2.5 0
0.785398 2.5 0
0.785398 1.25 0
0.981748 1.25 0
0.785398 1.5625 0
0.981748 1.5625 0
0.981748 1.25 0
1.1781 1.25 0
0.981748 1.5625 0
1.1781 1.5625 0
0.785398 1.5625 0
0.981748 1.5625 0
0.785398 1.875 0
0.981748 1.875 0
0.981748 1.5625 0
1.1781 1.5625 0
0.981748 1.875 0
1.1781 1.875 0
1.1781 1.25 0
1.37445 1.25 0
1.1781 1.5625 0
1.37445 1.5625 0
1.37445 1.25 0
1.5708 1.25 0
1.37445 1.5625 0
1.5708 1.5625 0
1.1781 1.5625 0
1.37445 1.5625 0
1.1781 1.875 0
1.37445 1.875 0
1.37445 1.5625 0
1.5708 1.5625 0
1.37445 1.875 0
1.5708 1.875 0
0.785398 1.875 0
0.981748 1.875 0
0.785398 2.1875 0
0.981748 2.1875 0
0.981748 1.875 0
1.1781 1.875 0
0.981748 2.1875 0
1.1781 2.1875 0
0.785398 2.1875 0
0.981748 2.1875 0
0.785398 2.5 0
0.981748 2.5 0
0.981748 2.1875 0
1.1781 2.1875 0
0.981748 2.5 0
1.1781 2.5 0
1.1781 1.875 0
1.37445 1.875 0
1.1781 2.1875 0
1.37445 2.1875 0
1.37445 1.875 0
1.5708 1.875 0
1.37445 2.1875 0
1.5708 2.1875 0
1.1781 2.1875 0
1.37445 2.1875 0
1.1781 2.5 0
1.37445 2.5 0
1.37445 2.1875 0
1.5708 2.1875 0
1.37445 2.5 0
1.5708 2.5 0
1.5708 0 0
1.76715 0 0
1.5708 0.312496 0
1.76715 0.312496 0
1.76715 0 0
1.9635 0 0
1.76715 0.312496 0
1.9635 0.312496 0
1.5708 0.312496 0
1.76715 0.312496 0
1.5708 0.624996 0
1.76715 0.624996 0
1.76715 0.312496 0
1.9635 0.312496 0
1.76715 0.624996 0
1.9635 0.624996 0
1.9635 0 0
2.15984 0 0
1.9635 0.312496 0
2.15984 0.312496 0
2.15984 0 0
2.35619 0 0
2.15984 0.312496 0
2.35619 0.312496 0
1.9635 0.312496 0
2.15984 0.312496 0
1.9635 0.624996 0
2.15984 0.624996 0
2.15984 0.312496 0
2.35619 0.312496 0
2.15984 0.624996 0
2.35619 0.624996 0
1.5708 0.624996 0
1.76715 0.624996 0
1.5708 0.937496 0
1.76715 0.937496 0
1.76715 0.624996 0
1.9635 0.624996 0
1.76715 0.937496 0
1.9635 0.937496 0
1.5708 0.937496 0
1.76715 0.937496 0
1.5708 1.25 0
1.76715 1.25 0
1.76715 0.937496 0
1.9635 0.937496 0
1.76715 1.25 0
1.9635 1.25 0
1.9635 0.624996 0
2.15984 0.624996 0
1.9635 0.937496 0
2.15984 0.937496 0
2.15984 0.624996 0
2.35619 0.624996 0
2.15984 0.937496 0
2.35619 0.937496 0
1.9635 0.937496 0
2.15984 0.937496 0
1.9635 1.25 0
2.15984 1.25 0
2.15984 0.937496 0
2.35619 0.937496 0
2.15984 1.25 0
2.35619 1.25 0
2.35619 0 0
2.55254 0 0
2.35619 0.312496 0
2.55254 0.312496 0
2.55254 0 0
2.74889 0 0
2.55254 0.312496 0
2.74889 0.312496 0
2.35619 0.312496 0
2.55254 0.312496 0
2.35619 0.624996 0
2.55254 0.624996 0
2.55254 0.312496 0
2.74889 0.312496 0
2.55254 0.624996 0
2.74889 0.624996 0
2.74889 0 0
2.94524 0 0
2.74889 0.312496 0
2.94524 0.312496 0
2.94524 0 0
3.14159 0 0
2.94524 0.312496 0
3.14159 0.312496 0
2.74889 0.312496 0
2.94524 0.312496 0
2.74889 0.624996 0
2.94524 0.624996 0
2.94524 0.312496 0
3.14159 0.312496 0
2.94524 0.624996 0
3.14159 0.624996 0
2.35619 0.624996 0
2.55254 0.624996 0
2.35619 0.937496 0
2.55254 0.937496 0
2.55254 0.624996 0
2.74889 0.624996 0
2.55254 0.937496 0
2.74889 0.937496 0
2.35619 0.937496 0
2.55254 0.937496 0
2.35619 1.25 0
2.55254 1.25 0
2.55254 0.937496 0
2.74889 0.937496 0
2.55254 1.25 0
2.74889 1.25 0
2.74889 0.624996 0
2.94524 0.624996 0
2.74889 0.937496 0
2.94524 0.937496 0
2.94524 0.624996 0
3.14159 0.624996 0
2.94524 0.937496 0
3.14159 0.937496 0
2.74889 0.937496 0
2.94524 0.937496 0
2.74889 1.25 0
2.94524 1.25 0
2.94524 0.937496 0
3.14159 0.937496 0
2.94524 1.25 0
3.14159 1.25 0
1.5708 1.25 0
1.76715 1.25 0
1.5708 1.5625 0
1.76715 1.5625 0
1.76715 1.25 0
1.9635 1.25 0
1.76715 1.5625 0
1.9635 1.5625 0
1.5708 1.5625 0
1.76715 1.5625 0
1.5708 1.875 0
1.76715 1.875 0
1.76715 1.5625 0
1.9635 1.5625 0
1.76715 1.875 0
1.9635 1.875 0
1.9635 1.25 0
2.15984 1.25 0
1.9635 1.5625 0
2.15984 1.5625 0
2.15984 1.25 0
2.35619 1.25 0
2.15984 1.5625 0
2.35619 1.5625 0
1.9635 1.5625 0
2.15984 1.5625 0
1.9635 1.875 0
2.15984 1.875 0
2.15984 1.5625 0
2.35619 1.5625 0
2.15984 1.875 0
2.35619 1.875 0
1.5708 1.875 0
1.76715 1.875 0
1.5708 2.1875 0
1.76715 2.1875 0
1.76715 1.875 0
1.9635 1.875 0
1.76715 2.1875 0
1.9635 2.1875 0
1.5708 2.1875 0
1.76715 2.1875 0
1.5708 2.5 0
1.76715 2.5 0
1.76715 2.1875 0
1.9635 2.1875 0
1.76715 2.5 0
1.9635 2.5 0
1.9635 1.875 0
2.15984 1.875 0
1.9635 2.1875 0
2.15984 2.1875 0
2.15984 1.875 0
2.35619 1.875 0
2.15984 2.1875 0
2.35619 2.1875 0
1.9635 2.1875 0
2.15984 2.1875 0
1.9635 2.5 0
2.15984 2.5 0
2.15984 2.1875 0
2.35619 2.1875 0
2.15984 2.5 0
2.35619 2.5 0
2.35619 1.25 0
2.55254 1.25 0
2.35619 1.5625 0
2.55254 1.5625 0
2.55254 1.25 0
2.74889 1.25 0
2.55254 1.5625 0
2.74889 1.5625 0
2.35619 1.5625 0
2.55254 1.5625 0
2.35619 1.875 0
2.55254 1.875 0
2.55254 1.5625 0
2.74889 1.5625 0
2.55254 1.875 0
2.74889 1.875 0
2.74889 1.25 0
2.94524 1.25 0
2.74889 1.5625 0
2.94524 1.5625 0
2.94524 1.25 0
3.14159 1.25 0
2.94524 1.5625 0
3.14159 1.5625 0
2.74889 1.5625 0
2.94524 1.5625 0
2.74889 1.875 0
2.94524 1.875 0
2.94524 1.5625 0
3.14159 1.5625 0
2.94524 1.875 0
3.14159 1.875 0
2.35619 1.875 0
2.55254 1.875 0
2.35619 2.1875 0
2.55254 2.1875 0
2.55254 1.875 0
2.74889 1.875 0
2.55254 2.1875 0
2.74889 2.1875 0
2.35619 2.1875 0
2.55254 2.1875 0
2.35619 2.5 0
2.55254 2.5 0
2.55254 2.1875 0
2.74889 2.1875 0
2.55254 2.5 0
2.74889 2.5 0
2.74889 1.875 0
2.94524 1.875 0
2.74889 2.1875 0
2.94524 2.1875 0
2.94524 1.875 0
3.14159 1.875 0
2.94524 2.1875 0
3.14159 2.1875 0
2.74889 2.1875 0
2.94524 2.1875 0
2.74889 2.5 0
2.94524 2.5 0
2.94524 2.1875 0
3.14159 2.1875 0
2.94524 2.5 0
3.14159 2.5 0
0 2.5 0
0.19635 2.5 0
0 2.8125 0
0.19635 2.8125 0
0.19635 2.5 0
0.392699 2.5 0
0.19635 2.8125 0
0.392699 2.8125 0
0 2.8125 0
0.19635 2.8125 0
0 3.125 0
0.19635 3.125 0
0.19635 2.8125 0
0.392699 2.8125 0
0.19635 3.125 0
0.392699 3.125 0
0.392699 2.5 0
0.589049 2.5 0
0.392699 2.8125 0
0.589049 2.8125 0
0.589049 2.5 0
0.785398 2.5 0
0.589049 2.8125 0
0.785398 2.8125 0
0.392699 2.8125 0
0.589049 2.8125 0
0.392699 3.125 0
0.589049 3.125 0
0.589049 2.8125 0
0.785398 2.8125 0
0.589049 3.125 0
0.785398 3.125 0
0 3.125 0
0.19635 3.125 0
0 3.4375 0
0.19635 3.4375 0
0.19635 3.125 0
0.392699 3.125 0
0.19635 3.4375 0
0.392699 3.4375 0
0 3.4375 0
0.19635 3.4375 0
0 3.75 0
0.19635 3.75 0
0.19635 3.4375 0
0.392699 3.4375 0
0.19635 3.75 0
0.392699 3.75 0
0.392699 3.125 0
0.589049 3.125 0
0.392699 3.4375 0
0.589049 3.4375 0
0.589049 3.125 0
0.785398 3.125 0
0.589049 3.4375 0
0.785398 3.4375 0
0.392699 3.4375 0
0.589049 3.4375 0
0.392699 3.75 0
0.589049 3.75 0
0.589049 3.4375 0
0.785398 3.4375 0
0.589049 3.75 0
0.785398 3.75 0
0.785398 2.5 0
0.981748 2.5 0
0.785398 2.8125 0
0.981748 2.8125 0
0.981748 2.5 0
1.1781 2.5 0
0.981748 2.8125 0
1.1781 2.8125 0
0.785398 2.8125 0
0.981748 2.8125 0
0.785398 3.125 0
0.981748 3.125 0
0.981748 2.8125 0
1.1781 2.8125 0
[...]
POINT_DATA 20480
VECTORS uf double
0 1 0
7.17625e-15 1 0
0 1 0
-5.15853e-15 1 0
7.17625e-15 1 0
6.19184e-15 1 0
-5.15853e-15 1 0
3.45873e-15 1 0
0 1 0
6.50894e-15 1 0
0 1 0
-6.50776e-15 1 0
6.50894e-15 1 0
-3.55386e-15 1 0
-6.50776e-15 1 0
-8.8915e-15 1 0
6.19184e-15 1 0
-7.81146e-15 1 0
3.45873e-15 1 0
7.80015e-15 1 0
-7.81146e-15 1 0
-2.24129e-14 1 0
7.80015e-15 1 0
2.02496e-14 1 0
-3.55386e-15 1 0
1.32058e-15 1 0
-8.8915e-15 1 0
-5.57707e-15 1 0
1.32058e-15 1 0
-2.4084e-14 1 0
-5.57707e-15 1 0
3.82241e-14 1 0
0 1 0
7.97367e-15 1 0
0 1 0
-1.91593e-14 1 0
7.97367e-15 1 0
1.65503e-15 1 0
-1.91593e-14 1 0
7.61881e-16 1 0
0 1 0
1.91278e-14 1 0
0 1 0
-1.58471e-14 1 0
1.91278e-14 1 0
-1.43136e-15 1 0
-1.58471e-14 1 0
4.26797e-15 1 0
1.65503e-15 1 0
-1.94728e-17 1 0
7.61881e-16 1 0
1.36956e-14 1 0
-1.94728e-17 1 0
-3.61771e-14 1 0
1.36956e-14 1 0
3.3856e-14 1 0
-1.43136e-15 1 0
-2.59881e-14 1 0
4.26797e-15 1 0
2.41749e-14 1 0
-2.59881e-14 1 0
-2.59229e-14 1 0
2.41749e-14 1 0
2.17873e-14 1 0
-2.24129e-14 1 0
-6.66809e-15 1 0
2.02496e-14 1 0
3.82165e-15 1 0
-6.66809e-15 1 0
-1.141e-14 1 0
3.82165e-15 1 0
9.92367e-16 1 0
-2.4084e-14 1 0
-9.15298e-15 1 0
3.82241e-14 1 0
1.66746e-14 1 0
-9.15298e-15 1 0
6.03306e-15 1 0
1.66746e-14 1 0
6.21729e-15 1 0
-1.141e-14 1 0
-1.18068e-14 1 0
9.92367e-16 1 0
9.63939e-15 1 0
-1.18068e-14 1 0
-1.15543e-14 1 0
9.63939e-15 1 0
1.23635e-14 1 0
6.03306e-15 1 0
5.78495e-16 1 0
6.21729e-15 1 0
1.02118e-14 1 0
5.78495e-16 1 0
-1.55714e-14 1 0
1.02118e-14 1 0
2.66994e-14 1 0
-3.61771e-14 1 0
-1.72668e-14 1 0
3.3856e-14 1 0
2.02118e-14 1 0
-1.72668e-14 1 0
-6.68864e-15 1 0
2.02118e-14 1 0
9.49815e-15 1 0
-2.59229e-14 1 0
-1.70835e-14 1 0
2.17873e-14 1 0
2.43575e-16 1 0
-1.70835e-14 1 0
-3.13583e-14 1 0
2.43575e-16 1 0
4.41144e-14 1 0
-6.68864e-15 1 0
-2.80507e-14 1 0
9.49815e-15 1 0
2.8953e-14 1 0
-2.80507e-14 1 0
-2.56581e-14 1 0
2.8953e-14 1 0
2.06398e-14 1 0
-3.13583e-14 1 0
-3.5353e-14 1 0
4.41144e-14 1 0
3.47013e-14 1 0
-3.5353e-14 1 0
-2.2313e-15 1 0
3.47013e-14 1 0
-1.77486e-15 1 0
0 1 0
1.10959e-14 1 0
0 1 0
-6.72569e-15 1 0
1.10959e-14 1 0
-8.18012e-15 1 0
-6.72569e-15 1 0
5.51422e-15 1 0
0 1 0
1.60006e-15 1 0
0 1 0
4.07613e-15 1 0
1.60006e-15 1 0
6.3221e-15 1 0
4.07613e-15 1 0
-1.18557e-14 1 0
-8.18012e-15 1 0
-4.60631e-14 1 0
5.51422e-15 1 0
5.90804e-14 1 0
-4.60631e-14 1 0
-4.02067e-14 1 0
5.90804e-14 1 0
4.92756e-14 1 0
6.3221e-15 1 0
-5.36125e-14 1 0
-1.18557e-14 1 0
4.97334e-14 1 0
-5.36125e-14 1 0
-4.05874e-14 1 0
4.97334e-14 1 0
5.17976e-14 1 0
0 1 0
-4.91115e-15 1 0
0 1 0
2.13824e-15 1 0
-4.91115e-15 1 0
1.46687e-14 1 0
2.13824e-15 1 0
-1.74144e-14 1 0
0 1 0
1.16344e-14 1 0
0 1 0
-2.23571e-14 1 0
1.16344e-14 1 0
1.98896e-14 1 0
-2.23571e-14 1 0
-9.03455e-15 1 0
1.46687e-14 1 0
-3.03474e-14 1 0
-1.74144e-14 1 0
2.42097e-14 1 0
-3.03474e-14 1 0
-4.76567e-14 1 0
2.42097e-14 1 0
4.20795e-14 1 0
1.98896e-14 1 0
-8.95716e-15 1 0
-9.03455e-15 1 0
1.22037e-14 1 0
-8.95716e-15 1 0
-1.89938e-14 1 0
1.22037e-14 1 0
6.6881e-15 1 0
-4.02067e-14 1 0
-9.98658e-15 1 0
4.92756e-14 1 0
2.52962e-14 1 0
-9.98658e-15 1 0
-5.0002e-14 1 0
2.52962e-14 1 0
4.4945e-14 1 0
-4.05874e-14 1 0
-1.00488e-14 1 0
5.17976e-14 1 0
1.52612e-14 1 0
-1.00488e-14 1 0
-2.31058e-14 1 0
1.52612e-14 1 0
2.68505e-14 1 0
-5.0002e-14 1 0
-3.46685e-14 1 0
4.4945e-14 1 0
4.15776e-14 1 0
-3.46685e-14 1 0
-2.60264e-14 1 0
4.15776e-14 1 0
4.76125e-14 1 0
-2.31058e-14 1 0
-2.71598e-14 1 0
2.68505e-14 1 0
2.71955e-14 1 0
-2.71598e-14 1 0
-2.3358e-14 1 0
2.71955e-14 1 0
2.10551e-14 1 0
-4.76567e-14 1 0
-2.26414e-14 1 0
4.20795e-14 1 0
3.37133e-14 1 0
-2.26414e-14 1 0
-3.88238e-14 1 0
3.37133e-14 1 0
5.03225e-14 1 0
-1.89938e-14 1 0
-2.74503e-14 1 0
6.6881e-15 1 0
1.58813e-14 1 0
-2.74503e-14 1 0
-4.12125e-14 1 0
1.58813e-14 1 0
3.54252e-14 1 0
-3.88238e-14 1 0
-2.83354e-14 1 0
5.03225e-14 1 0
4.27726e-14 1 0
-2.83354e-14 1 0
-4.39498e-14 1 0
4.27726e-14 1 0
4.63107e-14 1 0
-4.12125e-14 1 0
-3.7321e-14 1 0
3.54252e-14 1 0
3.02907e-14 1 0
-3.7321e-14 1 0
-2.7589e-14 1 0
3.02907e-14 1 0
2.03947e-14 1 0
-1.15543e-14 1 0
-2.41498e-14 1 0
1.23635e-14 1 0
3.27067e-14 1 0
-2.41498e-14 1 0
-1.69628e-14 1 0
3.27067e-14 1 0
2.95581e-14 1 0
-1.55714e-14 1 0
-1.22268e-14 1 0
2.66994e-14 1 0
2.32222e-15 1 0
-1.22268e-14 1 0
-1.92183e-14 1 0
2.32222e-15 1 0
7.1682e-15 1 0
-1.69628e-14 1 0
-1.86227e-14 1 0
2.95581e-14 1 0
3.33253e-14 1 0
-1.86227e-14 1 0
-1.15701e-14 1 0
3.33253e-14 1 0
3.02608e-14 1 0
-1.92183e-14 1 0
-2.47731e-14 1 0
7.1682e-15 1 0
2.01602e-14 1 0
-2.47731e-14 1 0
-2.82063e-14 1 0
2.01602e-14 1 0
1.69536e-14 1 0
-2.56581e-14 1 0
5.45343e-15 1 0
2.06398e-14 1 0
-1.93158e-15 1 0
5.45343e-15 1 0
-5.71385e-15 1 0
-1.93158e-15 1 0
1.04374e-14 1 0
-2.2313e-15 1 0
-1.696e-15 1 0
-1.77486e-15 1 0
1.04834e-14 1 0
-1.696e-15 1 0
-8.17702e-15 1 0
1.04834e-14 1 0
1.52487e-14 1 0
-5.71385e-15 1 0
-2.99392e-14 1 0
1.04374e-14 1 0
3.27333e-14 1 0
-2.99392e-14 1 0
-2.02606e-14 1 0
3.27333e-14 1 0
2.08979e-14 1 0
-8.17702e-15 1 0
-2.05585e-14 1 0
1.52487e-14 1 0
2.66445e-14 1 0
-2.05585e-14 1 0
-6.63893e-15 1 0
2.66445e-14 1 0
2.081e-14 1 0
-1.15701e-14 1 0
-6.28659e-15 1 0
3.02608e-14 1 0
2.09532e-14 1 0
-6.28659e-15 1 0
-1.10324e-14 1 0
2.09532e-14 1 0
2.23845e-14 1 0
-2.82063e-14 1 0
-2.21465e-14 1 0
1.69536e-14 1 0
1.50978e-14 1 0
-2.21465e-14 1 0
-1.43149e-14 1 0
1.50978e-14 1 0
1.799e-14 1 0
-1.10324e-14 1 0
-6.32425e-15 1 0
2.23845e-14 1 0
1.3381e-14 1 0
-6.32425e-15 1 0
-1.28274e-14 1 0
1.3381e-14 1 0
2.74528e-14 1 0
-1.43149e-14 1 0
-1.62765e-14 1 0
1.799e-14 1 0
2.68891e-14 1 0
-1.62765e-14 1 0
-2.92893e-14 1 0
2.68891e-14 1 0
2.24006e-14 1 0
-2.02606e-14 1 0
-1.76954e-14 1 0
2.08979e-14 1 0
2.15505e-14 1 0
-1.76954e-14 1 0
-2.47601e-14 1 0
2.15505e-14 1 0
2.08838e-14 1 0
-6.63893e-15 1 0
-1.83317e-14 1 0
2.081e-14 1 0
2.82198e-14 1 0
-1.83317e-14 1 0
-1.53463e-14 1 0
2.82198e-14 1 0
3.02271e-14 1 0
-2.47601e-14 1 0
-3.29075e-14 1 0
2.08838e-14 1 0
2.49261e-14 1 0
-3.29075e-14 1 0
-1.6595e-14 1 0
2.49261e-14 1 0
2.09268e-14 1 0
-1.53463e-14 1 0
-1.09048e-14 1 0
3.02271e-14 1 0
2.49676e-14 1 0
-1.09048e-14 1 0
-3.26703e-16 1 0
2.49676e-14 1 0
2.50205e-15 1 0
-2.60264e-14 1 0
-2.46414e-14 1 0
4.76125e-14 1 0
3.62241e-14 1 0
-2.46414e-14 1 0
-2.90067e-14 1 0
3.62241e-14 1 0
4.55514e-14 1 0
-2.3358e-14 1 0
-2.01831e-14 1 0
2.10551e-14 1 0
1.86668e-14 1 0
-2.01831e-14 1 0
-2.8563e-14 1 0
1.86668e-14 1 0
1.23571e-14 1 0
-2.90067e-14 1 0
-3.09978e-14 1 0
4.55514e-14 1 0
2.74623e-14 1 0
-3.09978e-14 1 0
-3.50144e-14 1 0
2.74623e-14 1 0
3.54448e-14 1 0
-2.8563e-14 1 0
-1.21031e-14 1 0
1.23571e-14 1 0
1.97435e-14 1 0
-1.21031e-14 1 0
-1.82354e-14 1 0
1.97435e-14 1 0
2.63331e-14 1 0
-4.39498e-14 1 0
-3.17715e-14 1 0
4.63107e-14 1 0
3.57565e-14 1 0
-3.17715e-14 1 0
-2.24296e-14 1 0
3.57565e-14 1 0
3.8019e-14 1 0
-2.7589e-14 1 0
-3.28591e-14 1 0
2.03947e-14 1 0
2.19765e-14 1 0
-3.28591e-14 1 0
-3.98647e-14 1 0
2.19765e-14 1 0
3.62632e-14 1 0
-2.24296e-14 1 0
-3.01602e-14 1 0
3.8019e-14 1 0
2.91507e-14 1 0
-3.01602e-14 1 0
-4.50321e-14 1 0
2.91507e-14 1 0
4.18072e-14 1 0
-3.98647e-14 1 0
-3.21814e-14 1 0
3.62632e-14 1 0
4.2292e-14 1 0
-3.21814e-14 1 0
-2.75205e-14 1 0
4.2292e-14 1 0
1.95881e-14 1 0
-3.50144e-14 1 0
-2.43998e-14 1 0
3.54448e-14 1 0
2.92942e-14 1 0
-2.43998e-14 1 0
-3.19536e-14 1 0
2.92942e-14 1 0
4.08644e-14 1 0
-1.82354e-14 1 0
-1.92771e-14 1 0
2.63331e-14 1 0
2.80896e-14 1 0
-1.92771e-14 1 0
-2.50672e-14 1 0
2.80896e-14 1 0
2.99042e-14 1 0
-3.19536e-14 1 0
-1.32313e-14 1 0
4.08644e-14 1 0
2.49348e-14 1 0
-1.32313e-14 1 0
-1.06633e-14 1 0
2.49348e-14 1 0
2.89922e-14 1 0
-2.50672e-14 1 0
-2.27526e-14 1 0
2.99042e-14 1 0
2.21022e-14 1 0
-2.27526e-14 1 0
-1.84617e-14 1 0
2.21022e-14 1 0
2.6299e-14 1 0
-4.50321e-14 1 0
-3.977e-14 1 0
4.18072e-14 1 0
3.85534e-14 1 0
-3.977e-14 1 0
-4.19886e-14 1 0
3.85534e-14 1 0
4.47388e-14 1 0
-2.75205e-14 1 0
-3.33809e-14 1 0
1.95881e-14 1 0
3.24029e-14 1 0
-3.33809e-14 1 0
-3.26701e-14 1 0
3.24029e-14 1 0
2.14017e-14 1 0
-4.19886e-14 1 0
-3.53482e-14 1 0
4.47388e-14 1 0
5.10759e-14 1 0
-3.53482e-14 1 0
-3.75967e-14 1 0
5.10759e-14 1 0
4.14308e-14 1 0
-3.26701e-14 1 0
-3.85257e-14 1 0
2.14017e-14 1 0
3.22502e-14 1 0
-3.85257e-14 1 0
-2.77473e-14 1 0
3.22502e-14 1 0
3.17933e-14 1 0
0 1 0
2.25322e-14 1 0
0 1 0
-1.04296e-14 1 0
2.25322e-14 1 0
1.46359e-14 1 0
-1.04296e-14 1 0
-1.45777e-14 1 0
0 1 0
4.41657e-15 1 0
0 1 0
-4.30907e-15 1 0
4.41657e-15 1 0
8.71675e-15 1 0
-4.30907e-15 1 0
-4.4605e-15 1 0
1.46359e-14 1 0
-1.40682e-14 1 0
-1.45777e-14 1 0
1.38107e-14 1 0
-1.40682e-14 1 0
-4.31752e-16 1 0
1.38107e-14 1 0
1.25108e-14 1 0
8.71675e-15 1 0
-1.99722e-14 1 0
-4.4605e-15 1 0
1.934e-14 1 0
-1.99722e-14 1 0
-2.82531e-14 1 0
1.934e-14 1 0
3.07723e-14 1 0
0 1 0
4.55952e-15 1 0
0 1 0
-1.24674e-14 1 0
4.55952e-15 1 0
-2.04054e-15 1 0
-1.24674e-14 1 0
2.14916e-15 1 0
0 1 0
1.29157e-14 1 0
0 1 0
-9.1325e-15 1 0
1.29157e-14 1 0
-9.12886e-15 1 0
-9.1325e-15 1 0
7.56508e-15 1 0
-2.04054e-15 1 0
-9.14928e-15 1 0
2.14916e-15 1 0
4.11963e-15 1 0
-9.14928e-15 1 0
-2.05687e-14 1 0
4.11963e-15 1 0
1.02872e-14 1 0
-9.12886e-15 1 0
-1.22603e-14 1 0
7.56508e-15 1 0
2.3078e-14 1 0
-1.22603e-14 1 0
-1.52715e-14 1 0
2.3078e-14 1 0
2.30102e-14 1 0
-4.31752e-16 1 0
-1.59756e-14 1 0
1.25108e-14 1 0
2.46902e-14 1 0
-1.59756e-14 1 0
-3.65634e-14 1 0
2.46902e-14 1 0
4.17227e-14 1 0
-2.82531e-14 1 0
-1.80387e-14 1 0
3.07723e-14 1 0
2.42345e-14 1 0
-1.80387e-14 1 0
-2.71065e-14 1 0
2.42345e-14 1 0
2.67766e-14 1 0
-3.65634e-14 1 0
-3.92381e-14 1 0
4.17227e-14 1 0
4.76046e-14 1 0
-3.92381e-14 1 0
-1.94769e-14 1 0
4.76046e-14 1 0
2.83933e-14 1 0
-2.71065e-14 1 0
-2.33721e-14 1 0
2.67766e-14 1 0
2.65748e-14 1 0
-2.33721e-14 1 0
-1.29661e-14 1 0
2.65748e-14 1 0
2.21005e-14 1 0
-2.05687e-14 1 0
-2.40409e-14 1 0
1.02872e-14 1 0
1.67462e-14 1 0
-2.40409e-14 1 0
-1.7026e-14 1 0
1.67462e-14 1 0
1.32704e-14 1 0
-1.52715e-14 1 0
-4.23066e-14 1 0
2.30102e-14 1 0
4.98712e-14 1 0
-4.23066e-14 1 0
-3.47389e-14 1 0
4.98712e-14 1 0
4.27794e-14 1 0
-1.7026e-14 1 0
-2.43264e-14 1 0
1.32704e-14 1 0
1.85425e-14 1 0
-2.43264e-14 1 0
-2.19369e-14 1 0
1.85425e-14 1 0
1.74853e-14 1 0
-3.47389e-14 1 0
-4.08558e-14 1 0
4.27794e-14 1 0
4.93456e-14 1 0
-4.08558e-14 1 0
-3.72901e-14 1 0
4.93456e-14 1 0
4.50422e-14 1 0
0 1 0
1.3088e-14 1 0
0 1 0
-8.6193e-15 1 0
1.3088e-14 1 0
5.92129e-15 1 0
-8.6193e-15 1 0
-6.37611e-15 1 0
0 1 0
6.99895e-15 1 0
0 1 0
-8.95111e-15 1 0
6.99895e-15 1 0
6.25866e-15 1 0
-8.95111e-15 1 0
3.98636e-15 1 0
5.92129e-15 1 0
-3.05415e-14 1 0
-6.37611e-15 1 0
2.95807e-14 1 0
-3.05415e-14 1 0
-3.2055e-14 1 0
2.95807e-14 1 0
4.033e-14 1 0
6.25866e-15 1 0
-2.61683e-15 1 0
3.98636e-15 1 0
-1.61192e-15 1 0
-2.61683e-15 1 0
-2.60665e-14 1 0
-1.61192e-15 1 0
1.95509e-14 1 0
0 1 0
6.79194e-15 1 0
0 1 0
-5.22271e-16 1 0
6.79194e-15 1 0
-9.20773e-15 1 0
-5.22271e-16 1 0
3.97876e-15 1 0
0 1 0
5.08013e-16 1 0
0 1 0
-3.64944e-15 1 0
5.08013e-16 1 0
3.07484e-15 1 0
-3.64944e-15 1 0
-5.80789e-15 1 0
-9.20773e-15 1 0
3.49248e-15 1 0
3.97876e-15 1 0
-2.49412e-15 1 0
3.49248e-15 1 0
-1.54644e-14 1 0
-2.49412e-15 1 0
1.14393e-14 1 0
3.07484e-15 1 0
-6.07027e-15 1 0
-5.80789e-15 1 0
6.10615e-15 1 0
-6.07027e-15 1 0
-1.21387e-14 1 0
6.10615e-15 1 0
1.00087e-14 1 0
-3.2055e-14 1 0
-2.78613e-14 1 0
4.033e-14 1 0
2.74984e-14 1 0
-2.78613e-14 1 0
-2.59311e-14 1 0
2.74984e-14 1 0
2.49409e-14 1 0
-2.60665e-14 1 0
-1.9167e-14 1 0
1.95509e-14 1 0
1.99289e-14 1 0
-1.9167e-14 1 0
-1.555e-14 1 0
1.99289e-14 1 0
1.50102e-14 1 0
-2.59311e-14 1 0
-2.6991e-14 1 0
2.49409e-14 1 0
2.70722e-14 1 0
-2.6991e-14 1 0
-2.21249e-14 1 0
2.70722e-14 1 0
1.8485e-14 1 0
-1.555e-14 1 0
-2.19058e-14 1 0
1.50102e-14 1 0
2.05147e-14 1 0
-2.19058e-14 1 0
-1.28992e-14 1 0
2.05147e-14 1 0
1.93444e-14 1 0
-1.54644e-14 1 0
-2.60365e-14 1 0
1.14393e-14 1 0
2.37249e-14 1 0
-2.60365e-14 1 0
-2.42063e-14 1 0
2.37249e-14 1 0
2.38035e-14 1 0
-1.21387e-14 1 0
-1.79467e-14 1 0
1.00087e-14 1 0
1.52228e-14 1 0
-1.79467e-14 1 0
-1.18132e-14 1 0
1.52228e-14 1 0
7.45096e-15 1 0
-2.42063e-14 1 0
-3.00923e-14 1 0
2.38035e-14 1 0
3.0049e-14 1 0
-3.00923e-14 1 0
-2.811e-14 1 0
3.0049e-14 1 0
2.24305e-14 1 0
-1.18132e-14 1 0
-1.7093e-14 1 0
7.45096e-15 1 0
1.19048e-14 1 0
-1.7093e-14 1 0
-1.20348e-14 1 0
1.19048e-14 1 0
1.20747e-14 1 0
-1.94769e-14 1 0
-1.35166e-14 1 0
2.83933e-14 1 0
3.10417e-14 1 0
-1.35166e-14 1 0
-2.20353e-14 1 0
3.10417e-14 1 0
3.03354e-14 1 0
-1.29661e-14 1 0
-2.2129e-14 1 0
2.21005e-14 1 0
2.38581e-14 1 0
-2.2129e-14 1 0
-1.67139e-14 1 0
2.38581e-14 1 0
1.84078e-14 1 0
-2.20353e-14 1 0
-3.0135e-14 1 0
3.03354e-14 1 0
3.23819e-14 1 0
-3.0135e-14 1 0
-7.95663e-15 1 0
3.23819e-14 1 0
2.42793e-14 1 0
-1.67139e-14 1 0
-2.2652e-14 1 0
1.84078e-14 1 0
2.69272e-14 1 0
-2.2652e-14 1 0
-1.53456e-14 1 0
2.69272e-14 1 0
1.93382e-14 1 0
-2.19369e-14 1 0
-1.43608e-14 1 0
1.74853e-14 1 0
1.74463e-14 1 0
-1.43608e-14 1 0
-2.06214e-14 1 0
1.74463e-14 1 0
2.49712e-14 1 0
-3.72901e-14 1 0
-4.72059e-14 1 0
4.50422e-14 1 0
5.44832e-14 1 0
-4.72059e-14 1 0
-5.2573e-14 1 0
5.44832e-14 1 0
5.96939e-14 1 0
-2.06214e-14 1 0
-2.02643e-14 1 0
2.49712e-14 1 0
2.19441e-14 1 0
-2.02643e-14 1 0
-1.85813e-14 1 0
2.19441e-14 1 0
2.36157e-14 1 0
-5.2573e-14 1 0
-4.90199e-14 1 0
5.96939e-14 1 0
4.96484e-14 1 0
-4.90199e-14 1 0
-4.15116e-14 1 0
4.96484e-14 1 0
4.60982e-14 1 0
-7.95663e-15 1 0
-2.34311e-14 1 0
2.42793e-14 1 0
3.29837e-14 1 0
-2.34311e-14 1 0
-3.03099e-15 1 0
3.29837e-14 1 0
1.99747e-14 1 0
-1.53456e-14 1 0
-2.18171e-14 1 0
1.93382e-14 1 0
2.4336e-14 1 0
-2.18171e-14 1 0
-2.72259e-14 1 0
2.4336e-14 1 0
3.00919e-14 1 0
-3.03099e-15 1 0
-1.20517e-14 1 0
1.99747e-14 1 0
1.33334e-14 1 0
-1.20517e-14 1 0
-1.46093e-14 1 0
1.33334e-14 1 0
1.26981e-14 1 0
-2.72259e-14 1 0
-3.41516e-15 1 0
3.00919e-14 1 0
9.28254e-15 1 0
-3.41516e-15 1 0
-8.18272e-15 1 0
9.28254e-15 1 0
2.02878e-14 1 0
-1.85813e-14 1 0
-1.4989e-14 1 0
2.36157e-14 1 0
1.38425e-14 1 0
-1.4989e-14 1 0
-2.89108e-14 1 0
1.38425e-14 1 0
3.48697e-14 1 0
-4.15116e-14 1 0
-1.86265e-14 1 0
4.60982e-14 1 0
2.2675e-14 1 0
-1.86265e-14 1 0
-5.03356e-14 1 0
2.2675e-14 1 0
4.7093e-14 1 0
-2.89108e-14 1 0
-2.40786e-14 1 0
3.48697e-14 1 0
2.49144e-14 1 0
-2.40786e-14 1 0
-2.79091e-14 1 0
2.49144e-14 1 0
2.6841e-14 1 0
-5.03356e-14 1 0
-1.36133e-14 1 0
4.7093e-14 1 0
6.12566e-15 1 0
-1.36133e-14 1 0
-4.22161e-14 1 0
6.12566e-15 1 0
5.54495e-14 1 0
-2.21249e-14 1 0
-2.29328e-14 1 0
1.8485e-14 1 0
2.17761e-14 1 0
-2.29328e-14 1 0
-2.76206e-14 1 0
2.17761e-14 1 0
3.18002e-14 1 0
-1.28992e-14 1 0
-1.57471e-14 1 0
1.93444e-14 1 0
1.24831e-14 1 0
-1.57471e-14 1 0
-1.89616e-14 1 0
1.24831e-14 1 0
9.56724e-15 1 0
-2.76206e-14 1 0
-1.74396e-14 1 0
3.18002e-14 1 0
2.57808e-14 1 0
-1.74396e-14 1 0
-2.30822e-14 1 0
2.57808e-14 1 0
2.42335e-14 1 0
-1.89616e-14 1 0
-1.3757e-14 1 0
9.56724e-15 1 0
1.24542e-14 1 0
-1.3757e-14 1 0
-8.04275e-15 1 0
1.24542e-14 1 0
1.27326e-14 1 0
-2.811e-14 1 0
-2.54075e-14 1 0
2.24305e-14 1 0
2.78244e-14 1 0
-2.54075e-14 1 0
-2.19285e-14 1 0
2.78244e-14 1 0
2.37957e-14 1 0
-1.20348e-14 1 0
-1.56952e-14 1 0
1.20747e-14 1 0
1.05135e-14 1 0
-1.56952e-14 1 0
-1.39029e-14 1 0
1.05135e-14 1 0
1.33343e-14 1 0
-2.19285e-14 1 0
-2.33955e-14 1 0
2.37957e-14 1 0
2.30744e-14 1 0
-2.33955e-14 1 0
-2.57634e-14 1 0
2.30744e-14 1 0
1.75634e-14 1 0
-1.39029e-14 1 0
-1.20313e-14 1 0
1.33343e-14 1 0
8.57536e-15 1 0
-1.20313e-14 1 0
-7.08785e-15 1 0
8.57536e-15 1 0
1.38898e-14 1 0
-2.30822e-14 1 0
-9.68462e-15 1 0
2.42335e-14 1 0
1.99796e-14 1 0
-9.68462e-15 1 0
-1.90297e-14 1 0
1.99796e-14 1 0
2.56061e-14 1 0
-8.04275e-15 1 0
-1.37331e-14 1 0
1.27326e-14 1 0
9.3842e-15 1 0
-1.37331e-14 1 0
-1.16188e-14 1 0
9.3842e-15 1 0
1.32256e-14 1 0
-1.90297e-14 1 0
4.98097e-15 1 0
2.56061e-14 1 0
1.17359e-14 1 0
4.98097e-15 1 0
-2.81147e-14 1 0
1.17359e-14 1 0
2.28784e-14 1 0
-1.16188e-14 1 0
-1.14419e-14 1 0
1.32256e-14 1 0
1.81685e-14 1 0
-1.14419e-14 1 0
-1.53498e-14 1 0
1.81685e-14 1 0
1.95917e-14 1 0
-2.57634e-14 1 0
-1.9663e-14 1 0
1.75634e-14 1 0
2.03862e-14 1 0
-1.9663e-14 1 0
-2.34689e-14 1 0
2.03862e-14 1 0
2.48341e-14 1 0
-7.08785e-15 1 0
-9.08327e-15 1 0
1.38898e-14 1 0
1.25196e-14 1 0
-9.08327e-15 1 0
-1.1933e-14 1 0
1.25196e-14 1 0
4.02902e-15 1 0
-2.34689e-14 1 0
-2.90108e-14 1 0
2.48341e-14 1 0
2.91572e-14 1 0
-2.90108e-14 1 0
-2.44465e-14 1 0
2.91572e-14 1 0
2.33174e-14 1 0
-1.1933e-14 1 0
-2.13224e-14 1 0
4.02902e-15 1 0
1.38193e-14 1 0
-2.13224e-14 1 0
-8.48349e-15 1 0
1.38193e-14 1 0
-5.68632e-16 1 0
-1.28274e-14 1 0
-9.13315e-18 1 0
2.74528e-14 1 0
-3.37075e-16 1 0
-9.13315e-18 1 0
-4.44189e-15 1 0
-3.37075e-16 1 0
1.15043e-14 1 0
-2.92893e-14 1 0
-1.17354e-14 1 0
2.24006e-14 1 0
3.2592e-14 1 0
-1.17354e-14 1 0
-1.73832e-14 1 0
3.2592e-14 1 0
2.40912e-14 1 0
-4.44189e-15 1 0
-1.01256e-14 1 0
1.15043e-14 1 0
3.31469e-14 1 0
-1.01256e-14 1 0
-2.50823e-14 1 0
3.31469e-14 1 0
5.29437e-14 1 0
-1.73832e-14 1 0
-3.03167e-14 1 0
2.40912e-14 1 0
2.75411e-14 1 0
-3.03167e-14 1 0
-4.6939e-14 1 0
2.75411e-14 1 0
4.00232e-14 1 0
-1.6595e-14 1 0
-4.47952e-14 1 0
2.09268e-14 1 0
4.30471e-14 1 0
-4.47952e-14 1 0
-1.70989e-14 1 0
4.30471e-14 1 0
2.20666e-14 1 0
-3.26703e-16 1 0
-2.53424e-14 1 0
2.50205e-15 1 0
3.42498e-14 1 0
-2.53424e-14 1 0
-1.72021e-14 1 0
3.42498e-14 1 0
1.64828e-14 1 0
-1.70989e-14 1 0
-2.78937e-14 1 0
2.20666e-14 1 0
2.77686e-14 1 0
-2.78937e-14 1 0
-1.29158e-14 1 0
2.77686e-14 1 0
1.85651e-14 1 0
-1.72021e-14 1 0
-1.72923e-14 1 0
1.64828e-14 1 0
2.84936e-14 1 0
-1.72923e-14 1 0
-2.60519e-14 1 0
2.84936e-14 1 0
3.18291e-14 1 0
-2.50823e-14 1 0
-1.7542e-14 1 0
5.29437e-14 1 0
3.3221e-14 1 0
-1.7542e-14 1 0
-1.20025e-14 1 0
3.3221e-14 1 0
3.05498e-14 1 0
-4.6939e-14 1 0
-4.22378e-15 1 0
4.00232e-14 1 0
-6.02071e-15 1 0
-4.22378e-15 1 0
-2.08667e-14 1 0
-6.02071e-15 1 0
3.06733e-14 1 0
-1.20025e-14 1 0
-1.49272e-14 1 0
3.05498e-14 1 0
3.20838e-14 1 0
-1.49272e-14 1 0
-1.22448e-14 1 0
3.20838e-14 1 0
2.30483e-14 1 0
-2.08667e-14 1 0
-2.51148e-14 1 0
3.06733e-14 1 0
3.82195e-14 1 0
-2.51148e-14 1 0
-1.93074e-14 1 0
3.82195e-14 1 0
2.3528e-14 1 0
-1.29158e-14 1 0
3.33311e-15 1 0
1.85651e-14 1 0
1.55806e-14 1 0
3.33311e-15 1 0
-1.29913e-14 1 0
1.55806e-14 1 0
1.51292e-14 1 0
-2.60519e-14 1 0
-1.28729e-14 1 0
3.18291e-14 1 0
3.13442e-14 1 0
-1.28729e-14 1 0
9.61264e-16 1 0
3.13442e-14 1 0
6.68063e-15 1 0
-1.29913e-14 1 0
-9.94613e-15 1 0
1.51292e-14 1 0
-8.65686e-16 1 0
-9.94613e-15 1 0
3.80422e-15 1 0
-8.65686e-16 1 0
1.81413e-14 1 0
9.61264e-16 1 0
1.0625e-14 1 0
6.68063e-15 1 0
1.4953e-14 1 0
1.0625e-14 1 0
-1.16714e-14 1 0
1.4953e-14 1 0
1.01196e-14 1 0
-1.06633e-14 1 0
-2.89104e-14 1 0
2.89922e-14 1 0
3.08083e-14 1 0
-2.89104e-14 1 0
-1.3245e-14 1 0
3.08083e-14 1 0
3.74654e-14 1 0
-1.84617e-14 1 0
-1.57365e-14 1 0
2.6299e-14 1 0
2.86538e-14 1 0
-1.57365e-14 1 0
-2.7518e-14 1 0
2.86538e-14 1 0
3.03863e-14 1 0
-1.3245e-14 1 0
-3.3306e-14 1 0
3.74654e-14 1 0
4.8728e-14 1 0
-3.3306e-14 1 0
-2.31885e-14 1 0
4.8728e-14 1 0
3.48831e-14 1 0
-2.7518e-14 1 0
-2.95677e-14 1 0
3.03863e-14 1 0
2.61802e-14 1 0
-2.95677e-14 1 0
-2.91415e-14 1 0
2.61802e-14 1 0
3.90182e-14 1 0
-3.75967e-14 1 0
-3.62965e-14 1 0
4.14308e-14 1 0
4.04313e-14 1 0
-3.62965e-14 1 0
-3.47387e-14 1 0
4.04313e-14 1 0
3.85081e-14 1 0
-2.77473e-14 1 0
-2.61409e-14 1 0
3.17933e-14 1 0
3.81401e-14 1 0
-2.61409e-14 1 0
-2.66132e-14 1 0
3.81401e-14 1 0
3.30547e-14 1 0
-3.47387e-14 1 0
-2.7447e-14 1 0
3.85081e-14 1 0
3.75535e-14 1 0
-2.7447e-14 1 0
-4.1587e-14 1 0
3.75535e-14 1 0
4.34596e-14 1 0
-2.66132e-14 1 0
-2.32898e-14 1 0
3.30547e-14 1 0
3.54822e-14 1 0
-2.32898e-14 1 0
-2.5235e-14 1 0
3.54822e-14 1 0
3.26707e-14 1 0
-2.31885e-14 1 0
-2.99131e-14 1 0
3.48831e-14 1 0
2.33284e-14 1 0
-2.99131e-14 1 0
-1.07577e-14 1 0
2.33284e-14 1 0
2.30074e-14 1 0
-2.91415e-14 1 0
-7.70233e-15 1 0
3.90182e-14 1 0
1.9652e-14 1 0
-7.70233e-15 1 0
-3.20013e-14 1 0
1.9652e-14 1 0
2.91192e-14 1 0
-1.07577e-14 1 0
-1.8408e-14 1 0
2.30074e-14 1 0
1.41912e-14 1 0
-1.8408e-14 1 0
-1.71053e-14 1 0
1.41912e-14 1 0
1.15985e-14 1 0