# vtk DataFile Version 3.0
#This file was generated by the deal.II library on 2018/10/24 at 16:39:29
ASCII
DATASET UNSTRUCTURED_GRID

POINTS 20480 double
0 0 0
0.19635 0 0
0 0.3125 0
0.19635 0.3125 0
0.19635 0 0
0.392699 0 0
0.19635 0.3125 0
0.392699 0.3125 0
0 0.3125 0
0.19635 0.3125 0
0 0.625 0
0.19635 0.625 0
0.19635 0.3125 0
0.392699 0.3125 0
0.19635 0.625 0
0.392699 0.625 0
0.392699 0 0
0.589049 0 0
0.392699 0.3125 0
0.589049 0.3125 0
0.589049 0 0
0.785398 0 0
0.589049 0.3125 0
0.785398 0.3125 0
0.392699 0.3125 0
0.589049 0.3125 0
0.392699 0.625 0
0.589049 0.625 0
0.589049 0.3125 0
0.785398 0.3125 0
0.589049 0.625 0
0.785398 0.625 0
0 0.625 0
0.19635 0.625 0
0 0.9375 0
0.19635 0.9375 0
0.19635 0.625 0
0.392699 0.625 0
0.19635 0.9375 0
0.392699 0.9375 0
0 0.9375 0
0.19635 0.9375 0
0 1.25 0
0.19635 1.25 0
0.19635 0.9375 0
0.392699 0.9375 0
0.19635 1.25 0
0.392699 1.25 0
0.392699 0.625 0
0.589049 0.625 0
0.392699 0.9375 0
0.589049 0.9375 0
0.589049 0.625 0
0.785398 0.625 0
0.589049 0.9375 0
0.785398 0.9375 0
0.392699 0.9375 0
0.589049 0.9375 0
0.392699 1.25 0
0.589049 1.25 0
0.589049 0.9375 0
0.785398 0.9375 0
0.589049 1.25 0
0.785398 1.25 0
0.785398 0 0
0.981748 0 0
0.785398 0.3125 0
0.981748 0.3125 0
0.981748 0 0
1.1781 0 0
0.981748 0.3125 0
1.1781 0.3125 0
0.785398 0.3125 0
0.981748 0.3125 0
0.785398 0.625 0
0.981748 0.625 0
0.981748 0.3125 0
1.1781 0.3125 0
0.981748 0.625 0
1.1781 0.625 0
1.1781 0 0
1.37445 0 0
1.1781 0.3125 0
1.37445 0.3125 0
1.37445 0 0
1.5708 0 0
1.37445 0.3125 0
1.5708 0.3125 0
1.1781 0.3125 0
1.37445 0.3125 0
1.1781 0.625 0
1.37445 0.625 0
1.37445 0.3125 0
1.5708 0.3125 0
1.37445 0.625 0
1.5708 0.625 0
0.785398 0.625 0
0.981748 0.625 0
0.785398 0.9375 0
0.981748 0.9375 0
0.981748 0.625 0
1.1781 0.625 0
0.981748 0.9375 0
1.1781 0.9375 0
0.785398 0.9375 0
0.981748 0.9375 0
0.785398 1.25 0
0.981748 1.25 0
0.981748 0.9375 0
1.1781 0.9375 0
0.981748 1.25 0
1.1781 1.25 0
1.1781 0.625 0
1.37445 0.625 0
1.1781 0.9375 0
1.37445 0.9375 0
1.37445 0.625 0
1.5708 0.625 0
1.37445 0.9375 0
1.5708 0.9375 0
1.1781 0.9375 0
1.37445 0.9375 0
1.1781 1.25 0
1.37445 1.25 0
1.37445 0.9375 0
1.5708 0.9375 0
1.37445 1.25 0
1.5708 1.25 0
0 1.25 0
0.19635 1.25 0
0 1.5625 0
0.19635 1.5625 0
0.19635 1.25 0
0.392699 1.25 0
0.19635 1.5625 0
0.392699 1.5625 0
0 1.5625 0
0.19635 1.5625 0
0 1.875 0
0.19635 1.875 0
0.19635 1.5625 0
0.392699 1.5625 0
0.19635 1.875 0
0.392699 1.875 0
0.392699 1.25 0
0.589049 1.25 0
0.392699 1.5625 0
0.589049 1.5625 0
0.589049 1.25 0
0.785398 1.25 0
0.589049 1.5625 0
0.785398 1.5625 0
0.392699 1.5625 0
0.589049 1.5625 0
0.392699 1.875 0
0.589049 1.875 0
0.589049 1.5625 0
0.785398 1.5625 0
0.589049 1.875 0
0.785398 1.875 0
0 1.875 0
0.19635 1.875 0
0 2.1875 0
0.19635 2.1875 0
0.19635 1.875 0
0.392699 1.875 0
0.19635 2.1875 0
0.392699 2.1875 0
0 2.1875 0
0.19635 2.1875 0
0 2.5 0
0.19635 2.5 0
0.19635 2.1875 0
0.392699 2.1875 0
0.19635 2.5 0
0.392699 2.5 0
0.392699 1.875 0
0.589049 1.875 0
0.392699 2.1875 0
0.589049 2.1875 0
0.589049 1.875 0
0.785398 1.875 0
0.589049 2.1875 0
0.785398 2.1875 0
0.392699 2.1875 0
0.589049 2.1875 0
0.392699 2.5 0
0.589049 2.5 0
0.589049 2.1875 0
0.785398 2.1875 0
0.589049 2.5 0
0.785398 2.5 0
0.785398 1.25 0
0.981748 1.25 0
0.785398 1.5625 0
0.981748 1.5625 0
0.981748 1.25 0
1.1781 1.25 0
0.981748 1.5625 0
1.1781 1.5625 0
0.785398 1.5625 0
0.981748 1.5625 0
0.785398 1.875 0
0.981748 1.875 0
0.981748 1.5625 0
1.1781 1.5625 0
0.981748 1.875 0
1.1781 1.875 0
1.1781 1.25 0
1.37445 1.25 0
1.1781 1.5625 0
1.37445 1.5625 0
1.37445 1.25 0
1.5708 1.25 0
1.37445 1.5625 0
1.5708 1.5625 0
1.1781 1.5625 0
1.37445 1.5625 0
1.1781 1.875 0
1.37445 1.875 0
1.37445 1.5625 0
1.5708 1.5625 0
1.37445 1.875 0
1.5708 1.875 0
0.785398 1.875 0
0.981748 1.875 0
0.785398 2.1875 0
0.981748 2.1875 0
0.981748 1.875 0
1.1781 1.875 0
0.981748 2.1875 0
1.1781 2.1875 0
0.785398 2.1875 0
0.981748 2.1875 0
0.785398 2.5 0
0.981748 2.5 0
0.981748 2.1875 0
1.1781 2.1875 0
0.981748 2.5 0
1.1781 2.5 0
1.1781 1.875 0
1.37445 1.875 0
1.1781 2.1875 0
1.37445 2.1875 0
1.37445 1.875 0
1.5708 1.875 0
1.37445 2.1875 0
1.5708 2.1875 0
1.1781 2.1875 0
1.37445 2.1875 0
1.1781 2.5 0
1.37445 2.5 0
1.37445 2.1875 0
1.5708 2.1875 0
1.37445 2.5 0
1.5708 2.5 0
1.5708 0 0
1.76715 0 0
1.5708 0.3125 0
1.76715 0.3125 0
1.76715 0 0
1.9635 0 0
1.76715 0.3125 0
1.9635 0.3125 0
1.5708 0.3125 0
1.76715 0.3125 0
1.5708 0.625 0
1.76715 0.625 0
1.76715 0.3125 0
1.9635 0.3125 0
1.76715 0.625 0
1.9635 0.625 0
1.9635 0 0
2.15984 0 0
1.9635 0.3125 0
2.15984 0.3125 0
2.15984 0 0
2.35619 0 0
2.15984 0.3125 0
2.35619 0.3125 0
1.9635 0.3125 0
2.15984 0.3125 0
1.9635 0.625 0
2.15984 0.625 0
2.15984 0.3125 0
2.35619 0.3125 0
2.15984 0.625 0
2.35619 0.625 0
1.5708 0.625 0
1.76715 0.625 0
1.5708 0.9375 0
1.76715 0.9375 0
1.76715 0.625 0
1.9635 0.625 0
1.76715 0.9375 0
1.9635 0.9375 0
1.5708 0.9375 0
1.76715 0.9375 0
1.5708 1.25 0
1.76715 1.25 0
1.76715 0.9375 0
1.9635 0.9375 0
1.76715 1.25 0
1.9635 1.25 0
1.9635 0.625 0
2.15984 0.625 0
1.9635 0.9375 0
2.15984 0.9375 0
2.15984 0.625 0
2.35619 0.625 0
2.15984 0.9375 0
2.35619 0.9375 0
1.9635 0.9375 0
2.15984 0.9375 0
1.9635 1.25 0
2.15984 1.25 0
2.15984 0.9375 0
2.35619 0.9375 0
2.15984 1.25 0
2.35619 1.25 0
2.35619 0 0
2.55254 0 0
2.35619 0.3125 0
2.55254 0.3125 0
2.55254 0 0
2.74889 0 0
2.55254 0.3125 0
2.74889 0.3125 0
2.35619 0.3125 0
2.55254 0.3125 0
2.35619 0.625 0
2.55254 0.625 0
2.55254 0.3125 0
2.74889 0.3125 0
2.55254 0.625 0
2.74889 0.625 0
2.74889 0 0
2.94524 0 0
2.74889 0.3125 0
2.94524 0.3125 0
2.94524 0 0
3.14159 0 0
2.94524 0.3125 0
3.14159 0.3125 0
2.74889 0.3125 0
2.94524 0.3125 0
2.74889 0.625 0
2.94524 0.625 0
2.94524 0.3125 0
3.14159 0.3125 0
2.94524 0.625 0
3.14159 0.625 0
2.35619 0.625 0
2.55254 0.625 0
2.35619 0.9375 0
2.55254 0.9375 0
2.55254 0.625 0
2.74889 0.625 0
2.55254 0.9375 0
2.74889 0.9375 0
2.35619 0.9375 0
2.55254 0.9375 0
2.35619 1.25 0
2.55254 1.25 0
2.55254 0.9375 0
2.74889 0.9375 0
2.55254 1.25 0
2.74889 1.25 0
2.74889 0.625 0
2.94524 0.625 0
2.74889 0.9375 0
2.94524 0.9375 0
2.94524 0.625 0
3.14159 0.625 0
2.94524 0.9375 0
3.14159 0.9375 0
2.74889 0.9375 0
2.94524 0.9375 0
2.74889 1.25 0
2.94524 1.25 0
2.94524 0.9375 0
3.14159 0.9375 0
2.94524 1.25 0
3.14159 1.25 0
1.5708 1.25 0
1.76715 1.25 0
1.5708 1.5625 0
1.76715 1.5625 0
1.76715 1.25 0
1.9635 1.25 0
1.76715 1.5625 0
1.9635 1.5625 0
1.5708 1.5625 0
1.76715 1.5625 0
1.5708 1.875 0
1.76715 1.875 0
1.76715 1.5625 0
1.9635 1.5625 0
1.76715 1.875 0
1.9635 1.875 0
1.9635 1.25 0
2.15984 1.25 0
1.9635 1.5625 0
2.15984 1.5625 0
2.15984 1.25 0
2.35619 1.25 0
2.15984 1.5625 0
2.35619 1.5625 0
1.9635 1.5625 0
2.15984 1.5625 0
1.9635 1.875 0
2.15984 1.875 0
2.15984 1.5625 0
2.35619 1.5625 0
2.15984 1.875 0
2.35619 1.875 0
1.5708 1.875 0
1.76715 1.875 0
1.5708 2.1875 0
1.76715 2.1875 0
1.76715 1.875 0
1.9635 1.875 0
1.76715 2.1875 0
1.9635 2.1875 0
1.5708 2.1875 0
1.76715 2.1875 0
1.5708 2.5 0
1.76715 2.5 0
1.76715 2.1875 0
1.9635 2.1875 0
1.76715 2.5 0
1.9635 2.5 0
1.9635 1.875 0
2.15984 1.875 0
1.9635 2.1875 0
2.15984 2.1875 0
2.15984 1.875 0
2.35619 1.875 0
2.15984 2.1875 0
2.35619 2.1875 0
1.9635 2.1875 0
2.15984 2.1875 0
1.9635 2.5 0
2.15984 2.5 0
2.15984 2.1875 0
2.35619 2.1875 0
2.15984 2.5 0
2.35619 2.5 0
2.35619 1.25 0
2.55254 1.25 0
2.35619 1.5625 0
2.55254 1.5625 0
2.55254 1.25 0
2.74889 1.25 0
2.55254 1.5625 0
2.74889 1.5625 0
2.35619 1.5625 0
2.55254 1.5625 0
2.35619 1.875 0
2.55254 1.875 0
2.55254 1.5625 0
2.74889 1.5625 0
2.55254 1.875 0
2.74889 1.875 0
2.74889 1.25 0
2.94524 1.25 0
2.74889 1.5625 0
2.94524 1.5625 0
2.94524 1.25 0
3.14159 1.25 0
2.94524 1.5625 0
3.14159 1.5625 0
2.74889 1.5625 0
2.94524 1.5625 0
2.74889 1.875 0
2.94524 1.875 0
2.94524 1.5625 0
3.14159 1.5625 0
2.94524 1.875 0
3.14159 1.875 0
2.35619 1.875 0
2.55254 1.875 0
2.35619 2.1875 0
2.55254 2.1875 0
2.55254 1.875 0
2.74889 1.875 0
2.55254 2.1875 0
2.74889 2.1875 0
2.35619 2.1875 0
2.55254 2.1875 0
2.35619 2.5 0
2.55254 2.5 0
2.55254 2.1875 0
2.74889 2.1875 0
2.55254 2.5 0
2.74889 2.5 0
2.74889 1.875 0
2.94524 1.875 0
2.74889 2.1875 0
2.94524 2.1875 0
2.94524 1.875 0
3.14159 1.875 0
2.94524 2.1875 0
3.14159 2.1875 0
2.74889 2.1875 0
2.94524 2.1875 0
2.74889 2.5 0
2.94524 2.5 0
2.94524 2.1875 0
3.14159 2.1875 0
2.94524 2.5 0
3.14159 2.5 0
0 2.5 0
0.19635 2.5 0
0 2.8125 0
0.19635 2.8125 0
0.19635 2.5 0
0.392699 2.5 0
0.19635 2.8125 0
0.392699 2.8125 0
0 2.8125 0
0.19635 2.8125 0
0 3.125 0
0.19635 3.125 0
0.19635 2.8125 0
0.392699 2.8125 0
0.19635 3.125 0
0.392699 3.125 0
0.392699 2.5 0
0.589049 2.5 0
0.392699 2.8125 0
0.589049 2.8125 0
0.589049 2.5 0
0.785398 2.5 0
0.589049 2.8125 0
0.785398 2.8125 0
0.392699 2.8125 0
0.589049 2.8125 0
0.392699 3.125 0
0.589049 3.125 0
0.589049 2.8125 0
0.785398 2.8125 0
0.589049 3.125 0
0.785398 3.125 0
0 3.125 0
0.19635 3.125 0
0 3.4375 0
0.19635 3.4375 0
0.19635 3.125 0
0.392699 3.125 0
0.19635 3.4375 0
0.392699 3.4375 0
0 3.4375 0
0.19635 3.4375 0
0 3.75 0
0.19635 3.75 0
0.19635 3.4375 0
0.392699 3.4375 0
0.19635 3.75 0
0.392699 3.75 0
0.392699 3.125 0
0.589049 3.125 0
0.392699 3.4375 0
0.589049 3.4375 0
0.589049 3.125 0
0.785398 3.125 0
0.589049 3.4375 0
0.785398 3.4375 0
0.392699 3.4375 0
0.589049 3.4375 0
0.392699 3.75 0
0.589049 3.75 0
0.589049 3.4375 0
0.785398 3.4375 0
0.589049 3.75 0
0.785398 3.75 0
0.785398 2.5 0
0.981748 2.5 0
0.785398 2.8125 0
0.981748 2.8125 0
0.981748 2.5 0
1.1781 2.5 0
0.981748 2.8125 0
1.1781 2.8125 0
0.785398 2.8125 0
0.981748 2.8125 0
0.785398 3.125 0
0.981748 3.125 0
0.981748 2.8125 0
1.1781 2.8125 0
0.981748 3.125 0
1.1781 3.125 0
1.1781 2.5 0
1.37445 2.5 0
1.1781 2.8125 0
1.37445 2.8125 0
1.37445 2.5 0
1.5708 2.5 0
1.37445 2.8125 0
1.5708 2.8125 0
1.1781 2.8125 0
1.37445 2.8125 0
1.1781 3.125 0
1.37445 3.125 0
1.37445 2.8125 0
1.5708 2.8125 0
1.37445 3.125 0
1.5708 3.125 0
0.785398 3.125 0
0.981748 3.125 0
0.785398 3.4375 0
0.981748 3.4375 0
0.981748 3.125 0
1.1781 3.125 0
0.981748 3.4375 0
1.1781 3.4375 0
0.785398 3.4375 0
0.981748 3.4375 0
[...]
POINT_DATA 20480
VECTORS uf double
0 1 0
4.71141e-14 1 0
0 1 0
-6.33417e-14 1 0
4.71141e-14 1 0
2.99411e-14 1 0
-6.33417e-14 1 0
-2.88218e-14 1 0
0 1 0
6.33594e-14 1 0
0 1 0
-6.52391e-14 1 0
6.33594e-14 1 0
1.7304e-14 1 0
-6.52391e-14 1 0
-2.60735e-14 1 0
2.99411e-14 1 0
1.23928e-14 1 0
-2.88218e-14 1 0
-2.04515e-14 1 0
1.23928e-14 1 0
8.50422e-17 1 0
-2.04515e-14 1 0
-6.02179e-15 1 0
1.7304e-14 1 0
1.10889e-14 1 0
-2.60735e-14 1 0
-1.87324e-14 1 0
1.10889e-14 1 0
-2.71534e-15 1 0
-1.87324e-14 1 0
3.49185e-16 1 0
0 1 0
5.44198e-14 1 0
0 1 0
-6.36336e-14 1 0
5.44198e-14 1 0
2.95965e-14 1 0
-6.36336e-14 1 0
-4.96994e-14 1 0
0 1 0
4.63201e-14 1 0
0 1 0
-3.50861e-14 1 0
4.63201e-14 1 0
4.1053e-14 1 0
-3.50861e-14 1 0
-2.15347e-14 1 0
2.95965e-14 1 0
1.02235e-14 1 0
-4.96994e-14 1 0
4.20801e-15 1 0
1.02235e-14 1 0
-2.23995e-15 1 0
4.20801e-15 1 0
1.23704e-15 1 0
4.1053e-14 1 0
-1.54865e-14 1 0
-2.15347e-14 1 0
6.26745e-15 1 0
-1.54865e-14 1 0
-5.39599e-15 1 0
6.26745e-15 1 0
9.34525e-15 1 0
8.50422e-17 1 0
-1.32039e-14 1 0
-6.02179e-15 1 0
2.37968e-14 1 0
-1.32039e-14 1 0
-1.2833e-14 1 0
2.37968e-14 1 0
8.4365e-15 1 0
-2.71534e-15 1 0
-4.43689e-14 1 0
3.49185e-16 1 0
4.02758e-14 1 0
-4.43689e-14 1 0
-2.25059e-14 1 0
4.02758e-14 1 0
2.48957e-14 1 0
-1.2833e-14 1 0
-1.79251e-14 1 0
8.4365e-15 1 0
1.05185e-14 1 0
-1.79251e-14 1 0
-1.91859e-14 1 0
1.05185e-14 1 0
1.57411e-14 1 0
-2.25059e-14 1 0
-2.95958e-14 1 0
2.48957e-14 1 0
2.52729e-14 1 0
-2.95958e-14 1 0
-3.38795e-14 1 0
2.52729e-14 1 0
2.75416e-14 1 0
-2.23995e-15 1 0
-4.04149e-14 1 0
1.23704e-15 1 0
6.67071e-15 1 0
-4.04149e-14 1 0
-3.73941e-14 1 0
6.67071e-15 1 0
2.41555e-14 1 0
-5.39599e-15 1 0
7.53783e-15 1 0
9.34525e-15 1 0
1.22457e-14 1 0
7.53783e-15 1 0
-8.15395e-15 1 0
1.22457e-14 1 0
8.32957e-15 1 0
-3.73941e-14 1 0
-3.75102e-14 1 0
2.41555e-14 1 0
2.56774e-14 1 0
-3.75102e-14 1 0
-4.13924e-14 1 0
2.56774e-14 1 0
2.92863e-14 1 0
-8.15395e-15 1 0
-7.5656e-15 1 0
8.32957e-15 1 0
8.08064e-15 1 0
-7.5656e-15 1 0
-1.18111e-14 1 0
8.08064e-15 1 0
9.28217e-15 1 0
0 1 0
2.26548e-14 1 0
0 1 0
-2.75377e-14 1 0
2.26548e-14 1 0
-5.11835e-15 1 0
-2.75377e-14 1 0
6.3584e-15 1 0
0 1 0
3.07769e-14 1 0
0 1 0
-2.39246e-14 1 0
3.07769e-14 1 0
-7.17826e-15 1 0
-2.39246e-14 1 0
1.00555e-14 1 0
-5.11835e-15 1 0
-8.08042e-15 1 0
6.3584e-15 1 0
5.74177e-15 1 0
-8.08042e-15 1 0
-1.24028e-14 1 0
5.74177e-15 1 0
1.22794e-14 1 0
-7.17826e-15 1 0
-3.99645e-15 1 0
1.00555e-14 1 0
2.50787e-15 1 0
-3.99645e-15 1 0
-1.61011e-14 1 0
2.50787e-15 1 0
1.6119e-14 1 0
0 1 0
2.11768e-14 1 0
0 1 0
-3.00051e-14 1 0
2.11768e-14 1 0
-4.70466e-15 1 0
-3.00051e-14 1 0
1.15399e-15 1 0
0 1 0
2.93277e-14 1 0
0 1 0
-1.93611e-14 1 0
2.93277e-14 1 0
-4.14351e-15 1 0
-1.93611e-14 1 0
8.07731e-15 1 0
-4.70466e-15 1 0
5.86572e-15 1 0
1.15399e-15 1 0
-1.15084e-14 1 0
5.86572e-15 1 0
-1.63503e-14 1 0
-1.15084e-14 1 0
1.96356e-14 1 0
-4.14351e-15 1 0
-1.02094e-15 1 0
8.07731e-15 1 0
1.29586e-14 1 0
-1.02094e-15 1 0
-2.01809e-14 1 0
1.29586e-14 1 0
1.07119e-14 1 0
-1.24028e-14 1 0
-7.33081e-15 1 0
1.22794e-14 1 0
-1.05399e-14 1 0
-7.33081e-15 1 0
-2.49304e-15 1 0
-1.05399e-14 1 0
-2.50169e-16 1 0
-1.61011e-14 1 0
1.6904e-14 1 0
1.6119e-14 1 0
-2.82146e-14 1 0
1.6904e-14 1 0
6.32155e-15 1 0
-2.82146e-14 1 0
-1.45262e-14 1 0
-2.49304e-15 1 0
-2.36756e-15 1 0
-2.50169e-16 1 0
-2.01422e-15 1 0
-2.36756e-15 1 0
1.08598e-14 1 0
-2.01422e-15 1 0
-1.03619e-14 1 0
6.32155e-15 1 0
1.08133e-14 1 0
-1.45262e-14 1 0
-1.5518e-14 1 0
1.08133e-14 1 0
1.79581e-14 1 0
-1.5518e-14 1 0
-1.03721e-14 1 0
-1.63503e-14 1 0
3.39184e-14 1 0
1.96356e-14 1 0
-1.19632e-14 1 0
3.39184e-14 1 0
2.381e-14 1 0
-1.19632e-14 1 0
-2.52253e-14 1 0
-2.01809e-14 1 0
1.1763e-14 1 0
1.07119e-14 1 0
-2.24305e-14 1 0
1.1763e-14 1 0
3.18583e-14 1 0
-2.24305e-14 1 0
-1.71755e-14 1 0
2.381e-14 1 0
2.20388e-14 1 0
-2.52253e-14 1 0
-1.20516e-14 1 0
2.20388e-14 1 0
9.13661e-15 1 0
-1.20516e-14 1 0
-7.85871e-15 1 0
3.18583e-14 1 0
2.12463e-14 1 0
-1.71755e-14 1 0
-1.0432e-14 1 0
2.12463e-14 1 0
1.87321e-14 1 0
-1.0432e-14 1 0
-7.27211e-15 1 0
-1.91859e-14 1 0
-1.82997e-14 1 0
1.57411e-14 1 0
1.03918e-14 1 0
-1.82997e-14 1 0
-2.0405e-14 1 0
1.03918e-14 1 0
1.96487e-14 1 0
-3.38795e-14 1 0
-3.12774e-14 1 0
2.75416e-14 1 0
2.12197e-14 1 0
-3.12774e-14 1 0
-4.19605e-14 1 0
2.12197e-14 1 0
2.5764e-14 1 0
-2.0405e-14 1 0
-2.29531e-14 1 0
1.96487e-14 1 0
2.89999e-14 1 0
-2.29531e-14 1 0
-1.96811e-14 1 0
2.89999e-14 1 0
1.94611e-14 1 0
-4.19605e-14 1 0
-4.89068e-14 1 0
2.5764e-14 1 0
2.02163e-14 1 0
-4.89068e-14 1 0
-4.19241e-14 1 0
2.02163e-14 1 0
3.00011e-14 1 0
-4.13924e-14 1 0
-3.65703e-14 1 0
2.92863e-14 1 0
2.90847e-14 1 0
-3.65703e-14 1 0
-4.39678e-14 1 0
2.90847e-14 1 0
3.97702e-14 1 0
-1.18111e-14 1 0
-5.34092e-15 1 0
9.28217e-15 1 0
6.07036e-15 1 0
-5.34092e-15 1 0
-9.82106e-15 1 0
6.07036e-15 1 0
6.15365e-15 1 0
-4.39678e-14 1 0
-3.20911e-14 1 0
3.97702e-14 1 0
2.64184e-14 1 0
-3.20911e-14 1 0
-4.56543e-14 1 0
2.64184e-14 1 0
3.61611e-14 1 0
-9.82106e-15 1 0
-3.63756e-15 1 0
6.15365e-15 1 0
1.45001e-14 1 0
-3.63756e-15 1 0
-6.7717e-15 1 0
1.45001e-14 1 0
5.08537e-15 1 0
-1.96811e-14 1 0
-1.73476e-14 1 0
1.94611e-14 1 0
1.51991e-14 1 0
-1.73476e-14 1 0
-1.43798e-14 1 0
1.51991e-14 1 0
1.9892e-14 1 0
-4.19241e-14 1 0
-2.87679e-14 1 0
3.00011e-14 1 0
2.06159e-14 1 0
-2.87679e-14 1 0
-4.88077e-14 1 0
2.06159e-14 1 0
3.33506e-14 1 0
-1.43798e-14 1 0
-1.83984e-14 1 0
1.9892e-14 1 0
1.91567e-14 1 0
-1.83984e-14 1 0
-1.55803e-14 1 0
1.91567e-14 1 0
2.36654e-14 1 0
-4.88077e-14 1 0
-4.14726e-14 1 0
3.33506e-14 1 0
3.69531e-14 1 0
-4.14726e-14 1 0
-3.81262e-14 1 0
3.69531e-14 1 0
2.29114e-14 1 0
-4.56543e-14 1 0
-3.71673e-14 1 0
3.61611e-14 1 0
2.3154e-14 1 0
-3.71673e-14 1 0
-3.51792e-14 1 0
2.3154e-14 1 0
1.70523e-14 1 0
-6.7717e-15 1 0
-1.12086e-14 1 0
5.08537e-15 1 0
2.91482e-14 1 0
-1.12086e-14 1 0
-5.38477e-15 1 0
2.91482e-14 1 0
1.02224e-14 1 0
-3.51792e-14 1 0
-4.59358e-14 1 0
1.70523e-14 1 0
2.26276e-14 1 0
-4.59358e-14 1 0
-2.96465e-14 1 0
2.26276e-14 1 0
2.29215e-14 1 0
-5.38477e-15 1 0
-7.53254e-15 1 0
1.02224e-14 1 0
2.05707e-14 1 0
-7.53254e-15 1 0
-1.81246e-14 1 0
2.05707e-14 1 0
2.99471e-14 1 0
1.08598e-14 1 0
1.45437e-14 1 0
-1.03619e-14 1 0
-8.66362e-15 1 0
1.45437e-14 1 0
1.95404e-14 1 0
-8.66362e-15 1 0
-1.39546e-14 1 0
1.79581e-14 1 0
1.33445e-14 1 0
-1.03721e-14 1 0
1.41913e-15 1 0
1.33445e-14 1 0
1.62052e-14 1 0
1.41913e-15 1 0
5.09395e-16 1 0
1.95404e-14 1 0
6.1859e-15 1 0
-1.39546e-14 1 0
-7.59053e-15 1 0
6.1859e-15 1 0
1.21592e-14 1 0
-7.59053e-15 1 0
-2.41806e-15 1 0
1.62052e-14 1 0
1.89126e-14 1 0
5.09395e-16 1 0
-1.49965e-14 1 0
1.89126e-14 1 0
1.91894e-14 1 0
-1.49965e-14 1 0
-2.57415e-14 1 0
9.13661e-15 1 0
7.81672e-15 1 0
-7.85871e-15 1 0
-1.57992e-14 1 0
7.81672e-15 1 0
3.97807e-15 1 0
-1.57992e-14 1 0
-2.30505e-15 1 0
1.87321e-14 1 0
2.52311e-14 1 0
-7.27211e-15 1 0
-7.85969e-15 1 0
2.52311e-14 1 0
1.10601e-14 1 0
-7.85969e-15 1 0
-8.49368e-15 1 0
3.97807e-15 1 0
2.28808e-14 1 0
-2.30505e-15 1 0
-9.64913e-15 1 0
2.28808e-14 1 0
3.10075e-14 1 0
-9.64913e-15 1 0
-3.13595e-15 1 0
1.10601e-14 1 0
1.8924e-14 1 0
-8.49368e-15 1 0
-1.4499e-14 1 0
1.8924e-14 1 0
7.61995e-15 1 0
-1.4499e-14 1 0
-2.00665e-16 1 0
1.21592e-14 1 0
-9.65862e-15 1 0
-2.41806e-15 1 0
7.06737e-15 1 0
-9.65862e-15 1 0
1.61839e-14 1 0
7.06737e-15 1 0
1.37653e-14 1 0
1.91894e-14 1 0
1.34824e-14 1 0
-2.57415e-14 1 0
-4.23533e-15 1 0
1.34824e-14 1 0
-2.3397e-15 1 0
-4.23533e-15 1 0
-4.83396e-15 1 0
1.61839e-14 1 0
8.55868e-15 1 0
1.37653e-14 1 0
5.985e-15 1 0
8.55868e-15 1 0
-5.5963e-15 1 0
5.985e-15 1 0
1.51113e-14 1 0
-2.3397e-15 1 0
1.06707e-14 1 0
-4.83396e-15 1 0
-1.17313e-14 1 0
1.06707e-14 1 0
1.37696e-15 1 0
-1.17313e-14 1 0
-2.19709e-15 1 0
3.10075e-14 1 0
3.59006e-15 1 0
-3.13595e-15 1 0
-4.96934e-15 1 0
3.59006e-15 1 0
1.66807e-14 1 0
-4.96934e-15 1 0
-1.98042e-14 1 0
7.61995e-15 1 0
7.04335e-15 1 0
-2.00665e-16 1 0
2.34704e-14 1 0
7.04335e-15 1 0
3.22844e-14 1 0
2.34704e-14 1 0
-7.83855e-15 1 0
1.66807e-14 1 0
1.10934e-14 1 0
-1.98042e-14 1 0
7.82178e-15 1 0
1.10934e-14 1 0
7.51922e-15 1 0
7.82178e-15 1 0
6.73394e-15 1 0
3.22844e-14 1 0
-4.10046e-15 1 0
-7.83855e-15 1 0
1.35474e-14 1 0
-4.10046e-15 1 0
8.04261e-15 1 0
1.35474e-14 1 0
-7.74021e-15 1 0
0 1 0
2.00087e-14 1 0
0 1 0
-1.72314e-14 1 0
2.00087e-14 1 0
-6.22216e-15 1 0
-1.72314e-14 1 0
2.83392e-15 1 0
0 1 0
1.9368e-14 1 0
0 1 0
-1.29663e-14 1 0
1.9368e-14 1 0
4.74809e-15 1 0
-1.29663e-14 1 0
3.10862e-15 1 0
-6.22216e-15 1 0
2.09171e-15 1 0
2.83392e-15 1 0
-4.2592e-15 1 0
2.09171e-15 1 0
5.05257e-15 1 0
-4.2592e-15 1 0
7.61724e-15 1 0
4.74809e-15 1 0
2.21598e-15 1 0
3.10862e-15 1 0
1.16108e-14 1 0
2.21598e-15 1 0
-1.233e-14 1 0
1.16108e-14 1 0
3.10985e-14 1 0
0 1 0
1.43606e-14 1 0
0 1 0
-1.18671e-14 1 0
1.43606e-14 1 0
3.23003e-15 1 0
-1.18671e-14 1 0
2.0415e-15 1 0
0 1 0
2.00714e-14 1 0
0 1 0
-1.38033e-14 1 0
2.00714e-14 1 0
2.74408e-15 1 0
-1.38033e-14 1 0
5.62405e-15 1 0
3.23003e-15 1 0
-6.74994e-15 1 0
2.0415e-15 1 0
9.17637e-15 1 0
-6.74994e-15 1 0
-2.98337e-14 1 0
9.17637e-15 1 0
2.82873e-14 1 0
2.74408e-15 1 0
-2.26133e-15 1 0
5.62405e-15 1 0
8.28677e-15 1 0
-2.26133e-15 1 0
-2.75374e-14 1 0
8.28677e-15 1 0
2.73064e-14 1 0
5.05257e-15 1 0
2.70857e-14 1 0
7.61724e-15 1 0
-1.00556e-14 1 0
2.70857e-14 1 0
1.66996e-14 1 0
-1.00556e-14 1 0
-8.9807e-15 1 0
-1.233e-14 1 0
8.75781e-15 1 0
3.10985e-14 1 0
8.70853e-15 1 0
8.75781e-15 1 0
2.06194e-14 1 0
8.70853e-15 1 0
-1.43141e-14 1 0
1.66996e-14 1 0
1.83097e-14 1 0
-8.9807e-15 1 0
-1.71815e-14 1 0
1.83097e-14 1 0
1.45871e-14 1 0
-1.71815e-14 1 0
-5.4829e-15 1 0
2.06194e-14 1 0
1.85331e-14 1 0
-1.43141e-14 1 0
-1.14915e-15 1 0
1.85331e-14 1 0
6.02007e-15 1 0
-1.14915e-15 1 0
5.09447e-15 1 0
-2.98337e-14 1 0
-5.00596e-16 1 0
2.82873e-14 1 0
-1.05189e-15 1 0
-5.00596e-16 1 0
1.90455e-14 1 0
-1.05189e-15 1 0
-4.54591e-15 1 0
-2.75374e-14 1 0
1.13834e-15 1 0
2.73064e-14 1 0
4.76985e-15 1 0
1.13834e-15 1 0
-6.2921e-19 1 0
4.76985e-15 1 0
2.38726e-15 1 0
1.90455e-14 1 0
9.74887e-15 1 0
-4.54591e-15 1 0
-1.22204e-14 1 0
9.74887e-15 1 0
2.30292e-15 1 0
-1.22204e-14 1 0
-4.0969e-15 1 0
-6.2921e-19 1 0
1.67995e-14 1 0
2.38726e-15 1 0
-8.95355e-15 1 0
1.67995e-14 1 0
3.75613e-15 1 0
-8.95355e-15 1 0
7.33081e-15 1 0
0 1 0
2.98536e-14 1 0
0 1 0
-3.62879e-14 1 0
2.98536e-14 1 0
2.34656e-14 1 0
-3.62879e-14 1 0
-2.24326e-14 1 0
0 1 0
1.48515e-14 1 0
0 1 0
-9.03344e-15 1 0
1.48515e-14 1 0
-2.51472e-15 1 0
-9.03344e-15 1 0
7.26186e-15 1 0
2.34656e-14 1 0
3.02753e-15 1 0
-2.24326e-14 1 0
3.59466e-15 1 0
3.02753e-15 1 0
-5.87885e-15 1 0
3.59466e-15 1 0
1.34796e-14 1 0
-2.51472e-15 1 0
-3.34201e-16 1 0
7.26186e-15 1 0
-1.52649e-15 1 0
-3.34201e-16 1 0
-3.87367e-15 1 0
-1.52649e-15 1 0
4.44877e-15 1 0
0 1 0
1.19733e-14 1 0
0 1 0
-1.09849e-14 1 0
1.19733e-14 1 0
-1.60438e-16 1 0
-1.09849e-14 1 0
2.92264e-15 1 0
0 1 0
7.16672e-15 1 0
0 1 0
-1.96531e-15 1 0
7.16672e-15 1 0
-3.91839e-15 1 0
-1.96531e-15 1 0
1.39951e-15 1 0
-1.60438e-16 1 0
3.88987e-15 1 0
2.92264e-15 1 0
1.34743e-16 1 0
3.88987e-15 1 0
-9.09955e-16 1 0
1.34743e-16 1 0
5.04549e-15 1 0
-3.91839e-15 1 0
2.15508e-15 1 0
1.39951e-15 1 0
-4.07243e-15 1 0
2.15508e-15 1 0
-4.62426e-15 1 0
-4.07243e-15 1 0
4.45312e-15 1 0
-5.87885e-15 1 0
-8.32249e-15 1 0
1.34796e-14 1 0
1.46788e-14 1 0
-8.32249e-15 1 0
-1.74931e-16 1 0
1.46788e-14 1 0
6.10245e-15 1 0
-3.87367e-15 1 0
1.61429e-15 1 0
4.44877e-15 1 0
1.04728e-14 1 0
1.61429e-15 1 0
4.33409e-16 1 0
1.04728e-14 1 0
9.99807e-15 1 0
-1.74931e-16 1 0
1.00222e-15 1 0
6.10245e-15 1 0
1.20174e-14 1 0
1.00222e-15 1 0
-6.66922e-15 1 0
1.20174e-14 1 0
1.59166e-14 1 0
4.33409e-16 1 0
-9.25019e-15 1 0
9.99807e-15 1 0
1.24626e-14 1 0
-9.25019e-15 1 0
-1.48665e-14 1 0
1.24626e-14 1 0
1.61492e-14 1 0
-9.09955e-16 1 0
-4.31887e-15 1 0
5.04549e-15 1 0
-1.12578e-16 1 0
-4.31887e-15 1 0
-5.27567e-15 1 0
-1.12578e-16 1 0
3.89635e-15 1 0
-4.62426e-15 1 0
-1.86689e-15 1 0
4.45312e-15 1 0
6.66791e-15 1 0
-1.86689e-15 1 0
-4.63124e-15 1 0
6.66791e-15 1 0
6.49034e-15 1 0
-5.27567e-15 1 0
-4.91644e-15 1 0
3.89635e-15 1 0
1.31047e-14 1 0
-4.91644e-15 1 0
-4.3158e-15 1 0
1.31047e-14 1 0
9.59697e-15 1 0
-4.63124e-15 1 0
-1.03691e-14 1 0
6.49034e-15 1 0
3.5298e-15 1 0
-1.03691e-14 1 0
-8.17058e-15 1 0
3.5298e-15 1 0
1.86823e-15 1 0
1.45871e-14 1 0
9.22782e-15 1 0
-5.4829e-15 1 0
-4.36193e-15 1 0
9.22782e-15 1 0
1.55312e-14 1 0
-4.36193e-15 1 0
-1.62302e-14 1 0
6.02007e-15 1 0
1.36821e-14 1 0
5.09447e-15 1 0
-1.35266e-14 1 0
1.36821e-14 1 0
2.89163e-14 1 0
-1.35266e-14 1 0
-1.66696e-14 1 0
1.55312e-14 1 0
1.45235e-14 1 0
-1.62302e-14 1 0
-7.18358e-15 1 0
1.45235e-14 1 0
6.79615e-15 1 0
-7.18358e-15 1 0
-2.69526e-15 1 0
2.89163e-14 1 0
1.43154e-14 1 0
-1.66696e-14 1 0
-2.36372e-15 1 0
1.43154e-14 1 0
1.39213e-14 1 0
-2.36372e-15 1 0
-3.02087e-15 1 0
2.30292e-15 1 0
1.97747e-14 1 0
-4.0969e-15 1 0
-1.42088e-14 1 0
1.97747e-14 1 0
2.16289e-14 1 0
-1.42088e-14 1 0
-1.39114e-14 1 0
3.75613e-15 1 0
9.82791e-15 1 0
7.33081e-15 1 0
2.64276e-15 1 0
9.82791e-15 1 0
1.19969e-14 1 0
2.64276e-15 1 0
-9.63267e-15 1 0
2.16289e-14 1 0
1.49372e-14 1 0
-1.39114e-14 1 0
-1.11873e-14 1 0
1.49372e-14 1 0
7.14833e-15 1 0
-1.11873e-14 1 0
-1.33709e-15 1 0
1.19969e-14 1 0
4.78583e-15 1 0
-9.63267e-15 1 0
3.73504e-15 1 0
4.78583e-15 1 0
1.20798e-15 1 0
3.73504e-15 1 0
2.6839e-15 1 0
6.79615e-15 1 0
-7.0228e-15 1 0
-2.69526e-15 1 0
5.72005e-15 1 0
-7.0228e-15 1 0
1.25244e-14 1 0
5.72005e-15 1 0
4.35724e-15 1 0
1.39213e-14 1 0
1.32334e-14 1 0
-3.02087e-15 1 0
-2.1708e-15 1 0
1.32334e-14 1 0
5.55381e-15 1 0
-2.1708e-15 1 0
-5.29135e-15 1 0
1.25244e-14 1 0
5.16587e-15 1 0
4.35724e-15 1 0
7.6118e-15 1 0
5.16587e-15 1 0
2.7719e-14 1 0
7.6118e-15 1 0
-1.29524e-14 1 0
5.55381e-15 1 0
5.83139e-15 1 0
-5.29135e-15 1 0
-9.35221e-15 1 0
5.83139e-15 1 0
8.40077e-15 1 0
-9.35221e-15 1 0
-3.44646e-15 1 0
7.14833e-15 1 0
-2.53225e-15 1 0
-1.33709e-15 1 0
1.44742e-15 1 0
-2.53225e-15 1 0
1.06789e-14 1 0
1.44742e-15 1 0
-1.98915e-14 1 0
1.20798e-15 1 0
-5.67018e-15 1 0
2.6839e-15 1 0
2.39288e-14 1 0
-5.67018e-15 1 0
2.41074e-14 1 0
2.39288e-14 1 0
-1.59635e-14 1 0
1.06789e-14 1 0
5.3165e-15 1 0
-1.98915e-14 1 0
4.90672e-15 1 0
5.3165e-15 1 0
2.96875e-15 1 0
4.90672e-15 1 0
2.67181e-16 1 0
2.41074e-14 1 0
-5.66071e-15 1 0
-1.59635e-14 1 0
4.51605e-15 1 0
-5.66071e-15 1 0
6.64324e-15 1 0
4.51605e-15 1 0
-1.02349e-15 1 0
-6.66922e-15 1 0
-1.14528e-14 1 0
1.59166e-14 1 0
1.90252e-14 1 0
-1.14528e-14 1 0
2.50035e-15 1 0
1.90252e-14 1 0
9.1938e-15 1 0
-1.48665e-14 1 0
-1.18655e-14 1 0
1.61492e-14 1 0
1.86658e-14 1 0
-1.18655e-14 1 0
-4.13427e-15 1 0
1.86658e-14 1 0
1.55274e-14 1 0
2.50035e-15 1 0
-5.77329e-15 1 0
9.1938e-15 1 0
9.89686e-15 1 0
-5.77329e-15 1 0
-2.24384e-15 1 0
9.89686e-15 1 0
6.40199e-15 1 0
-4.13427e-15 1 0
-5.09892e-15 1 0
1.55274e-14 1 0
1.46414e-14 1 0
-5.09892e-15 1 0
-1.06116e-14 1 0
1.46414e-14 1 0
1.99589e-14 1 0
-4.3158e-15 1 0
-3.44809e-15 1 0
9.59697e-15 1 0
7.67005e-15 1 0
-3.44809e-15 1 0
-8.06044e-15 1 0
7.67005e-15 1 0
1.34516e-14 1 0
-8.17058e-15 1 0
-4.65228e-15 1 0
1.86823e-15 1 0
-4.86474e-15 1 0
-4.65228e-15 1 0
-8.50889e-15 1 0
-4.86474e-15 1 0
2.04584e-15 1 0
-8.06044e-15 1 0
-6.52062e-15 1 0
1.34516e-14 1 0
1.18939e-14 1 0
-6.52062e-15 1 0
-8.50324e-15 1 0
1.18939e-14 1 0
3.93375e-15 1 0
-8.50889e-15 1 0
-1.49014e-14 1 0
2.04584e-15 1 0
1.23176e-14 1 0
-1.49014e-14 1 0
-4.86769e-15 1 0
1.23176e-14 1 0
4.85168e-15 1 0
-2.24384e-15 1 0
-3.18392e-14 1 0
6.40199e-15 1 0
2.96309e-14 1 0
-3.18392e-14 1 0
1.03274e-14 1 0
2.96309e-14 1 0
4.83182e-15 1 0
-1.06116e-14 1 0
-1.42533e-14 1 0
1.99589e-14 1 0
1.33724e-14 1 0
-1.42533e-14 1 0
-5.38129e-15 1 0
1.33724e-14 1 0
4.11035e-15 1 0
1.03274e-14 1 0
-3.90233e-16 1 0
4.83182e-15 1 0
5.07068e-16 1 0
-3.90233e-16 1 0
-6.60167e-16 1 0
5.07068e-16 1 0
1.42683e-16 1 0
-5.38129e-15 1 0
2.64957e-16 1 0
4.11035e-15 1 0
1.10488e-14 1 0
2.64957e-16 1 0
-3.65617e-15 1 0
1.10488e-14 1 0
1.54543e-14 1 0
-8.50324e-15 1 0
-7.74943e-15 1 0
3.93375e-15 1 0
1.25373e-14 1 0
-7.74943e-15 1 0
-2.22599e-16 1 0
1.25373e-14 1 0
6.24999e-16 1 0
-4.86769e-15 1 0
-1.95322e-14 1 0
4.85168e-15 1 0
1.8482e-14 1 0
-1.95322e-14 1 0
-2.84922e-15 1 0
1.8482e-14 1 0
6.88296e-15 1 0
-2.22599e-16 1 0
-4.4258e-15 1 0
6.24999e-16 1 0
5.4929e-15 1 0
-4.4258e-15 1 0
-3.71433e-15 1 0
5.4929e-15 1 0
-1.37701e-15 1 0
-2.84922e-15 1 0
-1.11226e-14 1 0
6.88296e-15 1 0
8.88448e-15 1 0
-1.11226e-14 1 0
1.3063e-14 1 0
8.88448e-15 1 0
-1.2616e-14 1 0
-1.55803e-14 1 0
-9.32153e-15 1 0
2.36654e-14 1 0
1.44489e-14 1 0
-9.32153e-15 1 0
-2.49594e-15 1 0
1.44489e-14 1 0
3.88981e-15 1 0
-3.81262e-14 1 0
-3.22806e-14 1 0
2.29114e-14 1 0
1.5674e-14 1 0
-3.22806e-14 1 0
-1.20012e-14 1 0
1.5674e-14 1 0
3.90872e-15 1 0
-2.49594e-15 1 0
-1.80429e-14 1 0
3.88981e-15 1 0
1.87337e-14 1 0
-1.80429e-14 1 0
-1.79245e-14 1 0
1.87337e-14 1 0
2.36008e-14 1 0
-1.20012e-14 1 0
-2.85144e-14 1 0
3.90872e-15 1 0
3.47844e-14 1 0
-2.85144e-14 1 0
-4.01565e-14 1 0
3.47844e-14 1 0
4.1104e-14 1 0
-2.96465e-14 1 0
-3.29807e-14 1 0
2.29215e-14 1 0
3.3861e-14 1 0
-3.29807e-14 1 0
-3.50048e-14 1 0
3.3861e-14 1 0
3.02772e-14 1 0
-1.81246e-14 1 0
-7.22943e-15 1 0
2.99471e-14 1 0
1.64629e-14 1 0
-7.22943e-15 1 0
-6.25331e-15 1 0
1.64629e-14 1 0
1.09272e-14 1 0
-3.50048e-14 1 0
-4.01116e-14 1 0
3.02772e-14 1 0
1.61747e-14 1 0
-4.01116e-14 1 0
-3.07348e-14 1 0
1.61747e-14 1 0
2.457e-14 1 0
-6.25331e-15 1 0
6.42028e-15 1 0
1.09272e-14 1 0
8.42212e-15 1 0
6.42028e-15 1 0
-1.57398e-14 1 0
8.42212e-15 1 0
1.85824e-14 1 0
-1.79245e-14 1 0
5.50762e-16 1 0
2.36008e-14 1 0
-1.1122e-14 1 0
5.50762e-16 1 0
2.91842e-14 1 0
-1.1122e-14 1 0
-2.22233e-14 1 0
-4.01565e-14 1 0
1.39188e-14 1 0
4.1104e-14 1 0
-1.42998e-14 1 0
1.39188e-14 1 0
9.44935e-15 1 0
-1.42998e-14 1 0
-6.85479e-15 1 0
2.91842e-14 1 0
3.41556e-14 1 0
-2.22233e-14 1 0
-2.97853e-14 1 0
3.41556e-14 1 0
2.85474e-14 1 0
-2.97853e-14 1 0
-3.03844e-14 1 0
9.44935e-15 1 0
2.79676e-14 1 0
-6.85479e-15 1 0
-1.97996e-14 1 0
2.79676e-14 1 0
3.5193e-14 1 0
-1.97996e-14 1 0
-2.29484e-14 1 0
-3.07348e-14 1 0
8.20775e-16 1 0
2.457e-14 1 0
1.92996e-14 1 0
8.20775e-16 1 0
1.52622e-14 1 0
1.92996e-14 1 0
-1.29978e-14 1 0
-1.57398e-14 1 0
-1.38587e-14 1 0
1.85824e-14 1 0
1.07712e-14 1 0
-1.38587e-14 1 0
5.36914e-15 1 0
1.07712e-14 1 0
1.06859e-14 1 0
1.52622e-14 1 0
1.41615e-14 1 0
-1.29978e-14 1 0
1.00443e-14 1 0
1.41615e-14 1 0
2.93745e-14 1 0
1.00443e-14 1 0
-1.23509e-14 1 0
5.36914e-15 1 0
-3.85793e-14 1 0
1.06859e-14 1 0
2.85799e-14 1 0
-3.85793e-14 1 0
-2.75124e-14 1 0
2.85799e-14 1 0
2.9317e-14 1 0
-5.5963e-15 1 0
5.0427e-15 1 0
1.51113e-14 1 0
-1.38143e-14 1 0
5.0427e-15 1 0
-1.4395e-15 1 0
-1.38143e-14 1 0
7.13205e-15 1 0
1.37696e-15 1 0
2.29652e-14 1 0
-2.19709e-15 1 0
1.54077e-15 1 0
2.29652e-14 1 0
1.74901e-14 1 0
1.54077e-15 1 0
-5.80437e-15 1 0
-1.4395e-15 1 0
4.62376e-16 1 0
7.13205e-15 1 0
-7.01144e-15 1 0
4.62376e-16 1 0
-9.83766e-15 1 0
-7.01144e-15 1 0
2.34502e-14 1 0
1.74901e-14 1 0
3.23682e-14 1 0
-5.80437e-15 1 0
-7.32922e-15 1 0
3.23682e-14 1 0
-1.5144e-14 1 0
-7.32922e-15 1 0
2.8001e-14 1 0
7.51922e-15 1 0
1.12448e-14 1 0
6.73394e-15 1 0
-7.07419e-15 1 0
1.12448e-14 1 0
1.76034e-14 1 0
-7.07419e-15 1 0
-4.23676e-15 1 0
8.04261e-15 1 0
2.15017e-14 1 0
-7.74021e-15 1 0
-1.50719e-14 1 0
2.15017e-14 1 0
1.37075e-14 1 0
-1.50719e-14 1 0
-4.95043e-15 1 0
1.76034e-14 1 0
1.5238e-14 1 0
-4.23676e-15 1 0
-4.46641e-15 1 0
1.5238e-14 1 0
-1.01908e-14 1 0
-4.46641e-15 1 0
3.01893e-14 1 0
1.37075e-14 1 0
1.50951e-14 1 0
-4.95043e-15 1 0
-5.34945e-15 1 0
1.50951e-14 1 0
-1.96076e-14 1 0
-5.34945e-15 1 0
1.48362e-14 1 0
-9.83766e-15 1 0
-7.6263e-16 1 0
2.34502e-14 1 0
1.79292e-14 1 0
-7.6263e-16 1 0
-2.73293e-16 1 0
1.79292e-14 1 0
-7.52533e-15 1 0
-1.5144e-14 1 0
-1.15109e-14 1 0
2.8001e-14 1 0
1.97221e-14 1 0
-1.15109e-14 1 0
1.97811e-14 1 0
1.97221e-14 1 0
-5.12906e-15 1 0
-2.73293e-16 1 0
1.19014e-14 1 0
-7.52533e-15 1 0
-1.72275e-14 1 0
1.19014e-14 1 0
1.1523e-14 1 0
-1.72275e-14 1 0
-2.49788e-14 1 0
1.97811e-14 1 0