# vtk DataFile Version 3.0
#This file was generated by the deal.II library on 2018/10/14 at 22:30:58
ASCII
DATASET UNSTRUCTURED_GRID

POINTS 81920 double
0 0 0
0.0981748 0 0
0 0.156259 0
0.0981619 0.156259 0
0.0981748 0 0
0.19635 0 0
0.0981619 0.156259 0
0.196324 0.156259 0
0 0.156259 0
0.0981619 0.156259 0
0 0.312538 0
0.0981497 0.312538 0
0.0981619 0.156259 0
0.196324 0.156259 0
0.0981497 0.312538 0
0.196299 0.312538 0
0.19635 0 0
0.294524 0 0
0.196324 0.156259 0
0.294486 0.156259 0
0.294524 0 0
0.392699 0 0
0.294486 0.156259 0
0.392648 0.156259 0
0.196324 0.156259 0
0.294486 0.156259 0
0.196299 0.312538 0
0.294449 0.312538 0
0.294486 0.156259 0
0.392648 0.156259 0
0.294449 0.312538 0
0.392599 0.312538 0
0 0.312538 0
0.0981497 0.312538 0
0 0.468837 0
0.0981382 0.468837 0
0.0981497 0.312538 0
0.196299 0.312538 0
0.0981382 0.468837 0
0.196276 0.468837 0
0 0.468837 0
0.0981382 0.468837 0
0 0.625153 0
0.0981272 0.625153 0
0.0981382 0.468837 0
0.196276 0.468837 0
0.0981272 0.625153 0
0.196254 0.625153 0
0.196299 0.312538 0
0.294449 0.312538 0
0.196276 0.468837 0
0.294415 0.468837 0
0.294449 0.312538 0
0.392599 0.312538 0
0.294415 0.468837 0
0.392553 0.468836 0
0.196276 0.468837 0
0.294415 0.468837 0
0.196254 0.625153 0
0.294382 0.625153 0
0.294415 0.468837 0
0.392553 0.468836 0
0.294382 0.625153 0
0.392509 0.625153 0
0.392699 0 0
0.490874 0 0
0.392648 0.156259 0
0.49081 0.156259 0
0.490874 0 0
0.589049 0 0
0.49081 0.156259 0
0.588972 0.156259 0
0.392648 0.156259 0
0.49081 0.156259 0
0.392599 0.312538 0
0.490749 0.312538 0
0.49081 0.156259 0
0.588972 0.156259 0
0.490749 0.312538 0
0.588899 0.312538 0
0.589049 0 0
0.687223 0 0
0.588972 0.156259 0
0.687134 0.156259 0
0.687223 0 0
0.785398 0 0
0.687134 0.156259 0
0.785296 0.156259 0
0.588972 0.156259 0
0.687134 0.156259 0
0.588899 0.312538 0
0.687049 0.312538 0
0.687134 0.156259 0
0.785296 0.156259 0
0.687049 0.312538 0
0.785199 0.312537 0
0.392599 0.312538 0
0.490749 0.312538 0
0.392553 0.468836 0
0.490691 0.468836 0
0.490749 0.312538 0
0.588899 0.312538 0
0.490691 0.468836 0
0.58883 0.468836 0
0.392553 0.468836 0
0.490691 0.468836 0
0.392509 0.625153 0
0.490637 0.625152 0
0.490691 0.468836 0
0.58883 0.468836 0
0.490637 0.625152 0
0.588765 0.625151 0
0.588899 0.312538 0
0.687049 0.312538 0
0.58883 0.468836 0
0.686969 0.468835 0
0.687049 0.312538 0
0.785199 0.312537 0
0.686969 0.468835 0
0.785108 0.468835 0
0.58883 0.468836 0
0.686969 0.468835 0
0.588765 0.625151 0
0.686893 0.625151 0
0.686969 0.468835 0
0.785108 0.468835 0
0.686893 0.625151 0
0.785021 0.62515 0
0 0.625153 0
0.0981272 0.625153 0
0 0.781487 0
0.0981168 0.781487 0
0.0981272 0.625153 0
0.196254 0.625153 0
0.0981168 0.781487 0
0.196234 0.781486 0
0 0.781487 0
0.0981168 0.781487 0
0 0.937836 0
0.098107 0.937836 0
0.0981168 0.781487 0
0.196234 0.781486 0
0.098107 0.937836 0
0.196214 0.937836 0
0.196254 0.625153 0
0.294382 0.625153 0
0.196234 0.781486 0
0.294351 0.781486 0
0.294382 0.625153 0
0.392509 0.625153 0
0.294351 0.781486 0
0.392468 0.781485 0
0.196234 0.781486 0
0.294351 0.781486 0
0.196214 0.937836 0
0.294321 0.937835 0
0.294351 0.781486 0
0.392468 0.781485 0
0.294321 0.937835 0
0.392428 0.937834 0
0 0.937836 0
0.098107 0.937836 0
0 1.0942 0
0.0980976 1.0942 0
0.098107 0.937836 0
0.196214 0.937836 0
0.0980976 1.0942 0
0.196195 1.0942 0
0 1.0942 0
0.0980976 1.0942 0
0 1.25058 0
0.0980886 1.25058 0
0.0980976 1.0942 0
0.196195 1.0942 0
0.0980886 1.25058 0
0.196177 1.25058 0
0.196214 0.937836 0
0.294321 0.937835 0
0.196195 1.0942 0
0.294293 1.0942 0
0.294321 0.937835 0
0.392428 0.937834 0
0.294293 1.0942 0
0.392391 1.0942 0
0.196195 1.0942 0
0.294293 1.0942 0
0.196177 1.25058 0
0.294266 1.25058 0
0.294293 1.0942 0
0.392391 1.0942 0
0.294266 1.25058 0
0.392355 1.25058 0
0.392509 0.625153 0
0.490637 0.625152 0
0.392468 0.781485 0
0.490585 0.781485 0
0.490637 0.625152 0
0.588765 0.625151 0
0.490585 0.781485 0
0.588703 0.781484 0
0.392468 0.781485 0
0.490585 0.781485 0
0.392428 0.937834 0
0.490536 0.937833 0
0.490585 0.781485 0
0.588703 0.781484 0
0.490536 0.937833 0
0.588644 0.937832 0
0.588765 0.625151 0
0.686893 0.625151 0
0.588703 0.781484 0
0.68682 0.781482 0
0.686893 0.625151 0
0.785021 0.62515 0
0.68682 0.781482 0
0.784938 0.781481 0
0.588703 0.781484 0
0.68682 0.781482 0
0.588644 0.937832 0
0.686752 0.93783 0
0.68682 0.781482 0
0.784938 0.781481 0
0.686752 0.93783 0
0.78486 0.937828 0
0.392428 0.937834 0
0.490536 0.937833 0
0.392391 1.0942 0
0.490489 1.0942 0
0.490536 0.937833 0
0.588644 0.937832 0
0.490489 1.0942 0
0.588587 1.09419 0
0.392391 1.0942 0
0.490489 1.0942 0
0.392355 1.25058 0
0.490444 1.25057 0
0.490489 1.0942 0
0.588587 1.09419 0
0.490444 1.25057 0
0.588534 1.25057 0
0.588644 0.937832 0
0.686752 0.93783 0
0.588587 1.09419 0
0.686686 1.09419 0
0.686752 0.93783 0
0.78486 0.937828 0
0.686686 1.09419 0
0.784785 1.09419 0
0.588587 1.09419 0
0.686686 1.09419 0
0.588534 1.25057 0
0.686624 1.25057 0
0.686686 1.09419 0
0.784785 1.09419 0
0.686624 1.25057 0
0.784714 1.25057 0
0.785398 0 0
0.883573 0 0
0.785296 0.156259 0
0.883458 0.156258 0
0.883573 0 0
0.981748 0 0
0.883458 0.156258 0
0.981621 0.156258 0
0.785296 0.156259 0
0.883458 0.156258 0
0.785199 0.312537 0
0.88335 0.312537 0
0.883458 0.156258 0
0.981621 0.156258 0
0.88335 0.312537 0
0.9815 0.312537 0
0.981748 0 0
1.07992 0 0
0.981621 0.156258 0
1.07978 0.156258 0
1.07992 0 0
1.1781 0 0
1.07978 0.156258 0
1.17795 0.156258 0
0.981621 0.156258 0
1.07978 0.156258 0
0.9815 0.312537 0
1.07965 0.312537 0
1.07978 0.156258 0
1.17795 0.156258 0
1.07965 0.312537 0
1.1778 0.312536 0
0.785199 0.312537 0
0.88335 0.312537 0
0.785108 0.468835 0
0.883247 0.468834 0
0.88335 0.312537 0
0.9815 0.312537 0
0.883247 0.468834 0
0.981386 0.468834 0
0.785108 0.468835 0
0.883247 0.468834 0
0.785021 0.62515 0
0.883149 0.625149 0
0.883247 0.468834 0
0.981386 0.468834 0
0.883149 0.625149 0
0.981278 0.625147 0
0.9815 0.312537 0
1.07965 0.312537 0
0.981386 0.468834 0
1.07953 0.468833 0
1.07965 0.312537 0
1.1778 0.312536 0
1.07953 0.468833 0
1.17767 0.468832 0
0.981386 0.468834 0
1.07953 0.468833 0
0.981278 0.625147 0
1.07941 0.625146 0
1.07953 0.468833 0
1.17767 0.468832 0
1.07941 0.625146 0
1.17754 0.625145 0
1.1781 0 0
1.27627 0 0
1.17795 0.156258 0
1.27611 0.156258 0
1.27627 0 0
1.37445 0 0
1.27611 0.156258 0
1.37427 0.156258 0
1.17795 0.156258 0
1.27611 0.156258 0
1.1778 0.312536 0
1.27595 0.312536 0
1.27611 0.156258 0
1.37427 0.156258 0
1.27595 0.312536 0
1.3741 0.312535 0
1.37445 0 0
1.47262 0 0
1.37427 0.156258 0
1.47243 0.156258 0
1.47262 0 0
1.5708 0 0
1.47243 0.156258 0
1.5706 0.156258 0
1.37427 0.156258 0
1.47243 0.156258 0
1.3741 0.312535 0
1.47226 0.312535 0
1.47243 0.156258 0
1.5706 0.156258 0
1.47226 0.312535 0
1.57041 0.312535 0
1.1778 0.312536 0
1.27595 0.312536 0
1.17767 0.468832 0
1.27581 0.468831 0
1.27595 0.312536 0
1.3741 0.312535 0
1.27581 0.468831 0
1.37395 0.46883 0
1.17767 0.468832 0
1.27581 0.468831 0
1.17754 0.625145 0
1.27567 0.625143 0
1.27581 0.468831 0
1.37395 0.46883 0
1.27567 0.625143 0
1.3738 0.625142 0
1.3741 0.312535 0
1.47226 0.312535 0
1.37395 0.46883 0
1.47209 0.468829 0
1.47226 0.312535 0
1.57041 0.312535 0
1.47209 0.468829 0
1.57023 0.468828 0
1.37395 0.46883 0
1.47209 0.468829 0
1.3738 0.625142 0
1.47193 0.62514 0
1.47209 0.468829 0
1.57023 0.468828 0
1.47193 0.62514 0
1.57006 0.625138 0
0.785021 0.62515 0
0.883149 0.625149 0
0.784938 0.781481 0
0.883057 0.781479 0
0.883149 0.625149 0
0.981278 0.625147 0
0.883057 0.781479 0
0.981176 0.781478 0
0.784938 0.781481 0
0.883057 0.781479 0
0.78486 0.937828 0
0.882969 0.937826 0
0.883057 0.781479 0
0.981176 0.781478 0
0.882969 0.937826 0
0.981078 0.937823 0
0.981278 0.625147 0
1.07941 0.625146 0
0.981176 0.781478 0
1.07929 0.781476 0
1.07941 0.625146 0
1.17754 0.625145 0
1.07929 0.781476 0
1.17741 0.781474 0
0.981176 0.781478 0
1.07929 0.781476 0
0.981078 0.937823 0
1.07919 0.937821 0
1.07929 0.781476 0
1.17741 0.781474 0
1.07919 0.937821 0
1.1773 0.937818 0
0.78486 0.937828 0
0.882969 0.937826 0
0.784785 1.09419 0
0.882885 1.09419 0
0.882969 0.937826 0
0.981078 0.937823 0
0.882885 1.09419 0
0.980985 1.09418 0
0.784785 1.09419 0
0.882885 1.09419 0
0.784714 1.25057 0
0.882805 1.25056 0
0.882885 1.09419 0
0.980985 1.09418 0
0.882805 1.25056 0
0.980897 1.25056 0
0.981078 0.937823 0
1.07919 0.937821 0
0.980985 1.09418 0
1.07909 1.09418 0
1.07919 0.937821 0
1.1773 0.937818 0
1.07909 1.09418 0
1.17719 1.09418 0
0.980985 1.09418 0
1.07909 1.09418 0
0.980897 1.25056 0
1.07899 1.25055 0
1.07909 1.09418 0
1.17719 1.09418 0
1.07899 1.25055 0
1.17708 1.25055 0
1.17754 0.625145 0
1.27567 0.625143 0
1.17741 0.781474 0
1.27553 0.781471 0
1.27567 0.625143 0
1.3738 0.625142 0
1.27553 0.781471 0
1.37366 0.781469 0
1.17741 0.781474 0
1.27553 0.781471 0
1.1773 0.937818 0
1.27541 0.937815 0
1.27553 0.781471 0
1.37366 0.781469 0
1.27541 0.937815 0
1.37352 0.937811 0
1.3738 0.625142 0
1.47193 0.62514 0
1.37366 0.781469 0
1.47178 0.781467 0
1.47193 0.62514 0
1.57006 0.625138 0
1.47178 0.781467 0
1.5699 0.781464 0
1.37366 0.781469 0
1.47178 0.781467 0
1.37352 0.937811 0
1.47163 0.937808 0
1.47178 0.781467 0
1.5699 0.781464 0
1.47163 0.937808 0
1.56975 0.937804 0
1.1773 0.937818 0
1.27541 0.937815 0
1.17719 1.09418 0
1.27529 1.09417 0
1.27541 0.937815 0
1.37352 0.937811 0
1.27529 1.09417 0
1.37339 1.09417 0
1.17719 1.09418 0
1.27529 1.09417 0
1.17708 1.25055 0
1.27518 1.25054 0
1.27529 1.09417 0
1.37339 1.09417 0
1.27518 1.25054 0
1.37327 1.25054 0
1.37352 0.937811 0
1.47163 0.937808 0
1.37339 1.09417 0
1.4715 1.09416 0
1.47163 0.937808 0
1.56975 0.937804 0
1.4715 1.09416 0
1.5696 1.09416 0
1.37339 1.09417 0
1.4715 1.09416 0
1.37327 1.25054 0
1.47136 1.25053 0
1.4715 1.09416 0
1.5696 1.09416 0
1.47136 1.25053 0
1.56946 1.25052 0
0 1.25058 0
0.0980886 1.25058 0
0 1.40697 0
0.0980801 1.40697 0
0.0980886 1.25058 0
0.196177 1.25058 0
0.0980801 1.40697 0
0.19616 1.40697 0
0 1.40697 0
0.0980801 1.40697 0
0 1.56338 0
0.0980719 1.56338 0
0.0980801 1.40697 0
0.19616 1.40697 0
0.0980719 1.56338 0
0.196144 1.56338 0
[...]
POINT_DATA 81920
SCALARS phi double 1
LOOKUP_TABLE default
0.65958 0.65958 0.660274 0.660274 0.65958 0.659579 0.660274 0.660273 0.660274 0.660274 0.660968 0.660967 0.660274 0.660273 0.660967 0.660967 0.659579 0.659578 0.660273 0.660272 0.659578 0.659577 0.660272 0.660271 0.660273 0.660272 0.660967 0.660966 0.660272 0.660271 0.660966 0.660965 0.660968 0.660967 0.661659 0.661659 0.660967 0.660967 0.661659 0.661658 0.661659 0.661659 0.662348 0.662348 0.661659 0.661658 0.662348 0.662347 0.660967 0.660966 0.661658 0.661657 0.660966 0.660965 0.661657 0.661656 0.661658 0.661657 0.662347 0.662347 0.661657 0.661656 0.662347 0.662345 0.659577 0.659575 0.660271 0.660269 0.659575 0.659573 0.660269 0.660267 0.660271 0.660269 0.660965 0.660963 0.660269 0.660267 0.660963 0.660961 0.659573 0.659571 0.660267 0.660265 0.659571 0.659568 0.660265 0.660262 0.660267 0.660265 0.660961 0.660959 0.660265 0.660262 0.660959 0.660957 0.660965 0.660963 0.661656 0.661655 0.660963 0.660961 0.661655 0.661653 0.661656 0.661655 0.662345 0.662344 0.661655 0.661653 0.662344 0.662342 0.660961 0.660959 0.661653 0.661651 0.660959 0.660957 0.661651 0.661648 0.661653 0.661651 0.662342 0.66234 0.661651 0.661648 0.66234 0.662338 0.662348 0.662348 0.663035 0.663035 0.662348 0.662347 0.663035 0.663034 0.663035 0.663035 0.66372 0.66372 0.663035 0.663034 0.66372 0.663719 0.662347 0.662347 0.663034 0.663034 0.662347 0.662345 0.663034 0.663033 0.663034 0.663034 0.663719 0.663719 0.663034 0.663033 0.663719 0.663718 0.66372 0.66372 0.664403 0.664403 0.66372 0.663719 0.664403 0.664402 0.664403 0.664403 0.665084 0.665083 0.664403 0.664402 0.665083 0.665083 0.663719 0.663719 0.664402 0.664401 0.663719 0.663718 0.664401 0.664401 0.664402 0.664401 0.665083 0.665082 0.664401 0.664401 0.665082 0.665082 0.662345 0.662344 0.663033 0.663031 0.662344 0.662342 0.663031 0.66303 0.663033 0.663031 0.663718 0.663716 0.663031 0.66303 0.663716 0.663715 0.662342 0.66234 0.66303 0.663028 0.66234 0.662338 0.663028 0.663025 0.66303 0.663028 0.663715 0.663713 0.663028 0.663025 0.663713 0.663711 0.663718 0.663716 0.664401 0.664399 0.663716 0.663715 0.664399 0.664398 0.664401 0.664399 0.665082 0.66508 0.664399 0.664398 0.66508 0.665079 0.663715 0.663713 0.664398 0.664396 0.663713 0.663711 0.664396 0.664394 0.664398 0.664396 0.665079 0.665077 0.664396 0.664394 0.665077 0.665075 0.659568 0.659564 0.660262 0.660259 0.659564 0.659561 0.660259 0.660256 0.660262 0.660259 0.660957 0.660954 0.660259 0.660256 0.660954 0.66095 0.659561 0.659557 0.660256 0.660252 0.659557 0.659553 0.660252 0.660248 0.660256 0.660252 0.66095 0.660947 0.660252 0.660248 0.660947 0.660943 0.660957 0.660954 0.661648 0.661646 0.660954 0.66095 0.661646 0.661642 0.661648 0.661646 0.662338 0.662335 0.661646 0.661642 0.662335 0.662332 0.66095 0.660947 0.661642 0.661639 0.660947 0.660943 0.661639 0.661635 0.661642 0.661639 0.662332 0.662329 0.661639 0.661635 0.662329 0.662326 0.659553 0.659548 0.660248 0.660244 0.659548 0.659543 0.660244 0.660239 0.660248 0.660244 0.660943 0.660939 0.660244 0.660239 0.660939 0.660934 0.659543 0.659538 0.660239 0.660234 0.659538 0.659532 0.660234 0.660228 0.660239 0.660234 0.660934 0.660929 0.660234 0.660228 0.660929 0.660924 0.660943 0.660939 0.661635 0.661631 0.660939 0.660934 0.661631 0.661627 0.661635 0.661631 0.662326 0.662322 0.661631 0.661627 0.662322 0.662318 0.660934 0.660929 0.661627 0.661622 0.660929 0.660924 0.661622 0.661618 0.661627 0.661622 0.662318 0.662313 0.661622 0.661618 0.662313 0.662309 0.662338 0.662335 0.663025 0.663023 0.662335 0.662332 0.663023 0.66302 0.663025 0.663023 0.663711 0.663708 0.663023 0.66302 0.663708 0.663706 0.662332 0.662329 0.66302 0.663017 0.662329 0.662326 0.663017 0.663014 0.66302 0.663017 0.663706 0.663703 0.663017 0.663014 0.663703 0.6637 0.663711 0.663708 0.664394 0.664392 0.663708 0.663706 0.664392 0.664389 0.664394 0.664392 0.665075 0.665073 0.664392 0.664389 0.665073 0.665071 0.663706 0.663703 0.664389 0.664387 0.663703 0.6637 0.664387 0.664383 0.664389 0.664387 0.665071 0.665068 0.664387 0.664383 0.665068 0.665065 0.662326 0.662322 0.663014 0.66301 0.662322 0.662318 0.66301 0.663006 0.663014 0.66301 0.6637 0.663696 0.66301 0.663006 0.663696 0.663692 0.662318 0.662313 0.663006 0.663002 0.662313 0.662309 0.663002 0.662998 0.663006 0.663002 0.663692 0.663688 0.663002 0.662998 0.663688 0.663684 0.6637 0.663696 0.664383 0.66438 0.663696 0.663692 0.66438 0.664377 0.664383 0.66438 0.665065 0.665062 0.66438 0.664377 0.665062 0.665059 0.663692 0.663688 0.664377 0.664373 0.663688 0.663684 0.664373 0.664369 0.664377 0.664373 0.665059 0.665055 0.664373 0.664369 0.665055 0.665051 0.665084 0.665083 0.665762 0.665762 0.665083 0.665083 0.665762 0.665762 0.665762 0.665762 0.666439 0.666439 0.665762 0.665762 0.666439 0.666439 0.665083 0.665082 0.665762 0.665761 0.665082 0.665082 0.665761 0.66576 0.665762 0.665761 0.666439 0.666438 0.665761 0.66576 0.666438 0.666437 0.666439 0.666439 0.667114 0.667114 0.666439 0.666439 0.667114 0.667114 0.667114 0.667114 0.667787 0.667787 0.667114 0.667114 0.667787 0.667787 0.666439 0.666438 0.667114 0.667113 0.666438 0.666437 0.667113 0.667112 0.667114 0.667113 0.667787 0.667786 0.667113 0.667112 0.667786 0.667786 0.665082 0.66508 0.66576 0.665759 0.66508 0.665079 0.665759 0.665758 0.66576 0.665759 0.666437 0.666436 0.665759 0.665758 0.666436 0.666435 0.665079 0.665077 0.665758 0.665756 0.665077 0.665075 0.665756 0.665755 0.665758 0.665756 0.666435 0.666434 0.665756 0.665755 0.666434 0.666432 0.666437 0.666436 0.667112 0.667112 0.666436 0.666435 0.667112 0.66711 0.667112 0.667112 0.667786 0.667785 0.667112 0.66711 0.667785 0.667784 0.666435 0.666434 0.66711 0.667109 0.666434 0.666432 0.667109 0.667107 0.66711 0.667109 0.667784 0.667782 0.667109 0.667107 0.667782 0.667781 0.667787 0.667787 0.668459 0.668459 0.667787 0.667787 0.668459 0.668458 0.668459 0.668459 0.669129 0.669128 0.668459 0.668458 0.669128 0.669128 0.667787 0.667786 0.668458 0.668458 0.667786 0.667786 0.668458 0.668457 0.668458 0.668458 0.669128 0.669128 0.668458 0.668457 0.669128 0.669127 0.669129 0.669128 0.669797 0.669797 0.669128 0.669128 0.669797 0.669796 0.669797 0.669797 0.670463 0.670463 0.669797 0.669796 0.670463 0.670463 0.669128 0.669128 0.669796 0.669796 0.669128 0.669127 0.669796 0.669795 0.669796 0.669796 0.670463 0.670463 0.669796 0.669795 0.670463 0.670462 0.667786 0.667785 0.668457 0.668456 0.667785 0.667784 0.668456 0.668455 0.668457 0.668456 0.669127 0.669126 0.668456 0.668455 0.669126 0.669125 0.667784 0.667782 0.668455 0.668454 0.667782 0.667781 0.668454 0.668452 0.668455 0.668454 0.669125 0.669124 0.668454 0.668452 0.669124 0.669122 0.669127 0.669126 0.669795 0.669794 0.669126 0.669125 0.669794 0.669793 0.669795 0.669794 0.670462 0.670461 0.669794 0.669793 0.670461 0.67046 0.669125 0.669124 0.669793 0.669792 0.669124 0.669122 0.669792 0.669791 0.669793 0.669792 0.67046 0.670459 0.669792 0.669791 0.670459 0.670458 0.665075 0.665073 0.665755 0.665752 0.665073 0.665071 0.665752 0.66575 0.665755 0.665752 0.666432 0.66643 0.665752 0.66575 0.66643 0.666428 0.665071 0.665068 0.66575 0.665748 0.665068 0.665065 0.665748 0.665745 0.66575 0.665748 0.666428 0.666425 0.665748 0.665745 0.666425 0.666423 0.666432 0.66643 0.667107 0.667105 0.66643 0.666428 0.667105 0.667103 0.667107 0.667105 0.667781 0.667779 0.667105 0.667103 0.667779 0.667777 0.666428 0.666425 0.667103 0.667101 0.666425 0.666423 0.667101 0.667098 0.667103 0.667101 0.667777 0.667775 0.667101 0.667098 0.667775 0.667772 0.665065 0.665062 0.665745 0.665742 0.665062 0.665059 0.665742 0.665739 0.665745 0.665742 0.666423 0.66642 0.665742 0.665739 0.66642 0.666417 0.665059 0.665055 0.665739 0.665735 0.665055 0.665051 0.665735 0.665731 0.665739 0.665735 0.666417 0.666413 0.665735 0.665731 0.666413 0.66641 0.666423 0.66642 0.667098 0.667096 0.66642 0.666417 0.667096 0.667093 0.667098 0.667096 0.667772 0.66777 0.667096 0.667093 0.66777 0.667767 0.666417 0.666413 0.667093 0.66709 0.666413 0.66641 0.66709 0.667086 0.667093 0.66709 0.667767 0.667764 0.66709 0.667086 0.667764 0.667761 0.667781 0.667779 0.668452 0.668451 0.667779 0.667777 0.668451 0.668449 0.668452 0.668451 0.669122 0.669121 0.668451 0.668449 0.669121 0.669119 0.667777 0.667775 0.668449 0.668447 0.667775 0.667772 0.668447 0.668444 0.668449 0.668447 0.669119 0.669117 0.668447 0.668444 0.669117 0.669115 0.669122 0.669121 0.669791 0.669789 0.669121 0.669119 0.669789 0.669787 0.669791 0.669789 0.670458 0.670456 0.669789 0.669787 0.670456 0.670454 0.669119 0.669117 0.669787 0.669785 0.669117 0.669115 0.669785 0.669783 0.669787 0.669785 0.670454 0.670453 0.669785 0.669783 0.670453 0.670451 0.667772 0.66777 0.668444 0.668442 0.66777 0.667767 0.668442 0.668439 0.668444 0.668442 0.669115 0.669112 0.668442 0.668439 0.669112 0.66911 0.667767 0.667764 0.668439 0.668436 0.667764 0.667761 0.668436 0.668433 0.668439 0.668436 0.66911 0.669107 0.668436 0.668433 0.669107 0.669104 0.669115 0.669112 0.669783 0.669781 0.669112 0.66911 0.669781 0.669779 0.669783 0.669781 0.670451 0.670448 0.669781 0.669779 0.670448 0.670446 0.66911 0.669107 0.669779 0.669776 0.669107 0.669104 0.669776 0.669773 0.669779 0.669776 0.670446 0.670444 0.669776 0.669773 0.670444 0.670441 0.659532 0.659526 0.660228 0.660223 0.659526 0.65952 0.660223 0.660217 0.660228 0.660223 0.660924 0.660919 0.660223 0.660217 0.660919 0.660913 0.65952 0.659513 0.660217 0.66021 0.659513 0.659506 0.66021 0.660204 0.660217 0.66021 0.660913 0.660907 0.66021 0.660204 0.660907 0.660901 0.660924 0.660919 0.661618 0.661612 0.660919 0.660913 0.661612 0.661607 0.661618 0.661612 0.662309 0.662304 0.661612 0.661607 0.662304 0.662299 0.660913 0.660907 0.661607 0.661601 0.660907 0.660901 0.661601 0.661595 0.661607 0.661601 0.662299 0.662293 0.661601 0.661595 0.662293 0.662287 0.659506 0.659499 0.660204 0.660197 0.659499 0.659491 0.660197 0.660189 0.660204 0.660197 0.660901 0.660894 0.660197 0.660189 0.660894 0.660887 0.659491 0.659483 0.660189 0.660182 0.659483 0.659475 0.660182 0.660174 0.660189 0.660182 0.660887 0.66088 0.660182 0.660174 0.66088 0.660873 0.660901 0.660894 0.661595 0.661589 0.660894 0.660887 0.661589 0.661582 0.661595 0.661589 0.662287 0.662281 0.661589 0.661582 0.662281 0.662275 0.660887 0.66088 0.661582 0.661575 0.66088 0.660873 0.661575 0.661568 0.661582 0.661575 0.662275 0.662269 0.661575 0.661568 0.662269 0.662262 0.662309 0.662304 0.662998 0.662993 0.662304 0.662299 0.662993 0.662988 0.662998 0.662993 0.663684 0.66368 0.662993 0.662988 0.66368 0.663675 0.662299 0.662293 0.662988 0.662983 0.662293 0.662287 0.662983 0.662977 0.662988 0.662983 0.663675 0.66367 0.662983 0.662977 0.66367 0.663665 0.663684 0.66368 0.664369 0.664365 0.66368 0.663675 0.664365 0.66436 0.664369 0.664365 0.665051 0.665047 0.664365 0.66436 0.665047 0.665043 0.663675 0.66367 0.66436 0.664355 0.66367 0.663665 0.664355 0.66435 0.66436 0.664355 0.665043 0.665038 0.664355 0.66435 0.665038 0.665034 0.662287 0.662281 0.662977 0.662971 0.662281 0.662275 0.662971 0.662966 0.662977 0.662971 0.663665 0.663659 0.662971 0.662966 0.663659 0.663654 0.662275 0.662269 0.662966 0.662959 0.662269 0.662262 0.662959 0.662953 0.662966 0.662959 0.663654 0.663648 0.662959 0.662953 0.663648 0.663642 0.663665 0.663659 0.66435 0.664345 0.663659 0.663654 0.664345 0.66434 0.66435 0.664345 0.665034 0.665029 0.664345 0.66434 0.665029 0.665023 0.663654 0.663648 0.66434 0.664334 0.663648 0.663642 0.664334 0.664328 0.66434 0.664334 0.665023 0.665018 0.664334 0.664328 0.665018 0.665013 0.659475 0.659467 0.660174 0.660166 0.659467 0.659458 0.660166 0.660158 0.660174 0.660166 0.660873 0.660865 0.660166 0.660158 0.660865 0.660857 0.659458 0.659449 0.660158 0.660149 0.659449 0.65944 0.660149 0.66014 0.660158 0.660149 0.660857 0.660849 0.660149 0.66014 0.660849 0.660841 0.660873 0.660865 0.661568 0.661561 0.660865 0.660857 0.661561 0.661554 0.661568 0.661561 0.662262 0.662255 0.661561 0.661554 0.662255 0.662248 0.660857 0.660849 0.661554 0.661546 0.660849 0.660841 0.661546 0.661538 0.661554 0.661546 0.662248 0.66224 0.661546 0.661538 0.66224 0.662233 0.65944 0.65943 0.66014 0.660131 0.65943 0.65942 0.660131 0.660122 0.66014 0.660131 0.660841 0.660832 0.660131 0.660122 0.660832 0.660823 0.65942 0.659411 0.660122 0.660113 0.659411 0.6594 0.660113 0.660103 0.660122 0.660113 0.660823 0.660814 0.660113 0.660103 0.660814 0.660805 0.660841 0.660832 0.661538 0.66153 0.660832 0.660823 0.66153 0.661521 0.661538 0.66153 0.662233 0.662225 0.66153 0.661521 0.662225 0.662217 0.660823 0.660814 0.661521 0.661513 0.660814 0.660805 0.661513 0.661504 0.661521 0.661513 0.662217 0.662209 0.661513 0.661504 0.662209 0.6622 0.662262 0.662255 0.662953 0.662946 0.662255 0.662248 0.662946 0.66294 0.662953 0.662946 0.663642 0.663635 0.662946 0.66294 0.663635 0.663629 0.662248 0.66224 0.66294 0.662932 0.66224 0.662233 0.662932 0.662925 0.66294 0.662932 0.663629 0.663622 0.662932 0.662925 0.663622 0.663615 0.663642 0.663635 0.664328 0.664322 0.663635 0.663629 0.664322 0.664316 0.664328 0.664322 0.665013 0.665007 0.664322 0.664316 0.665007 0.665001 0.663629 0.663622 0.664316 0.66431 0.663622 0.663615 0.66431 0.664303 0.664316 0.66431 0.665001 0.664995 0.66431 0.664303 0.664995 0.664988 0.662233 0.662225 0.662925 0.662918 0.662225 0.662217 0.662918 0.66291 0.662925 0.662918 0.663615 0.663608 0.662918 0.66291 0.663608 0.663601 0.662217 0.662209 0.66291 0.662902 0.662209 0.6622 0.662902 0.662894 0.66291 0.662902 0.663601 0.663593 0.662902 0.662894 0.663593 0.663586 0.663615 0.663608 0.664303 0.664296 0.663608 0.663601 0.664296 0.664289 0.664303 0.664296 0.664988 0.664982 0.664296 0.664289 0.664982 0.664975 0.663601 0.663593 0.664289 0.664282 0.663593 0.663586 0.664282 0.664275 0.664289 0.664282 0.664975 0.664969 0.664282 0.664275 0.664969 0.664962 0.665051 0.665047 0.665731 0.665728 0.665047 0.665043 0.665728 0.665724 0.665731 0.665728 0.66641 0.666406 0.665728 0.665724 0.666406 0.666402 0.665043 0.665038 0.665724 0.665719 0.665038 0.665034 0.665719 0.665715 0.665724 0.665719 0.666402 0.666398 0.665719 0.665715 0.666398 0.666394 0.66641 0.666406 0.667086 0.667083 0.666406 0.666402 0.667083 0.667079 0.667086 0.667083 0.667761 0.667757 0.667083 0.667079 0.667757 0.667754 0.666402 0.666398 0.667079 0.667075 0.666398 0.666394 0.667075 0.667071 0.667079 0.667075 0.667754 0.66775 0.667075 0.667071 0.66775 0.667746 0.665034 0.665029 0.665715 0.66571 0.665029 0.665023 0.66571 0.665705 0.665715 0.66571 0.666394 0.666389 0.66571 0.665705 0.666389 0.666385 0.665023 0.665018 0.665705 0.6657 0.665018 0.665013 0.6657 0.665695 0.665705 0.6657 0.666385 0.66638 0.6657 0.665695 0.66638 0.666375 0.666394 0.666389 0.667071 0.667067 0.666389 0.666385 0.667067 0.667062 0.667071 0.667067 0.667746 0.667742 0.667067 0.667062 0.667742 0.667737 0.666385 0.66638 0.667062 0.667057 0.66638 0.666375 0.667057 0.667053 0.667062 0.667057 0.667737 0.667733 0.667057 0.667053 0.667733 0.667728 0.667761 0.667757 0.668433 0.66843 0.667757 0.667754 0.66843 0.668427 0.668433 0.66843 0.669104 0.669101 0.66843 0.668427 0.669101 0.669098 0.667754 0.66775 0.668427 0.668423 0.66775 0.667746 0.668423 0.668419 0.668427 0.668423 0.669098 0.669094 0.668423 0.668419 0.669094 0.669091 0.669104 0.669101 0.669773 0.66977 0.669101 0.669098 0.66977 0.669767 0.669773 0.66977 0.670441 0.670438 0.66977 0.669767 0.670438 0.670435 0.669098 0.669094 0.669767 0.669764 0.669094 0.669091 0.669764 0.66976 0.669767 0.669764 0.670435 0.670432 0.669764 0.66976 0.670432 0.670429 0.667746 0.667742 0.668419 0.668415 0.667742 0.667737 0.668415 0.668411 0.668419 0.668415 0.669091 0.669087 0.668415 0.668411 0.669087 0.669083 0.667737 0.667733 0.668411 0.668407 0.667733 0.667728 0.668407 0.668402 0.668411 0.668407 0.669083 0.669079 0.668407 0.668402 0.669079 0.669075 0.669091 0.669087 0.66976 0.669757 0.669087 0.669083 0.669757 0.669753 0.66976 0.669757 0.670429 0.670425 0.669757 0.669753 0.670425 0.670422 0.669083 0.669079 0.669753 0.669749 0.669079 0.669075 0.669749 0.669745 0.669753 0.669749 0.670422 0.670418 0.669749 0.669745 0.670418 0.670414 0.665013 0.665007 0.665695 0.665689 0.665007 0.665001 0.665689 0.665683 0.665695 0.665689 0.666375 0.666369 0.665689 0.665683 0.666369 0.666364 0.665001 0.664995 0.665683 0.665678 0.664995 0.664988 0.665678 0.665672 0.665683 0.665678 0.666364 0.666358 0.665678 0.665672 0.666358 0.666353 0.666375 0.666369 0.667053 0.667048 0.666369 0.666364 0.667048 0.667042 0.667053 0.667048 0.667728 0.667724 0.667048 0.667042 0.667724 0.667719 0.666364 0.666358 0.667042 0.667037 0.666358 0.666353 0.667037 0.667032 0.667042 0.667037 0.667719 0.667714 0.667037 0.667032 0.667714 0.667708 0.664988 0.664982 0.665672 0.665665 0.664982 0.664975 0.665665 0.665659 0.665672 0.665665 0.666353 0.666347 0.665665 0.665659 0.666347 0.666341 0.664975 0.664969 0.665659 0.665653 0.664969 0.664962 0.665653 0.665646 0.665659 0.665653 0.666341 0.666335 0.665653 0.665646 0.666335 0.666328 0.666353 0.666347 0.667032 0.667026 0.666347 0.666341 0.667026 0.66702 0.667032 0.667026 0.667708 0.667703 0.667026 0.66702 0.667703 0.667697 0.666341 0.666335 0.66702 0.667014 0.666335 0.666328 0.667014 0.667008 0.66702 0.667014 0.667697 0.667692 0.667014 0.667008 0.667692 0.667686 0.667728 0.667724 0.668402 0.668398 0.667724 0.667719 0.668398 0.668393 0.668402 0.668398 0.669075 0.66907 0.668398 0.668393 0.66907 0.669066 0.667719 0.667714 0.668393 0.668388 0.667714 0.667708 0.668388 0.668383 0.668393 0.668388 0.669066 0.669061 0.668388 0.668383 0.669061 0.669056 0.669075 0.66907 0.669745 0.669741 0.66907 0.669066 0.669741 0.669737 0.669745 0.669741 0.670414 0.67041 0.669741 0.669737 0.67041 0.670406 0.669066 0.669061 0.669737 0.669732 0.669061 0.669056 0.669732 0.669728 0.669737 0.669732 0.670406 0.670402 0.669732 0.669728 0.670402 0.670397 0.667708 0.667703 0.668383 0.668378 0.667703 0.667697 0.668378 0.668373 0.668383 0.668378 0.669056 0.669051 0.668378 0.668373 0.669051 0.669046 0.667697 0.667692 0.668373 0.668367 0.667692 0.667686 0.668367 0.668362 0.668373 0.668367 0.669046 0.669041 0.668367 0.668362 0.669041 0.669036 0.669056 0.669051 0.669728 0.669723 0.669051 0.669046 0.669723 0.669718 0.669728 0.669723 0.670397 0.670393 0.669723 0.669718 0.670393 0.670388 0.669046 0.669041 0.669718 0.669713 0.669041 0.669036 0.669713 0.669708 0.669718 0.669713 0.670388 0.670383 0.669713 0.669708 0.670383 0.670378 0.670463 0.670463 0.671129 0.671129 0.670463 0.670463 0.671129 0.671128 0.671129 0.671129 0.671793 0.671793 0.671129 0.671128 0.671793 0.671792 0.670463 0.670463 0.671128 0.671128 0.670463 0.670462 0.671128 0.671127 0.671128 0.671128 0.671792 0.671792 0.671128 0.671127 0.671792 0.671791 0.671793 0.671793 0.672456 0.672456 0.671793 0.671792 0.672456 0.672455 0.672456 0.672456 0.673118 0.673118 0.672456 0.672455 0.673118 0.673117 0.671792 0.671792 0.672455 0.672455 0.671792 0.671791 0.672455 0.672454 0.672455 0.672455 0.673117 0.673117 0.672455 0.672454 0.673117 0.673117 0.670462 0.670461 0.671127 0.671126 0.670461 0.67046 0.671126 0.671126 0.671127 0.671126 0.671791 0.671791 0.671126 0.671126 0.671791 0.67179 0.67046 0.670459 0.671126 0.671124 0.670459 0.670458 0.671124 0.671123 0.671126 0.671124 0.67179 0.671789 0.671124 0.671123 0.671789 0.671787 0.671791 0.671791 0.672454 0.672454 0.671791 0.67179 0.672454 0.672453 0.672454 0.672454 0.673117 0.673116 0.672454 0.672453 0.673116 0.673115 0.67179 0.671789 0.672453 0.672452 0.671789 0.671787 0.672452 0.672451 0.672453 0.672452 0.673115 0.673114 0.672452 0.672451 0.673114 0.673113 0.673118 0.673118 0.673779 0.673779 0.673118 0.673117 0.673779 0.673779 0.673779 0.673779 0.67444 0.67444 0.673779 0.673779 0.67444 0.67444 0.673117 0.673117 0.673779 0.673779 0.673117 0.673117 0.673779 0.673778 0.673779 0.673779 0.67444 0.67444 0.673779 0.673778 0.67444 0.674439 0.67444 0.67444 0.675101 0.675101 0.67444 0.67444 0.675101 0.675101 0.675101 0.675101 0.675762 0.675762 0.675101 0.675101 0.675762 0.675762 0.67444 0.67444 0.675101 0.6751 0.67444 0.674439 0.6751 0.6751 0.675101 0.6751 0.675762 0.675762 0.6751 0.6751 0.675762 0.675761 0.67