# vtk DataFile Version 3.0
#This file was generated by the deal.II library on 2018/10/14 at 22:30:58
ASCII
DATASET UNSTRUCTURED_GRID

POINTS 81920 double
0 0 0
0.0981748 0 0
0 0.156259 0
0.0981619 0.156259 0
0.0981748 0 0
0.19635 0 0
0.0981619 0.156259 0
0.196324 0.156259 0
0 0.156259 0
0.0981619 0.156259 0
0 0.312538 0
0.0981497 0.312538 0
0.0981619 0.156259 0
0.196324 0.156259 0
0.0981497 0.312538 0
0.196299 0.312538 0
0.19635 0 0
0.294524 0 0
0.196324 0.156259 0
0.294486 0.156259 0
0.294524 0 0
0.392699 0 0
0.294486 0.156259 0
0.392648 0.156259 0
0.196324 0.156259 0
0.294486 0.156259 0
0.196299 0.312538 0
0.294449 0.312538 0
0.294486 0.156259 0
0.392648 0.156259 0
0.294449 0.312538 0
0.392599 0.312538 0
0 0.312538 0
0.0981497 0.312538 0
0 0.468837 0
0.0981382 0.468837 0
0.0981497 0.312538 0
0.196299 0.312538 0
0.0981382 0.468837 0
0.196276 0.468837 0
0 0.468837 0
0.0981382 0.468837 0
0 0.625153 0
0.0981272 0.625153 0
0.0981382 0.468837 0
0.196276 0.468837 0
0.0981272 0.625153 0
0.196254 0.625153 0
0.196299 0.312538 0
0.294449 0.312538 0
0.196276 0.468837 0
0.294415 0.468837 0
0.294449 0.312538 0
0.392599 0.312538 0
0.294415 0.468837 0
0.392553 0.468836 0
0.196276 0.468837 0
0.294415 0.468837 0
0.196254 0.625153 0
0.294382 0.625153 0
0.294415 0.468837 0
0.392553 0.468836 0
0.294382 0.625153 0
0.392509 0.625153 0
0.392699 0 0
0.490874 0 0
0.392648 0.156259 0
0.49081 0.156259 0
0.490874 0 0
0.589049 0 0
0.49081 0.156259 0
0.588972 0.156259 0
0.392648 0.156259 0
0.49081 0.156259 0
0.392599 0.312538 0
0.490749 0.312538 0
0.49081 0.156259 0
0.588972 0.156259 0
0.490749 0.312538 0
0.588899 0.312538 0
0.589049 0 0
0.687223 0 0
0.588972 0.156259 0
0.687134 0.156259 0
0.687223 0 0
0.785398 0 0
0.687134 0.156259 0
0.785296 0.156259 0
0.588972 0.156259 0
0.687134 0.156259 0
0.588899 0.312538 0
0.687049 0.312538 0
0.687134 0.156259 0
0.785296 0.156259 0
0.687049 0.312538 0
0.785199 0.312537 0
0.392599 0.312538 0
0.490749 0.312538 0
0.392553 0.468836 0
0.490691 0.468836 0
0.490749 0.312538 0
0.588899 0.312538 0
0.490691 0.468836 0
0.58883 0.468836 0
0.392553 0.468836 0
0.490691 0.468836 0
0.392509 0.625153 0
0.490637 0.625152 0
0.490691 0.468836 0
0.58883 0.468836 0
0.490637 0.625152 0
0.588765 0.625151 0
0.588899 0.312538 0
0.687049 0.312538 0
0.58883 0.468836 0
0.686969 0.468835 0
0.687049 0.312538 0
0.785199 0.312537 0
0.686969 0.468835 0
0.785108 0.468835 0
0.58883 0.468836 0
0.686969 0.468835 0
0.588765 0.625151 0
0.686893 0.625151 0
0.686969 0.468835 0
0.785108 0.468835 0
0.686893 0.625151 0
0.785021 0.62515 0
0 0.625153 0
0.0981272 0.625153 0
0 0.781487 0
0.0981168 0.781487 0
0.0981272 0.625153 0
0.196254 0.625153 0
0.0981168 0.781487 0
0.196234 0.781486 0
0 0.781487 0
0.0981168 0.781487 0
0 0.937836 0
0.098107 0.937836 0
0.0981168 0.781487 0
0.196234 0.781486 0
0.098107 0.937836 0
0.196214 0.937836 0
0.196254 0.625153 0
0.294382 0.625153 0
0.196234 0.781486 0
0.294351 0.781486 0
0.294382 0.625153 0
0.392509 0.625153 0
0.294351 0.781486 0
0.392468 0.781485 0
0.196234 0.781486 0
0.294351 0.781486 0
0.196214 0.937836 0
0.294321 0.937835 0
0.294351 0.781486 0
0.392468 0.781485 0
0.294321 0.937835 0
0.392428 0.937834 0
0 0.937836 0
0.098107 0.937836 0
0 1.0942 0
0.0980976 1.0942 0
0.098107 0.937836 0
0.196214 0.937836 0
0.0980976 1.0942 0
0.196195 1.0942 0
0 1.0942 0
0.0980976 1.0942 0
0 1.25058 0
0.0980886 1.25058 0
0.0980976 1.0942 0
0.196195 1.0942 0
0.0980886 1.25058 0
0.196177 1.25058 0
0.196214 0.937836 0
0.294321 0.937835 0
0.196195 1.0942 0
0.294293 1.0942 0
0.294321 0.937835 0
0.392428 0.937834 0
0.294293 1.0942 0
0.392391 1.0942 0
0.196195 1.0942 0
0.294293 1.0942 0
0.196177 1.25058 0
0.294266 1.25058 0
0.294293 1.0942 0
0.392391 1.0942 0
0.294266 1.25058 0
0.392355 1.25058 0
0.392509 0.625153 0
0.490637 0.625152 0
0.392468 0.781485 0
0.490585 0.781485 0
0.490637 0.625152 0
0.588765 0.625151 0
0.490585 0.781485 0
0.588703 0.781484 0
0.392468 0.781485 0
0.490585 0.781485 0
0.392428 0.937834 0
0.490536 0.937833 0
0.490585 0.781485 0
0.588703 0.781484 0
0.490536 0.937833 0
0.588644 0.937832 0
0.588765 0.625151 0
0.686893 0.625151 0
0.588703 0.781484 0
0.68682 0.781482 0
0.686893 0.625151 0
0.785021 0.62515 0
0.68682 0.781482 0
0.784938 0.781481 0
0.588703 0.781484 0
0.68682 0.781482 0
0.588644 0.937832 0
0.686752 0.93783 0
0.68682 0.781482 0
0.784938 0.781481 0
0.686752 0.93783 0
0.78486 0.937828 0
0.392428 0.937834 0
0.490536 0.937833 0
0.392391 1.0942 0
0.490489 1.0942 0
0.490536 0.937833 0
0.588644 0.937832 0
0.490489 1.0942 0
0.588587 1.09419 0
0.392391 1.0942 0
0.490489 1.0942 0
0.392355 1.25058 0
0.490444 1.25057 0
0.490489 1.0942 0
0.588587 1.09419 0
0.490444 1.25057 0
0.588534 1.25057 0
0.588644 0.937832 0
0.686752 0.93783 0
0.588587 1.09419 0
0.686686 1.09419 0
0.686752 0.93783 0
0.78486 0.937828 0
0.686686 1.09419 0
0.784785 1.09419 0
0.588587 1.09419 0
0.686686 1.09419 0
0.588534 1.25057 0
0.686624 1.25057 0
0.686686 1.09419 0
0.784785 1.09419 0
0.686624 1.25057 0
0.784714 1.25057 0
0.785398 0 0
0.883573 0 0
0.785296 0.156259 0
0.883458 0.156258 0
0.883573 0 0
0.981748 0 0
0.883458 0.156258 0
0.981621 0.156258 0
0.785296 0.156259 0
0.883458 0.156258 0
0.785199 0.312537 0
0.88335 0.312537 0
0.883458 0.156258 0
0.981621 0.156258 0
0.88335 0.312537 0
0.9815 0.312537 0
0.981748 0 0
1.07992 0 0
0.981621 0.156258 0
1.07978 0.156258 0
1.07992 0 0
1.1781 0 0
1.07978 0.156258 0
1.17795 0.156258 0
0.981621 0.156258 0
1.07978 0.156258 0
0.9815 0.312537 0
1.07965 0.312537 0
1.07978 0.156258 0
1.17795 0.156258 0
1.07965 0.312537 0
1.1778 0.312536 0
0.785199 0.312537 0
0.88335 0.312537 0
0.785108 0.468835 0
0.883247 0.468834 0
0.88335 0.312537 0
0.9815 0.312537 0
0.883247 0.468834 0
0.981386 0.468834 0
0.785108 0.468835 0
0.883247 0.468834 0
0.785021 0.62515 0
0.883149 0.625149 0
0.883247 0.468834 0
0.981386 0.468834 0
0.883149 0.625149 0
0.981278 0.625147 0
0.9815 0.312537 0
1.07965 0.312537 0
0.981386 0.468834 0
1.07953 0.468833 0
1.07965 0.312537 0
1.1778 0.312536 0
1.07953 0.468833 0
1.17767 0.468832 0
0.981386 0.468834 0
1.07953 0.468833 0
0.981278 0.625147 0
1.07941 0.625146 0
1.07953 0.468833 0
1.17767 0.468832 0
1.07941 0.625146 0
1.17754 0.625145 0
1.1781 0 0
1.27627 0 0
1.17795 0.156258 0
1.27611 0.156258 0
1.27627 0 0
1.37445 0 0
1.27611 0.156258 0
1.37427 0.156258 0
1.17795 0.156258 0
1.27611 0.156258 0
1.1778 0.312536 0
1.27595 0.312536 0
1.27611 0.156258 0
1.37427 0.156258 0
1.27595 0.312536 0
1.3741 0.312535 0
1.37445 0 0
1.47262 0 0
1.37427 0.156258 0
1.47243 0.156258 0
1.47262 0 0
1.5708 0 0
1.47243 0.156258 0
1.5706 0.156258 0
1.37427 0.156258 0
1.47243 0.156258 0
1.3741 0.312535 0
1.47226 0.312535 0
1.47243 0.156258 0
1.5706 0.156258 0
1.47226 0.312535 0
1.57041 0.312535 0
1.1778 0.312536 0
1.27595 0.312536 0
1.17767 0.468832 0
1.27581 0.468831 0
1.27595 0.312536 0
1.3741 0.312535 0
1.27581 0.468831 0
1.37395 0.46883 0
1.17767 0.468832 0
1.27581 0.468831 0
1.17754 0.625145 0
1.27567 0.625143 0
1.27581 0.468831 0
1.37395 0.46883 0
1.27567 0.625143 0
1.3738 0.625142 0
1.3741 0.312535 0
1.47226 0.312535 0
1.37395 0.46883 0
1.47209 0.468829 0
1.47226 0.312535 0
1.57041 0.312535 0
1.47209 0.468829 0
1.57023 0.468828 0
1.37395 0.46883 0
1.47209 0.468829 0
1.3738 0.625142 0
1.47193 0.62514 0
1.47209 0.468829 0
1.57023 0.468828 0
1.47193 0.62514 0
1.57006 0.625138 0
0.785021 0.62515 0
0.883149 0.625149 0
0.784938 0.781481 0
0.883057 0.781479 0
0.883149 0.625149 0
0.981278 0.625147 0
0.883057 0.781479 0
0.981176 0.781478 0
0.784938 0.781481 0
0.883057 0.781479 0
0.78486 0.937828 0
0.882969 0.937826 0
0.883057 0.781479 0
0.981176 0.781478 0
0.882969 0.937826 0
0.981078 0.937823 0
0.981278 0.625147 0
1.07941 0.625146 0
0.981176 0.781478 0
1.07929 0.781476 0
1.07941 0.625146 0
1.17754 0.625145 0
1.07929 0.781476 0
1.17741 0.781474 0
0.981176 0.781478 0
1.07929 0.781476 0
0.981078 0.937823 0
1.07919 0.937821 0
1.07929 0.781476 0
1.17741 0.781474 0
1.07919 0.937821 0
1.1773 0.937818 0
0.78486 0.937828 0
0.882969 0.937826 0
0.784785 1.09419 0
0.882885 1.09419 0
0.882969 0.937826 0
0.981078 0.937823 0
0.882885 1.09419 0
0.980985 1.09418 0
0.784785 1.09419 0
0.882885 1.09419 0
0.784714 1.25057 0
0.882805 1.25056 0
0.882885 1.09419 0
0.980985 1.09418 0
0.882805 1.25056 0
0.980897 1.25056 0
0.981078 0.937823 0
1.07919 0.937821 0
0.980985 1.09418 0
1.07909 1.09418 0
1.07919 0.937821 0
1.1773 0.937818 0
1.07909 1.09418 0
1.17719 1.09418 0
0.980985 1.09418 0
1.07909 1.09418 0
0.980897 1.25056 0
1.07899 1.25055 0
1.07909 1.09418 0
1.17719 1.09418 0
1.07899 1.25055 0
1.17708 1.25055 0
1.17754 0.625145 0
1.27567 0.625143 0
1.17741 0.781474 0
1.27553 0.781471 0
1.27567 0.625143 0
1.3738 0.625142 0
1.27553 0.781471 0
1.37366 0.781469 0
1.17741 0.781474 0
1.27553 0.781471 0
1.1773 0.937818 0
1.27541 0.937815 0
1.27553 0.781471 0
1.37366 0.781469 0
1.27541 0.937815 0
1.37352 0.937811 0
1.3738 0.625142 0
1.47193 0.62514 0
1.37366 0.781469 0
1.47178 0.781467 0
1.47193 0.62514 0
1.57006 0.625138 0
1.47178 0.781467 0
1.5699 0.781464 0
1.37366 0.781469 0
1.47178 0.781467 0
1.37352 0.937811 0
1.47163 0.937808 0
1.47178 0.781467 0
1.5699 0.781464 0
1.47163 0.937808 0
1.56975 0.937804 0
1.1773 0.937818 0
1.27541 0.937815 0
1.17719 1.09418 0
1.27529 1.09417 0
1.27541 0.937815 0
1.37352 0.937811 0
1.27529 1.09417 0
1.37339 1.09417 0
1.17719 1.09418 0
1.27529 1.09417 0
1.17708 1.25055 0
1.27518 1.25054 0
1.27529 1.09417 0
1.37339 1.09417 0
1.27518 1.25054 0
1.37327 1.25054 0
1.37352 0.937811 0
1.47163 0.937808 0
1.37339 1.09417 0
1.4715 1.09416 0
1.47163 0.937808 0
1.56975 0.937804 0
1.4715 1.09416 0
1.5696 1.09416 0
1.37339 1.09417 0
1.4715 1.09416 0
1.37327 1.25054 0
1.47136 1.25053 0
1.4715 1.09416 0
1.5696 1.09416 0
1.47136 1.25053 0
1.56946 1.25052 0
0 1.25058 0
0.0980886 1.25058 0
0 1.40697 0
0.0980801 1.40697 0
0.0980886 1.25058 0
0.196177 1.25058 0
0.0980801 1.40697 0
0.19616 1.40697 0
0 1.40697 0
0.0980801 1.40697 0
0 1.56338 0
0.0980719 1.56338 0
0.0980801 1.40697 0
0.19616 1.40697 0
0.0980719 1.56338 0
0.196144 1.56338 0
[...]
POINT_DATA 81920
SCALARS T double 1
LOOKUP_TABLE default
91.0003 91.0003 89.059 89.059 91.0003 91.0004 89.059 89.0591 89.059 89.059 87.1385 87.1385 89.059 89.0591 87.1385 87.1387 91.0004 91.0006 89.0591 89.0593 91.0006 91.0008 89.0593 89.0596 89.0591 89.0593 87.1387 87.1388 89.0593 89.0596 87.1388 87.1391 87.1385 87.1385 85.2389 85.2389 87.1385 87.1387 85.2389 85.239 85.2389 85.2389 83.3601 83.3602 85.2389 85.239 83.3602 83.3603 87.1387 87.1388 85.239 85.2392 87.1388 87.1391 85.2392 85.2395 85.239 85.2392 83.3603 83.3605 85.2392 85.2395 83.3605 83.3607 91.0008 91.0012 89.0596 89.0599 91.0012 91.0016 89.0599 89.0603 89.0596 89.0599 87.1391 87.1394 89.0599 89.0603 87.1394 87.1398 91.0016 91.002 89.0603 89.0608 91.002 91.0026 89.0608 89.0613 89.0603 89.0608 87.1398 87.1403 89.0608 89.0613 87.1403 87.1409 87.1391 87.1394 85.2395 85.2398 87.1394 87.1398 85.2398 85.2402 85.2395 85.2398 83.3607 83.3611 85.2398 85.2402 83.3611 83.3615 87.1398 87.1403 85.2402 85.2407 87.1403 87.1409 85.2407 85.2413 85.2402 85.2407 83.3615 83.362 85.2407 85.2413 83.362 83.3625 83.3601 83.3602 81.5023 81.5023 83.3602 83.3603 81.5023 81.5025 81.5023 81.5023 79.6654 79.6654 81.5023 81.5025 79.6654 79.6655 83.3603 83.3605 81.5025 81.5026 83.3605 83.3607 81.5026 81.5029 81.5025 81.5026 79.6655 79.6657 81.5026 81.5029 79.6657 79.666 79.6654 79.6654 77.8494 77.8494 79.6654 79.6655 77.8494 77.8495 77.8494 77.8494 76.0542 76.0543 77.8494 77.8495 76.0543 76.0544 79.6655 79.6657 77.8495 77.8497 79.6657 79.666 77.8497 77.85 77.8495 77.8497 76.0544 76.0546 77.8497 77.85 76.0546 76.0549 83.3607 83.3611 81.5029 81.5033 83.3611 83.3615 81.5033 81.5037 81.5029 81.5033 79.666 79.6664 81.5033 81.5037 79.6664 79.6668 83.3615 83.362 81.5037 81.5042 83.362 83.3625 81.5042 81.5048 81.5037 81.5042 79.6668 79.6673 81.5042 81.5048 79.6673 79.6679 79.666 79.6664 77.85 77.8504 79.6664 79.6668 77.8504 77.8508 77.85 77.8504 76.0549 76.0552 77.8504 77.8508 76.0552 76.0557 79.6668 79.6673 77.8508 77.8513 79.6673 79.6679 77.8513 77.8519 77.8508 77.8513 76.0557 76.0562 77.8513 77.8519 76.0562 76.0568 91.0026 91.0032 89.0613 89.062 91.0032 91.0039 89.062 89.0627 89.0613 89.062 87.1409 87.1415 89.062 89.0627 87.1415 87.1422 91.0039 91.0046 89.0627 89.0634 91.0046 91.0055 89.0634 89.0643 89.0627 89.0634 87.1422 87.143 89.0634 89.0643 87.143 87.1438 87.1409 87.1415 85.2413 85.2419 87.1415 87.1422 85.2419 85.2426 85.2413 85.2419 83.3625 83.3632 85.2419 85.2426 83.3632 83.3639 87.1422 87.143 85.2426 85.2434 87.143 87.1438 85.2434 85.2443 85.2426 85.2434 83.3639 83.3647 85.2434 85.2443 83.3647 83.3656 91.0055 91.0064 89.0643 89.0652 91.0064 91.0074 89.0652 89.0662 89.0643 89.0652 87.1438 87.1448 89.0652 89.0662 87.1448 87.1458 91.0074 91.0085 89.0662 89.0673 91.0085 91.0096 89.0673 89.0685 89.0662 89.0673 87.1458 87.1469 89.0673 89.0685 87.1469 87.1481 87.1438 87.1448 85.2443 85.2452 87.1448 87.1458 85.2452 85.2462 85.2443 85.2452 83.3656 83.3666 85.2452 85.2462 83.3666 83.3676 87.1458 87.1469 85.2462 85.2474 87.1469 87.1481 85.2474 85.2485 85.2462 85.2474 83.3676 83.3687 85.2474 85.2485 83.3687 83.3699 83.3625 83.3632 81.5048 81.5054 83.3632 83.3639 81.5054 81.5061 81.5048 81.5054 79.6679 79.6685 81.5054 81.5061 79.6685 79.6693 83.3639 83.3647 81.5061 81.507 83.3647 83.3656 81.507 81.5078 81.5061 81.507 79.6693 79.6701 81.507 81.5078 79.6701 79.671 79.6679 79.6685 77.8519 77.8526 79.6685 79.6693 77.8526 77.8533 77.8519 77.8526 76.0568 76.0575 77.8526 77.8533 76.0575 76.0582 79.6693 79.6701 77.8533 77.8542 79.6701 79.671 77.8542 77.8551 77.8533 77.8542 76.0582 76.0591 77.8542 77.8551 76.0591 76.06 83.3656 83.3666 81.5078 81.5088 83.3666 83.3676 81.5088 81.5099 81.5078 81.5088 79.671 79.672 81.5088 81.5099 79.672 79.6731 83.3676 83.3687 81.5099 81.511 83.3687 83.3699 81.511 81.5122 81.5099 81.511 79.6731 79.6742 81.511 81.5122 79.6742 79.6755 79.671 79.672 77.8551 77.8561 79.672 79.6731 77.8561 77.8572 77.8551 77.8561 76.06 76.061 77.8561 77.8572 76.061 76.0621 79.6731 79.6742 77.8572 77.8583 79.6742 79.6755 77.8583 77.8596 77.8572 77.8583 76.0621 76.0633 77.8583 77.8596 76.0633 76.0646 76.0542 76.0543 74.2799 74.2799 76.0543 76.0544 74.2799 74.28 74.2799 74.2799 72.5263 72.5263 74.2799 74.28 72.5263 72.5264 76.0544 76.0546 74.28 74.2803 76.0546 76.0549 74.2803 74.2805 74.28 74.2803 72.5264 72.5266 74.2803 74.2805 72.5266 72.5269 72.5263 72.5263 70.7933 70.7933 72.5263 72.5264 70.7933 70.7935 70.7933 70.7933 69.0809 69.0809 70.7933 70.7935 69.0809 69.081 72.5264 72.5266 70.7935 70.7937 72.5266 72.5269 70.7937 70.794 70.7935 70.7937 69.081 69.0812 70.7937 70.794 69.0812 69.0815 76.0549 76.0552 74.2805 74.2809 76.0552 76.0557 74.2809 74.2813 74.2805 74.2809 72.5269 72.5273 74.2809 74.2813 72.5273 72.5278 76.0557 76.0562 74.2813 74.2819 76.0562 76.0568 74.2819 74.2825 74.2813 74.2819 72.5278 72.5283 74.2819 74.2825 72.5283 72.5289 72.5269 72.5273 70.794 70.7943 72.5273 72.5278 70.7943 70.7948 70.794 70.7943 69.0815 69.0819 70.7943 70.7948 69.0819 69.0824 72.5278 72.5283 70.7948 70.7953 72.5283 72.5289 70.7953 70.796 70.7948 70.7953 69.0824 69.0829 70.7953 70.796 69.0829 69.0836 69.0809 69.0809 67.3888 67.3888 69.0809 69.081 67.3888 67.389 67.3888 67.3888 65.717 65.717 67.3888 67.389 65.717 65.7172 69.081 69.0812 67.389 67.3892 69.0812 69.0815 67.3892 67.3895 67.389 67.3892 65.7172 65.7174 67.3892 67.3895 65.7174 65.7177 65.717 65.717 64.0653 64.0653 65.717 65.7172 64.0653 64.0655 64.0653 64.0653 62.4335 62.4335 64.0653 64.0655 62.4335 62.4337 65.7172 65.7174 64.0655 64.0657 65.7174 65.7177 64.0657 64.066 64.0655 64.0657 62.4337 62.4339 64.0657 64.066 62.4339 62.4342 69.0815 69.0819 67.3895 67.3899 69.0819 69.0824 67.3899 67.3904 67.3895 67.3899 65.7177 65.7181 67.3899 67.3904 65.7181 65.7186 69.0824 69.0829 67.3904 67.3909 69.0829 69.0836 67.3909 67.3916 67.3904 67.3909 65.7186 65.7191 67.3909 67.3916 65.7191 65.7198 65.7177 65.7181 64.066 64.0664 65.7181 65.7186 64.0664 64.0669 64.066 64.0664 62.4342 62.4346 64.0664 64.0669 62.4346 62.4351 65.7186 65.7191 64.0669 64.0675 65.7191 65.7198 64.0675 64.0681 64.0669 64.0675 62.4351 62.4357 64.0675 64.0681 62.4357 62.4364 76.0568 76.0575 74.2825 74.2832 76.0575 76.0582 74.2832 74.284 74.2825 74.2832 72.5289 72.5296 74.2832 74.284 72.5296 72.5304 76.0582 76.0591 74.284 74.2848 76.0591 76.06 74.2848 74.2858 74.284 74.2848 72.5304 72.5313 74.2848 74.2858 72.5313 72.5322 72.5289 72.5296 70.796 70.7967 72.5296 72.5304 70.7967 70.7975 70.796 70.7967 69.0836 69.0843 70.7967 70.7975 69.0843 69.0851 72.5304 72.5313 70.7975 70.7984 72.5313 72.5322 70.7984 70.7994 70.7975 70.7984 69.0851 69.086 70.7984 70.7994 69.086 69.087 76.06 76.061 74.2858 74.2868 76.061 76.0621 74.2868 74.2879 74.2858 74.2868 72.5322 72.5333 74.2868 74.2879 72.5333 72.5344 76.0621 76.0633 74.2879 74.2891 76.0633 76.0646 74.2891 74.2904 74.2879 74.2891 72.5344 72.5356 74.2891 74.2904 72.5356 72.5369 72.5322 72.5333 70.7994 70.8004 72.5333 72.5344 70.8004 70.8016 70.7994 70.8004 69.087 69.0881 70.8004 70.8016 69.0881 69.0892 72.5344 72.5356 70.8016 70.8028 72.5356 72.5369 70.8028 70.8041 70.8016 70.8028 69.0892 69.0905 70.8028 70.8041 69.0905 69.0919 69.0836 69.0843 67.3916 67.3923 69.0843 69.0851 67.3923 67.3931 67.3916 67.3923 65.7198 65.7206 67.3923 67.3931 65.7206 65.7214 69.0851 69.086 67.3931 67.394 69.086 69.087 67.394 67.395 67.3931 67.394 65.7214 65.7223 67.394 67.395 65.7223 65.7233 65.7198 65.7206 64.0681 64.0689 65.7206 65.7214 64.0689 64.0697 64.0681 64.0689 62.4364 62.4371 64.0689 64.0697 62.4371 62.438 65.7214 65.7223 64.0697 64.0707 65.7223 65.7233 64.0707 64.0717 64.0697 64.0707 62.438 62.439 64.0707 64.0717 62.439 62.44 69.087 69.0881 67.395 67.3961 69.0881 69.0892 67.3961 67.3973 67.395 67.3961 65.7233 65.7244 67.3961 67.3973 65.7244 65.7256 69.0892 69.0905 67.3973 67.3986 69.0905 69.0919 67.3986 67.4 67.3973 67.3986 65.7256 65.7269 67.3986 67.4 65.7269 65.7283 65.7233 65.7244 64.0717 64.0728 65.7244 65.7256 64.0728 64.0741 64.0717 64.0728 62.44 62.4411 64.0728 64.0741 62.4411 62.4424 65.7256 65.7269 64.0741 64.0754 65.7269 65.7283 64.0754 64.0768 64.0741 64.0754 62.4424 62.4437 64.0754 64.0768 62.4437 62.4451 91.0096 91.0109 89.0685 89.0697 91.0109 91.0122 89.0697 89.071 89.0685 89.0697 87.1481 87.1493 89.0697 89.071 87.1493 87.1507 91.0122 91.0136 89.071 89.0724 91.0136 91.015 89.0724 89.0739 89.071 89.0724 87.1507 87.1521 89.0724 89.0739 87.1521 87.1536 87.1481 87.1493 85.2485 85.2498 87.1493 87.1507 85.2498 85.2512 85.2485 85.2498 83.3699 83.3712 85.2498 85.2512 83.3712 83.3726 87.1507 87.1521 85.2512 85.2526 87.1521 87.1536 85.2526 85.2541 85.2512 85.2526 83.3726 83.374 85.2526 85.2541 83.374 83.3756 91.015 91.0166 89.0739 89.0755 91.0166 91.0183 89.0755 89.0771 89.0739 89.0755 87.1536 87.1552 89.0755 89.0771 87.1552 87.1569 91.0183 91.02 89.0771 89.0789 91.02 91.0218 89.0789 89.0807 89.0771 89.0789 87.1569 87.1586 89.0789 89.0807 87.1586 87.1605 87.1536 87.1552 85.2541 85.2557 87.1552 87.1569 85.2557 85.2574 85.2541 85.2557 83.3756 83.3772 85.2557 85.2574 83.3772 83.3789 87.1569 87.1586 85.2574 85.2592 87.1586 87.1605 85.2592 85.2611 85.2574 85.2592 83.3789 83.3807 85.2592 85.2611 83.3807 83.3826 83.3699 83.3712 81.5122 81.5135 83.3712 83.3726 81.5135 81.5149 81.5122 81.5135 79.6755 79.6768 81.5135 81.5149 79.6768 79.6782 83.3726 83.374 81.5149 81.5164 83.374 83.3756 81.5164 81.5179 81.5149 81.5164 79.6782 79.6797 81.5164 81.5179 79.6797 79.6813 79.6755 79.6768 77.8596 77.8609 79.6768 79.6782 77.8609 77.8624 77.8596 77.8609 76.0646 76.0659 77.8609 77.8624 76.0659 76.0674 79.6782 79.6797 77.8624 77.8639 79.6797 79.6813 77.8639 77.8655 77.8624 77.8639 76.0674 76.0689 77.8639 77.8655 76.0689 76.0706 83.3756 83.3772 81.5179 81.5196 83.3772 83.3789 81.5196 81.5213 81.5179 81.5196 79.6813 79.6829 81.5196 81.5213 79.6829 79.6847 83.3789 83.3807 81.5213 81.5232 83.3807 83.3826 81.5232 81.5251 81.5213 81.5232 79.6847 79.6865 81.5232 81.5251 79.6865 79.6885 79.6813 79.6829 77.8655 77.8672 79.6829 79.6847 77.8672 77.8689 77.8655 77.8672 76.0706 76.0723 77.8672 77.8689 76.0723 76.0741 79.6847 79.6865 77.8689 77.8708 79.6865 79.6885 77.8708 77.8728 77.8689 77.8708 76.0741 76.076 77.8708 77.8728 76.076 76.078 91.0218 91.0237 89.0807 89.0827 91.0237 91.0257 89.0827 89.0847 89.0807 89.0827 87.1605 87.1624 89.0827 89.0847 87.1624 87.1645 91.0257 91.0278 89.0847 89.0868 91.0278 91.03 89.0868 89.089 89.0847 89.0868 87.1645 87.1666 89.0868 89.089 87.1666 87.1688 87.1605 87.1624 85.2611 85.263 87.1624 87.1645 85.263 85.2651 85.2611 85.263 83.3826 83.3846 85.263 85.2651 83.3846 83.3867 87.1645 87.1666 85.2651 85.2673 87.1666 87.1688 85.2673 85.2695 85.2651 85.2673 83.3867 83.3889 85.2673 85.2695 83.3889 83.3911 91.03 91.0323 89.089 89.0913 91.0323 91.0347 89.0913 89.0937 89.089 89.0913 87.1688 87.1711 89.0913 89.0937 87.1711 87.1735 91.0347 91.0372 89.0937 89.0962 91.0372 91.0397 89.0962 89.0988 89.0937 89.0962 87.1735 87.1761 89.0962 89.0988 87.1761 87.1787 87.1688 87.1711 85.2695 85.2718 87.1711 87.1735 85.2718 85.2743 85.2695 85.2718 83.3911 83.3935 85.2718 85.2743 83.3935 83.396 87.1735 87.1761 85.2743 85.2768 87.1761 87.1787 85.2768 85.2795 85.2743 85.2768 83.396 83.3985 85.2768 85.2795 83.3985 83.4012 83.3826 83.3846 81.5251 81.5271 83.3846 83.3867 81.5271 81.5292 81.5251 81.5271 79.6885 79.6905 81.5271 81.5292 79.6905 79.6926 83.3867 83.3889 81.5292 81.5314 83.3889 83.3911 81.5314 81.5337 81.5292 81.5314 79.6926 79.6949 81.5314 81.5337 79.6949 79.6972 79.6885 79.6905 77.8728 77.8749 79.6905 79.6926 77.8749 77.877 77.8728 77.8749 76.078 76.0801 77.8749 77.877 76.0801 76.0823 79.6926 79.6949 77.877 77.8793 79.6949 79.6972 77.8793 77.8816 77.877 77.8793 76.0823 76.0846 77.8793 77.8816 76.0846 76.087 83.3911 83.3935 81.5337 81.5361 83.3935 83.396 81.5361 81.5386 81.5337 81.5361 79.6972 79.6996 81.5361 81.5386 79.6996 79.7022 83.396 83.3985 81.5386 81.5412 83.3985 83.4012 81.5412 81.5439 81.5386 81.5412 79.7022 79.7048 81.5412 81.5439 79.7048 79.7075 79.6972 79.6996 77.8816 77.8841 79.6996 79.7022 77.8841 77.8867 77.8816 77.8841 76.087 76.0894 77.8841 77.8867 76.0894 76.092 79.7022 79.7048 77.8867 77.8893 79.7048 79.7075 77.8893 77.8921 77.8867 77.8893 76.092 76.0947 77.8893 77.8921 76.0947 76.0976 76.0646 76.0659 74.2904 74.2918 76.0659 76.0674 74.2918 74.2933 74.2904 74.2918 72.5369 72.5383 74.2918 74.2933 72.5383 72.5398 76.0674 76.0689 74.2933 74.2948 76.0689 76.0706 74.2948 74.2965 74.2933 74.2948 72.5398 72.5414 74.2948 74.2965 72.5414 72.5431 72.5369 72.5383 70.8041 70.8056 72.5383 72.5398 70.8056 70.8071 70.8041 70.8056 69.0919 69.0933 70.8056 70.8071 69.0933 69.0948 72.5398 72.5414 70.8071 70.8087 72.5414 72.5431 70.8087 70.8104 70.8071 70.8087 69.0948 69.0965 70.8087 70.8104 69.0965 69.0982 76.0706 76.0723 74.2965 74.2982 76.0723 76.0741 74.2982 74.3 74.2965 74.2982 72.5431 72.5449 74.2982 74.3 72.5449 72.5467 76.0741 76.076 74.3 74.302 76.076 76.078 74.302 74.304 74.3 74.302 72.5467 72.5487 74.302 74.304 72.5487 72.5507 72.5431 72.5449 70.8104 70.8122 72.5449 72.5467 70.8122 70.8141 70.8104 70.8122 69.0982 69.1 70.8122 70.8141 69.1 69.1019 72.5467 72.5487 70.8141 70.816 72.5487 72.5507 70.816 70.8181 70.8141 70.816 69.1019 69.1039 70.816 70.8181 69.1039 69.106 69.0919 69.0933 67.4 67.4014 69.0933 69.0948 67.4014 67.403 67.4 67.4014 65.7283 65.7298 67.4014 67.403 65.7298 65.7314 69.0948 69.0965 67.403 67.4046 69.0965 69.0982 67.4046 67.4064 67.403 67.4046 65.7314 65.7331 67.4046 67.4064 65.7331 65.7348 65.7283 65.7298 64.0768 64.0783 65.7298 65.7314 64.0783 64.0799 64.0768 64.0783 62.4451 62.4467 64.0783 64.0799 62.4467 62.4483 65.7314 65.7331 64.0799 64.0816 65.7331 65.7348 64.0816 64.0834 64.0799 64.0816 62.4483 62.45 64.0816 64.0834 62.45 62.4518 69.0982 69.1 67.4064 67.4082 69.1 69.1019 67.4082 67.4102 67.4064 67.4082 65.7348 65.7367 67.4082 67.4102 65.7367 65.7387 69.1019 69.1039 67.4102 67.4122 69.1039 69.106 67.4122 67.4144 67.4102 67.4122 65.7387 65.7407 67.4122 67.4144 65.7407 65.7429 65.7348 65.7367 64.0834 64.0853 65.7367 65.7387 64.0853 64.0873 64.0834 64.0853 62.4518 62.4537 64.0853 64.0873 62.4537 62.4558 65.7387 65.7407 64.0873 64.0894 65.7407 65.7429 64.0894 64.0916 64.0873 64.0894 62.4558 62.4579 64.0894 64.0916 62.4579 62.4601 76.078 76.0801 74.304 74.3061 76.0801 76.0823 74.3061 74.3083 74.304 74.3061 72.5507 72.5529 74.3061 74.3083 72.5529 72.5551 76.0823 76.0846 74.3083 74.3107 76.0846 76.087 74.3107 74.3131 74.3083 74.3107 72.5551 72.5575 74.3107 74.3131 72.5575 72.56 72.5507 72.5529 70.8181 70.8203 72.5529 72.5551 70.8203 70.8226 70.8181 70.8203 69.106 69.1083 70.8203 70.8226 69.1083 69.1106 72.5551 72.5575 70.8226 70.825 72.5575 72.56 70.825 70.8275 70.8226 70.825 69.1106 69.113 70.825 70.8275 69.113 69.1155 76.087 76.0894 74.3131 74.3156 76.0894 76.092 74.3156 74.3182 74.3131 74.3156 72.56 72.5625 74.3156 74.3182 72.5625 72.5652 76.092 76.0947 74.3182 74.321 76.0947 76.0976 74.321 74.3238 74.3182 74.321 72.5652 72.568 74.321 74.3238 72.568 72.5709 72.56 72.5625 70.8275 70.8301 72.5625 72.5652 70.8301 70.8328 70.8275 70.8301 69.1155 69.1182 70.8301 70.8328 69.1182 69.1209 72.5652 72.568 70.8328 70.8356 72.568 72.5709 70.8356 70.8385 70.8328 70.8356 69.1209 69.1238 70.8356 70.8385 69.1238 69.1267 69.106 69.1083 67.4144 67.4166 69.1083 69.1106 67.4166 67.419 67.4144 67.4166 65.7429 65.7452 67.4166 67.419 65.7452 65.7476 69.1106 69.113 67.419 67.4214 69.113 69.1155 67.4214 67.424 67.419 67.4214 65.7476 65.7501 67.4214 67.424 65.7501 65.7527 65.7429 65.7452 64.0916 64.0939 65.7452 65.7476 64.0939 64.0963 64.0916 64.0939 62.4601 62.4625 64.0939 64.0963 62.4625 62.4649 65.7476 65.7501 64.0963 64.0988 65.7501 65.7527 64.0988 64.1015 64.0963 64.0988 62.4649 62.4675 64.0988 64.1015 62.4675 62.4701 69.1155 69.1182 67.424 67.4267 69.1182 69.1209 67.4267 67.4294 67.424 67.4267 65.7527 65.7554 67.4267 67.4294 65.7554 65.7582 69.1209 69.1238 67.4294 67.4323 69.1238 69.1267 67.4323 67.4354 67.4294 67.4323 65.7582 65.7612 67.4323 67.4354 65.7612 65.7642 65.7527 65.7554 64.1015 64.1042 65.7554 65.7582 64.1042 64.1071 64.1015 64.1042 62.4701 62.4729 64.1042 64.1071 62.4729 62.4758 65.7582 65.7612 64.1071 64.1101 65.7612 65.7642 64.1101 64.1132 64.1071 64.1101 62.4758 62.4789 64.1101 64.1132 62.4789 62.482 62.4335 62.4335 60.8214 60.8215 62.4335 62.4337 60.8215 60.8216 60.8214 60.8215 59.2288 59.2289 60.8215 60.8216 59.2289 59.229 62.4337 62.4339 60.8216 60.8218 62.4339 62.4342 60.8218 60.8221 60.8216 60.8218 59.229 59.2292 60.8218 60.8221 59.2292 59.2296 59.2288 59.2289 57.6555 57.6556 59.2289 59.229 57.6556 57.6557 57.6555 57.6556 56.1013 56.1013 57.6556 57.6557 56.1013 56.1015 59.229 59.2292 57.6557 57.656 59.2292 59.2296 57.656 57.6563 57.6557 57.656 56.1015 56.1017 57.656 57.6563 56.1017 56.102 62.4342 62.4346 60.8221 60.8226 62.4346 62.4351 60.8226 60.8231 60.8221 60.8226 59.2296 59.23 60.8226 60.8231 59.23 59.2305 62.4351 62.4357 60.8231 60.8236 62.4357 62.4364 60.8236 60.8243 60.8231 60.8236 59.2305 59.2311 60.8236 60.8243 59.2311 59.2318 59.2296 59.23 57.6563 57.6567 59.23 59.2305 57.6567 57.6572 57.6563 57.6567 56.102 56.1024 57.6567 57.6572 56.1024 56.103 59.2305 59.2311 57.6572 57.6578 59.2311 59.2318 57.6578 57.6585 57.6572 57.6578 56.103 56.1036 57.6578 57.6585 56.1036 56.1043 56.1013 56.1013 54.5658 54.5658 56.1013 56.1015 54.5658 54.566 54.5658 54.5658 53.0488 53.0489 54.5658 54.566 53.0489 53.049 56.1015 56.1017 54.566 54.5662 56.1017 56.102 54.5662 54.5666 54.566 54.5662 53.049 53.0493 54.5662 54.5666 53.0493 53.0496 53.0488 53.0489 51.5501 51.5502 53.0489 53.049 51.5502 51.5503 51.5501 51.5502 50.0694 50.0694 51.5502 51.5503 50.0694 50.0695 53.049 53.0493 51.5503 51.5506 53.0493 53.0496 51.5506 51.5509 51.5503 51.5506 50.0695 50.0698 51.5506 51.5509 50.0698 50.0701 56.102 56.1024 54.5666 54.567 56.1024 56.103 54.567 54.5675 54.5666 54.567 53.0496 53.05 54.567 54.5675 53.05 53.0506 56.103 56.1036 54.5675 54.5681 56.1036 56.1043 54.5681 54.5688 54.5675 54.5681 53.0506 53.0512 54.5681 54.5688 53.0512 53.0519 53.0496 53.05 51.5509 51.5513 53.05 53.0506 51.5513 51.5519 51.5509 51.5513 50.0701 50.0706 51.5513 51.5519 50.0706 50.0711 53.0506 53.0512 51.5519 51.5525 53.0512 53.0519 51.5525 51.5532 51.5519 51.5525 50.0711 50.0717 51.5525 51.5532 50.0717 50.0725 62.4364 62.4371 60.8243 60.8251 62.4371 62.438 60.8251 60.826 60.8243 60.8251 59.2318 59.2326 60.8251 60.826 59.2326 59.2335 62.438 62.439 60.826 60.8269 62.439 62.44 60.8269 60.828 60.826 60.8269 59.2335 59.2344 60.8269 60.828 59.2344 59.2355 59.2318 59.2326 57.6585 57.6593 59.2326 59.2335 57.6593 57.6602 57.6585 57.6593 56.1043 56.1051 57.6593 57.6602 56.1051 56.106 59.2335 59.2344 57.6602 57.6612 59.2344 59.2355 57.6612 57.6623 57.6602 57.6612 56.106 56.107 57.6612 57.6623 56.107 56.1081 62.44 62.4411 60.828 60.8292 62.4411 62.4424 60.8292 60.8304 60.828 60.8292 59.2355 59.2367 60.8292 60.8304 59.2367 59.2379 62.4424 62.4437 60.8304 60.8318 62.4437 62.4451 60.8318 60.8332 60.8304 60.8318 59.2379 59.2393 60.8318 60.8332 59.2393 59.2408 59.2355 59.2367 57.6623 57.6635 59.2367 59.2379 57.6635 57.6647 57.6623 57.6635 56.1081 56.1093 57.6635 57.6647 56.1093 56.1106 59.2379 59.2393 57.6647 57.6661 59.2393 59.2408 57.6661 57.6676 57.6647 57.6661 56.1106 56.112 57.6661 57.6676 56.112 56.1135 56.1043 56.1051 54.5688 54.5697 56.1051 56.106 54.5697 54.5706 54.5688 54.5697 53.0519 53.0527 54.5697 54.5706 53.0527 53.0537 56.106 56.107 54.5706 54.5716 56.107 56.1081 54.5716 54.5727 54.5706 54.5716 53.0537 53.0547 54.5716 54.5727 53.0547 53.0558 53.0519 53.0527 51.5532 51.5541 53.0527 53.0537 51.5541 51.555 51.5532 51.5541 50.0725 50.0733 51.5541 51.555 50.0733 50.0742 53.0537 53.0547 51.555 51.556 53.0547 53.0558 51.556 51.5571 51.555 51.556 50.0742 50.0753 51.556 51.5571 50.0753 50.0764 56.1081 56.1093 54.5727 54.5739 56.1093 56.1106 54.5739 54.5752 54.5727 54.5739 53.0558 53.057 54.5739 54.5752 53.057 53.0583 56.1106 56.112 54.5752 54.5766 56.112 56.1135 54.5766 54.5781 54.5752 54.5766 53.0583 53.0597 54.5766 54.5781 53.0597 53.0613 53.0558 53.057 51.5571 51.5584 53.057 53.0583 51.5584 51.5597 51.5571 