# vtk DataFile Version 3.0
#This file was generated by the deal.II library on 2018/10/14 at 22:28:57
ASCII
DATASET UNSTRUCTURED_GRID

POINTS 81920 double
0 0 0
0.0981748 0 0
0 0.156256 0
0.0981665 0.156256 0
0.0981748 0 0
0.19635 0 0
0.0981665 0.156256 0
0.196333 0.156256 0
0 0.156256 0
0.0981665 0.156256 0
0 0.312526 0
0.0981585 0.312526 0
0.0981665 0.156256 0
0.196333 0.156256 0
0.0981585 0.312526 0
0.196317 0.312526 0
0.19635 0 0
0.294524 0 0
0.196333 0.156256 0
0.294499 0.156256 0
0.294524 0 0
0.392699 0 0
0.294499 0.156256 0
0.392666 0.156256 0
0.196333 0.156256 0
0.294499 0.156256 0
0.196317 0.312526 0
0.294476 0.312526 0
0.294499 0.156256 0
0.392666 0.156256 0
0.294476 0.312526 0
0.392634 0.312526 0
0 0.312526 0
0.0981585 0.312526 0
0 0.468808 0
0.098151 0.468808 0
0.0981585 0.312526 0
0.196317 0.312526 0
0.098151 0.468808 0
0.196302 0.468808 0
0 0.468808 0
0.098151 0.468808 0
0 0.625101 0
0.0981438 0.625101 0
0.098151 0.468808 0
0.196302 0.468808 0
0.0981438 0.625101 0
0.196288 0.625101 0
0.196317 0.312526 0
0.294476 0.312526 0
0.196302 0.468808 0
0.294453 0.468808 0
0.294476 0.312526 0
0.392634 0.312526 0
0.294453 0.468808 0
0.392604 0.468807 0
0.196302 0.468808 0
0.294453 0.468808 0
0.196288 0.625101 0
0.294432 0.625101 0
0.294453 0.468808 0
0.392604 0.468807 0
0.294432 0.625101 0
0.392576 0.625101 0
0.392699 0 0
0.490874 0 0
0.392666 0.156256 0
0.490832 0.156256 0
0.490874 0 0
0.589049 0 0
0.490832 0.156256 0
0.588999 0.156256 0
0.392666 0.156256 0
0.490832 0.156256 0
0.392634 0.312526 0
0.490793 0.312526 0
0.490832 0.156256 0
0.588999 0.156256 0
0.490793 0.312526 0
0.588952 0.312526 0
0.589049 0 0
0.687223 0 0
0.588999 0.156256 0
0.687165 0.156256 0
0.687223 0 0
0.785398 0 0
0.687165 0.156256 0
0.785332 0.156256 0
0.588999 0.156256 0
0.687165 0.156256 0
0.588952 0.312526 0
0.68711 0.312525 0
0.687165 0.156256 0
0.785332 0.156256 0
0.68711 0.312525 0
0.785269 0.312525 0
0.392634 0.312526 0
0.490793 0.312526 0
0.392604 0.468807 0
0.490755 0.468807 0
0.490793 0.312526 0
0.588952 0.312526 0
0.490755 0.468807 0
0.588907 0.468807 0
0.392604 0.468807 0
0.490755 0.468807 0
0.392576 0.625101 0
0.49072 0.6251 0
0.490755 0.468807 0
0.588907 0.468807 0
0.49072 0.6251 0
0.588864 0.6251 0
0.588952 0.312526 0
0.68711 0.312525 0
0.588907 0.468807 0
0.687058 0.468807 0
0.68711 0.312525 0
0.785269 0.312525 0
0.687058 0.468807 0
0.785209 0.468807 0
0.588907 0.468807 0
0.687058 0.468807 0
0.588864 0.6251 0
0.687008 0.6251 0
0.687058 0.468807 0
0.785209 0.468807 0
0.687008 0.6251 0
0.785152 0.625099 0
0 0.625101 0
0.0981438 0.625101 0
0 0.781406 0
0.098137 0.781406 0
0.0981438 0.625101 0
0.196288 0.625101 0
0.098137 0.781406 0
0.196274 0.781406 0
0 0.781406 0
0.098137 0.781406 0
0 0.937721 0
0.0981305 0.937721 0
0.098137 0.781406 0
0.196274 0.781406 0
0.0981305 0.937721 0
0.196261 0.937721 0
0.196288 0.625101 0
0.294432 0.625101 0
0.196274 0.781406 0
0.294411 0.781405 0
0.294432 0.625101 0
0.392576 0.625101 0
0.294411 0.781405 0
0.392548 0.781405 0
0.196274 0.781406 0
0.294411 0.781405 0
0.196261 0.937721 0
0.294392 0.937721 0
0.294411 0.781405 0
0.392548 0.781405 0
0.294392 0.937721 0
0.392522 0.93772 0
0 0.937721 0
0.0981305 0.937721 0
0 1.09405 0
0.0981243 1.09405 0
0.0981305 0.937721 0
0.196261 0.937721 0
0.0981243 1.09405 0
0.196249 1.09405 0
0 1.09405 0
0.0981243 1.09405 0
0 1.25038 0
0.0981183 1.25038 0
0.0981243 1.09405 0
0.196249 1.09405 0
0.0981183 1.25038 0
0.196237 1.25038 0
0.196261 0.937721 0
0.294392 0.937721 0
0.196249 1.09405 0
0.294373 1.09405 0
0.294392 0.937721 0
0.392522 0.93772 0
0.294373 1.09405 0
0.392497 1.09405 0
0.196249 1.09405 0
0.294373 1.09405 0
0.196237 1.25038 0
0.294355 1.25038 0
0.294373 1.09405 0
0.392497 1.09405 0
0.294355 1.25038 0
0.392474 1.25038 0
0.392576 0.625101 0
0.49072 0.6251 0
0.392548 0.781405 0
0.490685 0.781405 0
0.49072 0.6251 0
0.588864 0.6251 0
0.490685 0.781405 0
0.588823 0.781404 0
0.392548 0.781405 0
0.490685 0.781405 0
0.392522 0.93772 0
0.490653 0.93772 0
0.490685 0.781405 0
0.588823 0.781404 0
0.490653 0.93772 0
0.588784 0.937719 0
0.588864 0.6251 0
0.687008 0.6251 0
0.588823 0.781404 0
0.68696 0.781404 0
0.687008 0.6251 0
0.785152 0.625099 0
0.68696 0.781404 0
0.785098 0.781403 0
0.588823 0.781404 0
0.68696 0.781404 0
0.588784 0.937719 0
0.686915 0.937718 0
0.68696 0.781404 0
0.785098 0.781403 0
0.686915 0.937718 0
0.785046 0.937717 0
0.392522 0.93772 0
0.490653 0.93772 0
0.392497 1.09405 0
0.490622 1.09404 0
0.490653 0.93772 0
0.588784 0.937719 0
0.490622 1.09404 0
0.588747 1.09404 0
0.392497 1.09405 0
0.490622 1.09404 0
0.392474 1.25038 0
0.490592 1.25038 0
0.490622 1.09404 0
0.588747 1.09404 0
0.490592 1.25038 0
0.588711 1.25038 0
0.588784 0.937719 0
0.686915 0.937718 0
0.588747 1.09404 0
0.686872 1.09404 0
0.686915 0.937718 0
0.785046 0.937717 0
0.686872 1.09404 0
0.784997 1.09404 0
0.588747 1.09404 0
0.686872 1.09404 0
0.588711 1.25038 0
0.68683 1.25038 0
0.686872 1.09404 0
0.784997 1.09404 0
0.68683 1.25038 0
0.784949 1.25037 0
0.785398 0 0
0.883573 0 0
0.785332 0.156256 0
0.883499 0.156256 0
0.883573 0 0
0.981748 0 0
0.883499 0.156256 0
0.981665 0.156256 0
0.785332 0.156256 0
0.883499 0.156256 0
0.785269 0.312525 0
0.883428 0.312525 0
0.883499 0.156256 0
0.981665 0.156256 0
0.883428 0.312525 0
0.981587 0.312525 0
0.981748 0 0
1.07992 0 0
0.981665 0.156256 0
1.07983 0.156256 0
1.07992 0 0
1.1781 0 0
1.07983 0.156256 0
1.178 0.156256 0
0.981665 0.156256 0
1.07983 0.156256 0
0.981587 0.312525 0
1.07975 0.312525 0
1.07983 0.156256 0
1.178 0.156256 0
1.07975 0.312525 0
1.17791 0.312525 0
0.785269 0.312525 0
0.883428 0.312525 0
0.785209 0.468807 0
0.883361 0.468806 0
0.883428 0.312525 0
0.981587 0.312525 0
0.883361 0.468806 0
0.981512 0.468806 0
0.785209 0.468807 0
0.883361 0.468806 0
0.785152 0.625099 0
0.883297 0.625099 0
0.883361 0.468806 0
0.981512 0.468806 0
0.883297 0.625099 0
0.981441 0.625098 0
0.981587 0.312525 0
1.07975 0.312525 0
0.981512 0.468806 0
1.07966 0.468806 0
1.07975 0.312525 0
1.17791 0.312525 0
1.07966 0.468806 0
1.17782 0.468805 0
0.981512 0.468806 0
1.07966 0.468806 0
0.981441 0.625098 0
1.07959 0.625098 0
1.07966 0.468806 0
1.17782 0.468805 0
1.07959 0.625098 0
1.17773 0.625097 0
1.1781 0 0
1.27627 0 0
1.178 0.156256 0
1.27617 0.156256 0
1.27627 0 0
1.37445 0 0
1.27617 0.156256 0
1.37433 0.156256 0
1.178 0.156256 0
1.27617 0.156256 0
1.17791 0.312525 0
1.27606 0.312525 0
1.27617 0.156256 0
1.37433 0.156256 0
1.27606 0.312525 0
1.37422 0.312524 0
1.37445 0 0
1.47262 0 0
1.37433 0.156256 0
1.4725 0.156256 0
1.47262 0 0
1.5708 0 0
1.4725 0.156256 0
1.57067 0.156256 0
1.37433 0.156256 0
1.4725 0.156256 0
1.37422 0.312524 0
1.47238 0.312524 0
1.4725 0.156256 0
1.57067 0.156256 0
1.47238 0.312524 0
1.57054 0.312524 0
1.17791 0.312525 0
1.27606 0.312525 0
1.17782 0.468805 0
1.27597 0.468805 0
1.27606 0.312525 0
1.37422 0.312524 0
1.27597 0.468805 0
1.37412 0.468804 0
1.17782 0.468805 0
1.27597 0.468805 0
1.17773 0.625097 0
1.27588 0.625096 0
1.27597 0.468805 0
1.37412 0.468804 0
1.27588 0.625096 0
1.37402 0.625095 0
1.37422 0.312524 0
1.47238 0.312524 0
1.37412 0.468804 0
1.47227 0.468804 0
1.47238 0.312524 0
1.57054 0.312524 0
1.47227 0.468804 0
1.57043 0.468803 0
1.37412 0.468804 0
1.47227 0.468804 0
1.37402 0.625095 0
1.47217 0.625095 0
1.47227 0.468804 0
1.57043 0.468803 0
1.47217 0.625095 0
1.57031 0.625094 0
0.785152 0.625099 0
0.883297 0.625099 0
0.785098 0.781403 0
0.883236 0.781402 0
0.883297 0.625099 0
0.981441 0.625098 0
0.883236 0.781402 0
0.981374 0.781401 0
0.785098 0.781403 0
0.883236 0.781402 0
0.785046 0.937717 0
0.883177 0.937716 0
0.883236 0.781402 0
0.981374 0.781401 0
0.883177 0.937716 0
0.981309 0.937715 0
0.981441 0.625098 0
1.07959 0.625098 0
0.981374 0.781401 0
1.07951 0.7814 0
1.07959 0.625098 0
1.17773 0.625097 0
1.07951 0.7814 0
1.17765 0.781399 0
0.981374 0.781401 0
1.07951 0.7814 0
0.981309 0.937715 0
1.07944 0.937713 0
1.07951 0.7814 0
1.17765 0.781399 0
1.07944 0.937713 0
1.17757 0.937712 0
0.785046 0.937717 0
0.883177 0.937716 0
0.784997 1.09404 0
0.883122 1.09404 0
0.883177 0.937716 0
0.981309 0.937715 0
0.883122 1.09404 0
0.981248 1.09404 0
0.784997 1.09404 0
0.883122 1.09404 0
0.784949 1.25037 0
0.883069 1.25037 0
0.883122 1.09404 0
0.981248 1.09404 0
0.883069 1.25037 0
0.981189 1.25037 0
0.981309 0.937715 0
1.07944 0.937713 0
0.981248 1.09404 0
1.07937 1.09404 0
1.07944 0.937713 0
1.17757 0.937712 0
1.07937 1.09404 0
1.1775 1.09403 0
0.981248 1.09404 0
1.07937 1.09404 0
0.981189 1.25037 0
1.07931 1.25037 0
1.07937 1.09404 0
1.1775 1.09403 0
1.07931 1.25037 0
1.17743 1.25037 0
1.17773 0.625097 0
1.27588 0.625096 0
1.17765 0.781399 0
1.27579 0.781398 0
1.27588 0.625096 0
1.37402 0.625095 0
1.27579 0.781398 0
1.37393 0.781397 0
1.17765 0.781399 0
1.27579 0.781398 0
1.17757 0.937712 0
1.27571 0.93771 0
1.27579 0.781398 0
1.37393 0.781397 0
1.27571 0.93771 0
1.37384 0.937708 0
1.37402 0.625095 0
1.47217 0.625095 0
1.37393 0.781397 0
1.47207 0.781396 0
1.47217 0.625095 0
1.57031 0.625094 0
1.47207 0.781396 0
1.57021 0.781394 0
1.37393 0.781397 0
1.47207 0.781396 0
1.37384 0.937708 0
1.47197 0.937707 0
1.47207 0.781396 0
1.57021 0.781394 0
1.47197 0.937707 0
1.57011 0.937705 0
1.17757 0.937712 0
1.27571 0.93771 0
1.1775 1.09403 0
1.27563 1.09403 0
1.27571 0.93771 0
1.37384 0.937708 0
1.27563 1.09403 0
1.37375 1.09403 0
1.1775 1.09403 0
1.27563 1.09403 0
1.17743 1.25037 0
1.27555 1.25036 0
1.27563 1.09403 0
1.37375 1.09403 0
1.27555 1.25036 0
1.37367 1.25036 0
1.37384 0.937708 0
1.47197 0.937707 0
1.37375 1.09403 0
1.47188 1.09403 0
1.47197 0.937707 0
1.57011 0.937705 0
1.47188 1.09403 0
1.57001 1.09402 0
1.37375 1.09403 0
1.47188 1.09403 0
1.37367 1.25036 0
1.47179 1.25036 0
1.47188 1.09403 0
1.57001 1.09402 0
1.47179 1.25036 0
1.56992 1.25035 0
0 1.25038 0
0.0981183 1.25038 0
0 1.40673 0
0.0981127 1.40673 0
0.0981183 1.25038 0
0.196237 1.25038 0
0.0981127 1.40673 0
0.196225 1.40673 0
0 1.40673 0
0.0981127 1.40673 0
0 1.56308 0
0.0981072 1.56308 0
0.0981127 1.40673 0
0.196225 1.40673 0
0.0981072 1.56308 0
[...]
POINT_DATA 81920
SCALARS T double 1
LOOKUP_TABLE default
76.0991 76.0991 74.1501 74.1501 76.0991 76.0991 74.1501 74.1501 74.1501 74.1501 72.2341 72.2341 74.1501 74.1501 72.2341 72.2341 76.0991 76.0991 74.1501 74.1501 76.0991 76.099 74.1501 74.15 74.1501 74.1501 72.2341 72.234 74.1501 74.15 72.234 72.234 72.2341 72.2341 70.3509 70.3509 72.2341 72.2341 70.3509 70.3509 70.3509 70.3509 68.5007 68.5007 70.3509 70.3509 68.5007 68.5007 72.2341 72.234 70.3509 70.3509 72.234 72.234 70.3509 70.3509 70.3509 70.3509 68.5007 68.5007 70.3509 70.3509 68.5007 68.5006 76.099 76.099 74.15 74.15 76.099 76.0989 74.15 74.1499 74.15 74.15 72.234 72.2339 74.15 74.1499 72.2339 72.2339 76.0989 76.0988 74.1499 74.1499 76.0988 76.0987 74.1499 74.1498 74.1499 74.1499 72.2339 72.2338 74.1499 74.1498 72.2338 72.2337 72.234 72.2339 70.3509 70.3508 72.2339 72.2339 70.3508 70.3508 70.3509 70.3508 68.5006 68.5006 70.3508 70.3508 68.5006 68.5005 72.2339 72.2338 70.3508 70.3507 72.2338 72.2337 70.3507 70.3506 70.3508 70.3507 68.5005 68.5005 70.3507 70.3506 68.5005 68.5004 68.5007 68.5007 66.6833 66.6833 68.5007 68.5007 66.6833 66.6833 66.6833 66.6833 64.8985 64.8985 66.6833 66.6833 64.8985 64.8985 68.5007 68.5007 66.6833 66.6832 68.5007 68.5006 66.6832 66.6832 66.6833 66.6832 64.8985 64.8984 66.6832 66.6832 64.8984 64.8984 64.8985 64.8985 63.1461 63.1461 64.8985 64.8985 63.1461 63.1461 63.1461 63.1461 61.426 61.426 63.1461 63.1461 61.426 61.426 64.8985 64.8984 63.1461 63.1461 64.8984 64.8984 63.1461 63.1461 63.1461 63.1461 61.426 61.426 63.1461 63.1461 61.426 61.426 68.5006 68.5006 66.6832 66.6832 68.5006 68.5005 66.6832 66.6831 66.6832 66.6832 64.8984 64.8984 66.6832 66.6831 64.8984 64.8983 68.5005 68.5005 66.6831 66.6831 68.5005 68.5004 66.6831 66.683 66.6831 66.6831 64.8983 64.8983 66.6831 66.683 64.8983 64.8982 64.8984 64.8984 63.1461 63.146 64.8984 64.8983 63.146 63.146 63.1461 63.146 61.426 61.4259 63.146 63.146 61.4259 61.4259 64.8983 64.8983 63.146 63.1459 64.8983 64.8982 63.1459 63.1459 63.146 63.1459 61.4259 61.4258 63.1459 63.1459 61.4258 61.4258 76.0987 76.0987 74.1498 74.1497 76.0987 76.0985 74.1497 74.1496 74.1498 74.1497 72.2337 72.2337 74.1497 74.1496 72.2337 72.2336 76.0985 76.0984 74.1496 74.1495 76.0984 76.0983 74.1495 74.1494 74.1496 74.1495 72.2336 72.2335 74.1495 74.1494 72.2335 72.2333 72.2337 72.2337 70.3506 70.3506 72.2337 72.2336 70.3506 70.3505 70.3506 70.3506 68.5004 68.5003 70.3506 70.3505 68.5003 68.5003 72.2336 72.2335 70.3505 70.3504 72.2335 72.2333 70.3504 70.3503 70.3505 70.3504 68.5003 68.5002 70.3504 70.3503 68.5002 68.5001 76.0983 76.0982 74.1494 74.1492 76.0982 76.098 74.1492 74.1491 74.1494 74.1492 72.2333 72.2332 74.1492 74.1491 72.2332 72.2331 76.098 76.0979 74.1491 74.1489 76.0979 76.0977 74.1489 74.1488 74.1491 74.1489 72.2331 72.2329 74.1489 74.1488 72.2329 72.2328 72.2333 72.2332 70.3503 70.3501 72.2332 72.2331 70.3501 70.35 70.3503 70.3501 68.5001 68.5 70.3501 70.35 68.5 68.4998 72.2331 72.2329 70.35 70.3499 72.2329 72.2328 70.3499 70.3497 70.35 70.3499 68.4998 68.4997 70.3499 70.3497 68.4997 68.4996 68.5004 68.5003 66.683 66.6829 68.5003 68.5003 66.6829 66.6828 66.683 66.6829 64.8982 64.8981 66.6829 66.6828 64.8981 64.8981 68.5003 68.5002 66.6828 66.6828 68.5002 68.5001 66.6828 66.6827 66.6828 66.6828 64.8981 64.898 66.6828 66.6827 64.898 64.8979 64.8982 64.8981 63.1459 63.1458 64.8981 64.8981 63.1458 63.1458 63.1459 63.1458 61.4258 61.4257 63.1458 63.1458 61.4257 61.4257 64.8981 64.898 63.1458 63.1457 64.898 64.8979 63.1457 63.1456 63.1458 63.1457 61.4257 61.4256 63.1457 63.1456 61.4256 61.4255 68.5001 68.5 66.6827 66.6826 68.5 68.4998 66.6826 66.6824 66.6827 66.6826 64.8979 64.8978 66.6826 66.6824 64.8978 64.8977 68.4998 68.4997 66.6824 66.6823 68.4997 68.4996 66.6823 66.6822 66.6824 66.6823 64.8977 64.8976 66.6823 66.6822 64.8976 64.8975 64.8979 64.8978 63.1456 63.1455 64.8978 64.8977 63.1455 63.1454 63.1456 63.1455 61.4255 61.4255 63.1455 63.1454 61.4255 61.4254 64.8977 64.8976 63.1454 63.1453 64.8976 64.8975 63.1453 63.1452 63.1454 63.1453 61.4254 61.4253 63.1453 63.1452 61.4253 61.4252 61.426 61.426 59.7378 59.7378 61.426 61.426 59.7378 59.7378 59.7378 59.7378 58.0813 58.0813 59.7378 59.7378 58.0813 58.0813 61.426 61.426 59.7378 59.7378 61.426 61.426 59.7378 59.7378 59.7378 59.7378 58.0813 58.0813 59.7378 59.7378 58.0813 58.0813 58.0813 58.0813 56.4561 56.4561 58.0813 58.0813 56.4561 56.4561 56.4561 56.4561 54.8619 54.8619 56.4561 56.4561 54.8619 54.8618 58.0813 58.0813 56.4561 56.4561 58.0813 58.0813 56.4561 56.4561 56.4561 56.4561 54.8618 54.8618 56.4561 56.4561 54.8618 54.8618 61.426 61.4259 59.7378 59.7378 61.4259 61.4259 59.7378 59.7377 59.7378 59.7378 58.0813 58.0813 59.7378 59.7377 58.0813 58.0812 61.4259 61.4258 59.7377 59.7377 61.4258 61.4258 59.7377 59.7377 59.7377 59.7377 58.0812 58.0812 59.7377 59.7377 58.0812 58.0812 58.0813 58.0813 56.4561 56.4561 58.0813 58.0812 56.4561 56.456 56.4561 56.4561 54.8618 54.8618 56.4561 56.456 54.8618 54.8618 58.0812 58.0812 56.456 56.456 58.0812 58.0812 56.456 56.456 56.456 56.456 54.8618 54.8618 56.456 56.456 54.8618 54.8617 54.8619 54.8619 53.2981 53.2981 54.8619 54.8618 53.2981 53.2981 53.2981 53.2981 51.7645 51.7645 53.2981 53.2981 51.7645 51.7645 54.8618 54.8618 53.2981 53.2981 54.8618 54.8618 53.2981 53.2981 53.2981 53.2981 51.7645 51.7645 53.2981 53.2981 51.7645 51.7645 51.7645 51.7645 50.2606 50.2606 51.7645 51.7645 50.2606 50.2606 50.2606 50.2606 48.7858 48.7858 50.2606 50.2606 48.7858 48.7858 51.7645 51.7645 50.2606 50.2606 51.7645 51.7645 50.2606 50.2606 50.2606 50.2606 48.7858 48.7858 50.2606 50.2606 48.7858 48.7858 54.8618 54.8618 53.2981 53.2981 54.8618 54.8618 53.2981 53.2981 53.2981 53.2981 51.7645 51.7645 53.2981 53.2981 51.7645 51.7645 54.8618 54.8618 53.2981 53.298 54.8618 54.8617 53.298 53.298 53.2981 53.298 51.7645 51.7644 53.298 53.298 51.7644 51.7644 51.7645 51.7645 50.2606 50.2605 51.7645 51.7645 50.2605 50.2605 50.2606 50.2605 48.7858 48.7858 50.2605 50.2605 48.7858 48.7858 51.7645 51.7644 50.2605 50.2605 51.7644 51.7644 50.2605 50.2605 50.2605 50.2605 48.7858 48.7858 50.2605 50.2605 48.7858 48.7858 61.4258 61.4257 59.7377 59.7376 61.4257 61.4257 59.7376 59.7375 59.7377 59.7376 58.0812 58.0811 59.7376 59.7375 58.0811 58.0811 61.4257 61.4256 59.7375 59.7375 61.4256 61.4255 59.7375 59.7374 59.7375 59.7375 58.0811 58.081 59.7375 59.7374 58.081 58.0809 58.0812 58.0811 56.456 56.4559 58.0811 58.0811 56.4559 56.4559 56.456 56.4559 54.8617 54.8617 56.4559 56.4559 54.8617 54.8616 58.0811 58.081 56.4559 56.4558 58.081 58.0809 56.4558 56.4558 56.4559 56.4558 54.8616 54.8616 56.4558 56.4558 54.8616 54.8616 61.4255 61.4255 59.7374 59.7373 61.4255 61.4254 59.7373 59.7373 59.7374 59.7373 58.0809 58.0809 59.7373 59.7373 58.0809 58.0808 61.4254 61.4253 59.7373 59.7372 61.4253 61.4252 59.7372 59.7371 59.7373 59.7372 58.0808 58.0807 59.7372 59.7371 58.0807 58.0806 58.0809 58.0809 56.4558 56.4557 58.0809 58.0808 56.4557 56.4557 56.4558 56.4557 54.8616 54.8615 56.4557 56.4557 54.8615 54.8614 58.0808 58.0807 56.4557 56.4556 58.0807 58.0806 56.4556 56.4555 56.4557 56.4556 54.8614 54.8614 56.4556 56.4555 54.8614 54.8613 54.8617 54.8617 53.298 53.298 54.8617 54.8616 53.298 53.2979 53.298 53.298 51.7644 51.7644 53.298 53.2979 51.7644 51.7644 54.8616 54.8616 53.2979 53.2979 54.8616 54.8616 53.2979 53.2979 53.2979 53.2979 51.7644 51.7643 53.2979 53.2979 51.7643 51.7643 51.7644 51.7644 50.2605 50.2605 51.7644 51.7644 50.2605 50.2605 50.2605 50.2605 48.7858 48.7858 50.2605 50.2605 48.7858 48.7857 51.7644 51.7643 50.2605 50.2604 51.7643 51.7643 50.2604 50.2604 50.2605 50.2604 48.7857 48.7857 50.2604 50.2604 48.7857 48.7857 54.8616 54.8615 53.2979 53.2978 54.8615 54.8614 53.2978 53.2978 53.2979 53.2978 51.7643 51.7643 53.2978 53.2978 51.7643 51.7642 54.8614 54.8614 53.2978 53.2977 54.8614 54.8613 53.2977 53.2977 53.2978 53.2977 51.7642 51.7642 53.2977 53.2977 51.7642 51.7641 51.7643 51.7643 50.2604 50.2604 51.7643 51.7642 50.2604 50.2603 50.2604 50.2604 48.7857 48.7857 50.2604 50.2603 48.7857 48.7857 51.7642 51.7642 50.2603 50.2603 51.7642 51.7641 50.2603 50.2603 50.2603 50.2603 48.7857 48.7856 50.2603 50.2603 48.7856 48.7856 76.0977 76.0975 74.1488 74.1486 76.0975 76.0973 74.1486 74.1484 74.1488 74.1486 72.2328 72.2326 74.1486 74.1484 72.2326 72.2324 76.0973 76.0971 74.1484 74.1482 76.0971 76.0969 74.1482 74.148 74.1484 74.1482 72.2324 72.2323 74.1482 74.148 72.2323 72.2321 72.2328 72.2326 70.3497 70.3496 72.2326 72.2324 70.3496 70.3494 70.3497 70.3496 68.4996 68.4994 70.3496 70.3494 68.4994 68.4993 72.2324 72.2323 70.3494 70.3492 72.2323 72.2321 70.3492 70.3491 70.3494 70.3492 68.4993 68.4991 70.3492 70.3491 68.4991 68.4989 76.0969 76.0967 74.148 74.1478 76.0967 76.0964 74.1478 74.1476 74.148 74.1478 72.2321 72.2319 74.1478 74.1476 72.2319 72.2317 76.0964 76.0962 74.1476 74.1473 76.0962 76.0959 74.1473 74.1471 74.1476 74.1473 72.2317 72.2314 74.1473 74.1471 72.2314 72.2312 72.2321 72.2319 70.3491 70.3489 72.2319 72.2317 70.3489 70.3487 70.3491 70.3489 68.4989 68.4987 70.3489 70.3487 68.4987 68.4986 72.2317 72.2314 70.3487 70.3484 72.2314 72.2312 70.3484 70.3482 70.3487 70.3484 68.4986 68.4984 70.3484 70.3482 68.4984 68.4982 68.4996 68.4994 66.6822 66.6821 68.4994 68.4993 66.6821 66.6819 66.6822 66.6821 64.8975 64.8973 66.6821 66.6819 64.8973 64.8972 68.4993 68.4991 66.6819 66.6818 68.4991 68.4989 66.6818 66.6816 66.6819 66.6818 64.8972 64.8971 66.6818 66.6816 64.8971 64.8969 64.8975 64.8973 63.1452 63.1451 64.8973 64.8972 63.1451 63.145 63.1452 63.1451 61.4252 61.4251 63.1451 63.145 61.4251 61.4249 64.8972 64.8971 63.145 63.1448 64.8971 64.8969 63.1448 63.1447 63.145 63.1448 61.4249 61.4248 63.1448 63.1447 61.4248 61.4247 68.4989 68.4987 66.6816 66.6814 68.4987 68.4986 66.6814 66.6813 66.6816 66.6814 64.8969 64.8968 66.6814 66.6813 64.8968 64.8966 68.4986 68.4984 66.6813 66.6811 68.4984 68.4982 66.6811 66.6809 66.6813 66.6811 64.8966 64.8964 66.6811 66.6809 64.8964 64.8963 64.8969 64.8968 63.1447 63.1446 64.8968 64.8966 63.1446 63.1444 63.1447 63.1446 61.4247 61.4246 63.1446 63.1444 61.4246 61.4244 64.8966 64.8964 63.1444 63.1442 64.8964 64.8963 63.1442 63.1441 63.1444 63.1442 61.4244 61.4243 63.1442 63.1441 61.4243 61.4241 76.0959 76.0957 74.1471 74.1469 76.0957 76.0954 74.1469 74.1466 74.1471 74.1469 72.2312 72.231 74.1469 74.1466 72.231 72.2307 76.0954 76.0951 74.1466 74.1463 76.0951 76.0948 74.1463 74.146 74.1466 74.1463 72.2307 72.2305 74.1463 74.146 72.2305 72.2302 72.2312 72.231 70.3482 70.348 72.231 72.2307 70.348 70.3478 70.3482 70.348 68.4982 68.4979 70.348 70.3478 68.4979 68.4977 72.2307 72.2305 70.3478 70.3475 72.2305 72.2302 70.3475 70.3473 70.3478 70.3475 68.4977 68.4975 70.3475 70.3473 68.4975 68.4973 76.0948 76.0945 74.146 74.1458 76.0945 76.0942 74.1458 74.1455 74.146 74.1458 72.2302 72.2299 74.1458 74.1455 72.2299 72.2296 76.0942 76.0939 74.1455 74.1452 76.0939 76.0936 74.1452 74.1448 74.1455 74.1452 72.2296 72.2293 74.1452 74.1448 72.2293 72.229 72.2302 72.2299 70.3473 70.347 72.2299 72.2296 70.347 70.3468 70.3473 70.347 68.4973 68.497 70.347 70.3468 68.497 68.4968 72.2296 72.2293 70.3468 70.3465 72.2293 72.229 70.3465 70.3462 70.3468 70.3465 68.4968 68.4965 70.3465 70.3462 68.4965 68.4962 68.4982 68.4979 66.6809 66.6807 68.4979 68.4977 66.6807 66.6805 66.6809 66.6807 64.8963 64.8961 66.6807 66.6805 64.8961 64.8959 68.4977 68.4975 66.6805 66.6803 68.4975 68.4973 66.6803 66.68 66.6805 66.6803 64.8959 64.8957 66.6803 66.68 64.8957 64.8955 64.8963 64.8961 63.1441 63.1439 64.8961 64.8959 63.1439 63.1437 63.1441 63.1439 61.4241 61.424 63.1439 63.1437 61.424 61.4238 64.8959 64.8957 63.1437 63.1435 64.8957 64.8955 63.1435 63.1434 63.1437 63.1435 61.4238 61.4236 63.1435 63.1434 61.4236 61.4235 68.4973 68.497 66.68 66.6798 68.497 68.4968 66.6798 66.6796 66.68 66.6798 64.8955 64.8953 66.6798 66.6796 64.8953 64.895 68.4968 68.4965 66.6796 66.6793 68.4965 68.4962 66.6793 66.6791 66.6796 66.6793 64.895 64.8948 66.6793 66.6791 64.8948 64.8946 64.8955 64.8953 63.1434 63.1432 64.8953 64.895 63.1432 63.1429 63.1434 63.1432 61.4235 61.4233 63.1432 63.1429 61.4233 61.4231 64.895 64.8948 63.1429 63.1427 64.8948 64.8946 63.1427 63.1425 63.1429 63.1427 61.4231 61.4229 63.1427 63.1425 61.4229 61.4227 61.4252 61.4251 59.7371 59.737 61.4251 61.4249 59.737 59.7369 59.7371 59.737 58.0806 58.0806 59.737 59.7369 58.0806 58.0805 61.4249 61.4248 59.7369 59.7368 61.4248 61.4247 59.7368 59.7367 59.7369 59.7368 58.0805 58.0804 59.7368 59.7367 58.0804 58.0803 58.0806 58.0806 56.4555 56.4554 58.0806 58.0805 56.4554 56.4554 56.4555 56.4554 54.8613 54.8612 56.4554 56.4554 54.8612 54.8612 58.0805 58.0804 56.4554 56.4553 58.0804 58.0803 56.4553 56.4552 56.4554 56.4553 54.8612 54.8611 56.4553 56.4552 54.8611 54.861 61.4247 61.4246 59.7367 59.7365 61.4246 61.4244 59.7365 59.7364 59.7367 59.7365 58.0803 58.0802 59.7365 59.7364 58.0802 58.08 61.4244 61.4243 59.7364 59.7363 61.4243 61.4241 59.7363 59.7361 59.7364 59.7363 58.08 58.0799 59.7363 59.7361 58.0799 58.0798 58.0803 58.0802 56.4552 56.4551 58.0802 58.08 56.4551 56.455 56.4552 56.4551 54.861 54.8609 56.4551 56.455 54.8609 54.8608 58.08 58.0799 56.455 56.4549 58.0799 58.0798 56.4549 56.4547 56.455 56.4549 54.8608 54.8607 56.4549 56.4547 54.8607 54.8606 54.8613 54.8612 53.2977 53.2976 54.8612 54.8612 53.2976 53.2975 53.2977 53.2976 51.7641 51.7641 53.2976 53.2975 51.7641 51.764 54.8612 54.8611 53.2975 53.2975 54.8611 54.861 53.2975 53.2974 53.2975 53.2975 51.764 51.764 53.2975 53.2974 51.764 51.7639 51.7641 51.7641 50.2603 50.2602 51.7641 51.764 50.2602 50.2602 50.2603 50.2602 48.7856 48.7856 50.2602 50.2602 48.7856 48.7855 51.764 51.764 50.2602 50.2601 51.764 51.7639 50.2601 50.2601 50.2602 50.2601 48.7855 48.7855 50.2601 50.2601 48.7855 48.7854 54.861 54.8609 53.2974 53.2973 54.8609 54.8608 53.2973 53.2972 53.2974 53.2973 51.7639 51.7638 53.2973 53.2972 51.7638 51.7638 54.8608 54.8607 53.2972 53.2972 54.8607 54.8606 53.2972 53.2971 53.2972 53.2972 51.7638 51.7637 53.2972 53.2971 51.7637 51.7636 51.7639 51.7638 50.2601 50.26 51.7638 51.7638 50.26 50.26 50.2601 50.26 48.7854 48.7854 50.26 50.26 48.7854 48.7853 51.7638 51.7637 50.26 50.2599 51.7637 51.7636 50.2599 50.2598 50.26 50.2599 48.7853 48.7853 50.2599 50.2598 48.7853 48.7852 61.4241 61.424 59.7361 59.736 61.424 61.4238 59.736 59.7358 59.7361 59.736 58.0798 58.0797 59.736 59.7358 58.0797 58.0795 61.4238 61.4236 59.7358 59.7357 61.4236 61.4235 59.7357 59.7355 59.7358 59.7357 58.0795 58.0794 59.7357 59.7355 58.0794 58.0792 58.0798 58.0797 56.4547 56.4546 58.0797 58.0795 56.4546 56.4545 56.4547 56.4546 54.8606 54.8605 56.4546 56.4545 54.8605 54.8604 58.0795 58.0794 56.4545 56.4544 58.0794 58.0792 56.4544 56.4542 56.4545 56.4544 54.8604 54.8603 56.4544 56.4542 54.8603 54.8602 61.4235 61.4233 59.7355 59.7354 61.4233 61.4231 59.7354 59.7352 59.7355 59.7354 58.0792 58.0791 59.7354 59.7352 58.0791 58.0789 61.4231 61.4229 59.7352 59.735 61.4229 61.4227 59.735 59.7348 59.7352 59.735 58.0789 58.0787 59.735 59.7348 58.0787 58.0786 58.0792 58.0791 56.4542 56.4541 58.0791 58.0789 56.4541 56.454 56.4542 56.4541 54.8602 54.8601 56.4541 56.454 54.8601 54.8599 58.0789 58.0787 56.454 56.4538 58.0787 58.0786 56.4538 56.4536 56.454 56.4538 54.8599 54.8598 56.4538 56.4536 54.8598 54.8596 54.8606 54.8605 53.2971 53.297 54.8605 54.8604 53.297 53.2969 53.2971 53.297 51.7636 51.7635 53.297 53.2969 51.7635 51.7634 54.8604 54.8603 53.2969 53.2968 54.8603 54.8602 53.2968 53.2967 53.2969 53.2968 51.7634 51.7634 53.2968 53.2967 51.7634 51.7633 51.7636 51.7635 50.2598 50.2598 51.7635 51.7634 50.2598 50.2597 50.2598 50.2598 48.7852 48.7852 50.2598 50.2597 48.7852 48.7851 51.7634 51.7634 50.2597 50.2596 51.7634 51.7633 50.2596 50.2595 50.2597 50.2596 48.7851 48.7851 50.2596 50.2595 48.7851 48.785 54.8602 54.8601 53.2967 53.2966 54.8601 54.8599 53.2966 53.2964 53.2967 53.2966 51.7633 51.7632 53.2966 53.2964 51.7632 51.7631 54.8599 54.8598 53.2964 53.2963 54.8598 54.8596 53.2963 53.2962 53.2964 53.2963 51.7631 51.763 53.2963 53.2962 51.763 51.7628 51.7633 51.7632 50.2595 50.2594 51.7632 51.7631 50.2594 50.2593 50.2595 50.2594 48.785 48.7849 50.2594 50.2593 48.7849 48.7848 51.7631 51.763 50.2593 50.2593 51.763 51.7628 50.2593 50.2592 50.2593 50.2593 48.7848 48.7848 50.2593 50.2592 48.7848 48.7847 48.7858 48.7858 47.3398 47.3398 48.7858 48.7858 47.3398 47.3398 47.3398 47.3398 45.922 45.922 47.3398 47.3398 45.922 45.922 48.7858 48.7858 47.3398 47.3398 48.7858 48.7858 47.3398 47.3398 47.3398 47.3398 45.922 45.922 47.3398 47.3398 45.922 45.922 45.922 45.922 44.5319 44.5319 45.922 45.922 44.5319 44.5319 44.5319 44.5319 43.169 43.169 44.5319 44.5319 43.169 43.169 45.922 45.922 44.5319 44.5319 45.922 45.922 44.5319 44.5319 44.5319 44.5319 43.169 43.169 44.5319 44.5319 43.169 43.169 48.7858 48.7858 47.3398 47.3398 48.7858 48.7858 47.3398 47.3398 47.3398 47.3398 45.922 45.922 47.3398 47.3398 45.922 45.922 48.7858 48.7858 47.3398 47.3398 48.7858 48.7858 47.3398 47.3398 47.3398 47.3398 45.922 45.922 47.3398 47.3398 45.922 45.922 45.922 45.922 44.5319 44.5319 45.922 45.922 44.5319 44.5319 44.5319 44.5319 43.169 43.169 44.5319 44.5319 43.169 43.169 45.922 45.922 44.5319 44.5319 45.922 45.922 44.5319 44.5319 44.5319 44.5319 43.169 43.169 44.5319 44.5319 43.169 43.169 43.169 43.169 41.8326 41.8326 43.169 43.169 41.8326 41.8326 41.8326 41.8326 40.5223 40.5223 41.8326 41.8326 40.5223 40.5223 43.169 43.169 41.8326 41.8326 43.169 43.169 41.8326 41.8326 41.8326 41.8326 40.5223 40.5223 41.8326 41.8326 40.5223 40.5223 40.5223 40.5223 39.2375 39.2375 40.5223 40.5223 39.2375 39.2375 39.2375 39.2375 37.9776 37.9776 39.2375 39.2375 37.9776 37.9776 40.5223 40.5223 39.2375 39.2375 40.5223 40.5223 39.2375 39.2375 39.2375 39.2375 37.9776 37.9776 39.2375 39.2375 37.9776 37.9776 43.169 43.169 41.8326 41.8326 43.169 43.169 41.8326 41.8326 41.8326 41.8326 40.5223 40.5223 41.8326 41.8326 40.5223 40.5223 43.169 43.169 41.8326 41.8326 43.169 43.169 41.8326 41.8326 41.8326 41.8326 40.5223 40.5223 41.8326 41.8326 40.5223 40.5223 40.5223 40.5223 39.2375 39.2375 40.5223 40.5223 39.2375 39.2375 39.2375 39.2375 37.9776 37.9776 39.2375 39.2375 37.9776 37.9776 40.5223 40.5223 39.2375 39.2375 40.5223 40.5223 39.2375 39.2375 39.2375 39.2375 37.9776 37.9776 39.2375 39.2375 37.9776 37.9776 48.7858 48.7858 47.3398 47.3398 48.7858 48.7857 47.3398 47.3398 47.3398 47.3398 45.922 45.922 47.3398 47.3398 45.922 45.922 48.7857 48.7857 47.3398 47.3397 48.7857 48.7857 47.3397 47.3397 47.3398 47.3397 45.922 45.922 47.3397 47.3397 45.922 45.922 45.922 45.922 44.5319 44.5319 45.922 45.922 44.5319 44.5319 44.5319 44.5319 43.169 43.169 44.5319 44.5319 43.169 43.169 45.922 45.922 44.5319 44.5319 45.922 45.922 44.5319 44.5319 44.5319 44.5319 43.169 43.169 44.5319 44.5319 43.169 43.169 48.7857 48.7857 47.3397 47.3397 48.7857 48.7857 47.3397 47.3397 47.3397 47.3397 45.922 45.9219 47.3397 47.3397 45.9219 45.9219 48.7857 48.7856 47.3397 47.3397 48.7856 48.7856 47.3397 47.3396 47.3397 47.3397 45.9219 45.9219 47.3397 47.3396 45.9219 45.9219 45.922 45.9219 44.5319 44.5319 45.9219 45.9219 44.5319 44.5319 44.5319 44.5319 43.169 43.169 44.5319 44.5319 43.169 43.169 45.9219 45.9219 44.5319 44.5319 45.9219 45.9219 44.5319 44.5319 44.5319 44.5319 43.169 43.169 44.5319 44.5319 43.169 43.169 43.169 43.169 41.8326 41.8326 43.169 43.169 41.8326 41.8326 41.8326 41.8326 40.5223 40.5224 41.8326 41.8326 40.5224 40.5224 43.169 43.169 41.8326 41.8326 43.169 43.169 41.8326 41.8326 41.8326 41.8326 40.5224 40.5224 41.8326 41.8326 40.5224 40.5224 40.5223 40.5224 39.2375 39.2376 40.5224 40.5224 39.2376 39.2376 39.2375 39.2376 37.9776 37.9777 39.2376 39.2376 37.9777 37.9777 40.5224 40.5224 39.2376 39.2376 40.5224 40.5224 39.2376 39.2376 39.2376 39.2376 37.9777 37.9777 39.2376 39.2376 37.9777 37.9777 43.169 43.169 41.8326 41.8327 43.169 43.169 41.8327 41.8327 41.8326 41.8327 40.5224 40.5224 41.8327 41.8327 40.5224 40.5224 43.169 43.169 41.8327 41.8327 43.169 43.169 41.8327 41.8327 41.8327 41.8327 40.5224 40.5224 41.8327 41.8327 40.5224 40.5224 40.5224 40.5224 39.2376 39.2376 40.5224 40.5224 39.2376 3