# vtk DataFile Version 3.0
#This file was generated by the deal.II library on 2018/10/15 at 8:53:00
ASCII
DATASET UNSTRUCTURED_GRID

POINTS 20480 double
0 0 0
0.19635 0 0
0 0.302539 0
0.19635 0.302539 0
0.19635 0 0
0.392699 0 0
0.19635 0.302539 0
0.392699 0.302539 0
0 0.302539 0
0.19635 0.302539 0
0 0.615365 0
0.19635 0.615365 0
0.19635 0.302539 0
0.392699 0.302539 0
0.19635 0.615365 0
0.392699 0.615365 0
0.392699 0 0
0.589049 0 0
0.392699 0.302539 0
0.589049 0.302539 0
0.589049 0 0
0.785398 0 0
0.589049 0.302539 0
0.785398 0.302539 0
0.392699 0.302539 0
0.589049 0.302539 0
0.392699 0.615365 0
0.589049 0.615365 0
0.589049 0.302539 0
0.785398 0.302539 0
0.589049 0.615365 0
0.785398 0.615365 0
0 0.615365 0
0.19635 0.615365 0
0 0.927921 0
0.19635 0.927921 0
0.19635 0.615365 0
0.392699 0.615365 0
0.19635 0.927921 0
0.392699 0.927921 0
0 0.927921 0
0.19635 0.927921 0
0 1.24088 0
0.19635 1.24088 0
0.19635 0.927921 0
0.392699 0.927921 0
0.19635 1.24088 0
0.392699 1.24088 0
0.392699 0.615365 0
0.589049 0.615365 0
0.392699 0.927921 0
0.589049 0.927921 0
0.589049 0.615365 0
0.785398 0.615365 0
0.589049 0.927921 0
0.785398 0.927921 0
0.392699 0.927921 0
0.589049 0.927921 0
0.392699 1.24088 0
0.589049 1.24088 0
0.589049 0.927921 0
0.785398 0.927921 0
0.589049 1.24088 0
0.785398 1.24088 0
0.785398 0 0
0.981748 0 0
0.785398 0.302539 0
0.981748 0.302539 0
0.981748 0 0
1.1781 0 0
0.981748 0.302539 0
1.1781 0.302539 0
0.785398 0.302539 0
0.981748 0.302539 0
0.785398 0.615365 0
0.981748 0.615365 0
0.981748 0.302539 0
1.1781 0.302539 0
0.981748 0.615365 0
1.1781 0.615365 0
1.1781 0 0
1.37445 0 0
1.1781 0.302539 0
1.37445 0.302539 0
1.37445 0 0
1.5708 0 0
1.37445 0.302539 0
1.5708 0.302539 0
1.1781 0.302539 0
1.37445 0.302539 0
1.1781 0.615365 0
1.37445 0.615365 0
1.37445 0.302539 0
1.5708 0.302539 0
1.37445 0.615365 0
1.5708 0.615365 0
0.785398 0.615365 0
0.981748 0.615365 0
0.785398 0.927921 0
0.981748 0.927921 0
0.981748 0.615365 0
1.1781 0.615365 0
0.981748 0.927921 0
1.1781 0.927921 0
0.785398 0.927921 0
0.981748 0.927921 0
0.785398 1.24088 0
0.981748 1.24088 0
0.981748 0.927921 0
1.1781 0.927921 0
0.981748 1.24088 0
1.1781 1.24088 0
1.1781 0.615365 0
1.37445 0.615365 0
1.1781 0.927921 0
1.37445 0.927921 0
1.37445 0.615365 0
1.5708 0.615365 0
1.37445 0.927921 0
1.5708 0.927921 0
1.1781 0.927921 0
1.37445 0.927921 0
1.1781 1.24088 0
1.37445 1.24088 0
1.37445 0.927921 0
1.5708 0.927921 0
1.37445 1.24088 0
1.5708 1.24088 0
0 1.24088 0
0.19635 1.24088 0
0 1.55374 0
0.19635 1.55374 0
0.19635 1.24088 0
0.392699 1.24088 0
0.19635 1.55374 0
0.392699 1.55374 0
0 1.55374 0
0.19635 1.55374 0
0 1.86663 0
0.19635 1.86663 0
0.19635 1.55374 0
0.392699 1.55374 0
0.19635 1.86663 0
0.392699 1.86663 0
0.392699 1.24088 0
0.589049 1.24088 0
0.392699 1.55374 0
0.589049 1.55374 0
0.589049 1.24088 0
0.785398 1.24088 0
0.589049 1.55374 0
0.785398 1.55374 0
0.392699 1.55374 0
0.589049 1.55374 0
0.392699 1.86663 0
0.589049 1.86663 0
0.589049 1.55374 0
0.785398 1.55374 0
0.589049 1.86663 0
0.785398 1.86663 0
0 1.86663 0
0.19635 1.86663 0
0 2.1795 0
0.19635 2.1795 0
0.19635 1.86663 0
0.392699 1.86663 0
0.19635 2.1795 0
0.392699 2.1795 0
0 2.1795 0
0.19635 2.1795 0
0 2.49236 0
0.19635 2.49236 0
0.19635 2.1795 0
0.392699 2.1795 0
0.19635 2.49236 0
0.392699 2.49236 0
0.392699 1.86663 0
0.589049 1.86663 0
0.392699 2.1795 0
0.589049 2.1795 0
0.589049 1.86663 0
0.785398 1.86663 0
0.589049 2.1795 0
0.785398 2.1795 0
0.392699 2.1795 0
0.589049 2.1795 0
0.392699 2.49236 0
0.589049 2.49236 0
0.589049 2.1795 0
0.785398 2.1795 0
0.589049 2.49236 0
0.785398 2.49236 0
0.785398 1.24088 0
0.981748 1.24088 0
0.785398 1.55374 0
0.981748 1.55374 0
0.981748 1.24088 0
1.1781 1.24088 0
0.981748 1.55374 0
1.1781 1.55374 0
0.785398 1.55374 0
0.981748 1.55374 0
0.785398 1.86663 0
0.981748 1.86663 0
0.981748 1.55374 0
1.1781 1.55374 0
0.981748 1.86663 0
1.1781 1.86663 0
1.1781 1.24088 0
1.37445 1.24088 0
1.1781 1.55374 0
1.37445 1.55374 0
1.37445 1.24088 0
1.5708 1.24088 0
1.37445 1.55374 0
1.5708 1.55374 0
1.1781 1.55374 0
1.37445 1.55374 0
1.1781 1.86663 0
1.37445 1.86663 0
1.37445 1.55374 0
1.5708 1.55374 0
1.37445 1.86663 0
1.5708 1.86663 0
0.785398 1.86663 0
0.981748 1.86663 0
0.785398 2.1795 0
0.981748 2.1795 0
0.981748 1.86663 0
1.1781 1.86663 0
0.981748 2.1795 0
1.1781 2.1795 0
0.785398 2.1795 0
0.981748 2.1795 0
0.785398 2.49236 0
0.981748 2.49236 0
0.981748 2.1795 0
1.1781 2.1795 0
0.981748 2.49236 0
1.1781 2.49236 0
1.1781 1.86663 0
1.37445 1.86663 0
1.1781 2.1795 0
1.37445 2.1795 0
1.37445 1.86663 0
1.5708 1.86663 0
1.37445 2.1795 0
1.5708 2.1795 0
1.1781 2.1795 0
1.37445 2.1795 0
1.1781 2.49236 0
1.37445 2.49236 0
1.37445 2.1795 0
1.5708 2.1795 0
1.37445 2.49236 0
1.5708 2.49236 0
1.5708 0 0
1.76715 0 0
1.5708 0.302539 0
1.76715 0.302539 0
1.76715 0 0
1.9635 0 0
1.76715 0.302539 0
1.9635 0.302539 0
1.5708 0.302539 0
1.76715 0.302539 0
1.5708 0.615365 0
1.76715 0.615365 0
1.76715 0.302539 0
1.9635 0.302539 0
1.76715 0.615365 0
1.9635 0.615365 0
1.9635 0 0
2.15984 0 0
1.9635 0.302539 0
2.15984 0.302539 0
2.15984 0 0
2.35619 0 0
2.15984 0.302539 0
2.35619 0.302539 0
1.9635 0.302539 0
2.15984 0.302539 0
1.9635 0.615365 0
2.15984 0.615365 0
2.15984 0.302539 0
2.35619 0.302539 0
2.15984 0.615365 0
2.35619 0.615365 0
1.5708 0.615365 0
1.76715 0.615365 0
1.5708 0.927921 0
1.76715 0.927921 0
1.76715 0.615365 0
1.9635 0.615365 0
1.76715 0.927921 0
1.9635 0.927921 0
1.5708 0.927921 0
1.76715 0.927921 0
1.5708 1.24088 0
1.76715 1.24088 0
1.76715 0.927921 0
1.9635 0.927921 0
1.76715 1.24088 0
1.9635 1.24088 0
1.9635 0.615365 0
2.15984 0.615365 0
1.9635 0.927921 0
2.15984 0.927921 0
2.15984 0.615365 0
2.35619 0.615365 0
2.15984 0.927921 0
2.35619 0.927921 0
1.9635 0.927921 0
2.15984 0.927921 0
1.9635 1.24088 0
2.15984 1.24088 0
2.15984 0.927921 0
2.35619 0.927921 0
2.15984 1.24088 0
2.35619 1.24088 0
2.35619 0 0
2.55254 0 0
2.35619 0.302539 0
2.55254 0.302539 0
2.55254 0 0
2.74889 0 0
2.55254 0.302539 0
2.74889 0.302539 0
2.35619 0.302539 0
2.55254 0.302539 0
2.35619 0.615365 0
2.55254 0.615365 0
2.55254 0.302539 0
2.74889 0.302539 0
2.55254 0.615365 0
2.74889 0.615365 0
2.74889 0 0
2.94524 0 0
2.74889 0.302539 0
2.94524 0.302539 0
2.94524 0 0
3.14159 0 0
2.94524 0.302539 0
3.14159 0.302539 0
2.74889 0.302539 0
2.94524 0.302539 0
2.74889 0.615365 0
2.94524 0.615365 0
2.94524 0.302539 0
3.14159 0.302539 0
2.94524 0.615365 0
3.14159 0.615365 0
2.35619 0.615365 0
2.55254 0.615365 0
2.35619 0.927921 0
2.55254 0.927921 0
2.55254 0.615365 0
2.74889 0.615365 0
2.55254 0.927921 0
2.74889 0.927921 0
2.35619 0.927921 0
2.55254 0.927921 0
2.35619 1.24088 0
2.55254 1.24088 0
2.55254 0.927921 0
2.74889 0.927921 0
2.55254 1.24088 0
2.74889 1.24088 0
2.74889 0.615365 0
2.94524 0.615365 0
2.74889 0.927921 0
2.94524 0.927921 0
2.94524 0.615365 0
3.14159 0.615365 0
2.94524 0.927921 0
3.14159 0.927921 0
2.74889 0.927921 0
2.94524 0.927921 0
2.74889 1.24088 0
2.94524 1.24088 0
2.94524 0.927921 0
3.14159 0.927921 0
2.94524 1.24088 0
3.14159 1.24088 0
1.5708 1.24088 0
1.76715 1.24088 0
1.5708 1.55374 0
1.76715 1.55374 0
1.76715 1.24088 0
1.9635 1.24088 0
1.76715 1.55374 0
1.9635 1.55374 0
1.5708 1.55374 0
1.76715 1.55374 0
1.5708 1.86663 0
1.76715 1.86663 0
1.76715 1.55374 0
1.9635 1.55374 0
1.76715 1.86663 0
1.9635 1.86663 0
1.9635 1.24088 0
2.15984 1.24088 0
1.9635 1.55374 0
2.15984 1.55374 0
2.15984 1.24088 0
2.35619 1.24088 0
2.15984 1.55374 0
2.35619 1.55374 0
1.9635 1.55374 0
2.15984 1.55374 0
1.9635 1.86663 0
2.15984 1.86663 0
2.15984 1.55374 0
2.35619 1.55374 0
2.15984 1.86663 0
2.35619 1.86663 0
1.5708 1.86663 0
1.76715 1.86663 0
1.5708 2.1795 0
1.76715 2.1795 0
1.76715 1.86663 0
1.9635 1.86663 0
1.76715 2.1795 0
1.9635 2.1795 0
1.5708 2.1795 0
1.76715 2.1795 0
1.5708 2.49236 0
1.76715 2.49236 0
1.76715 2.1795 0
1.9635 2.1795 0
1.76715 2.49236 0
1.9635 2.49236 0
1.9635 1.86663 0
2.15984 1.86663 0
1.9635 2.1795 0
2.15984 2.1795 0
2.15984 1.86663 0
2.35619 1.86663 0
2.15984 2.1795 0
2.35619 2.1795 0
1.9635 2.1795 0
2.15984 2.1795 0
1.9635 2.49236 0
2.15984 2.49236 0
2.15984 2.1795 0
2.35619 2.1795 0
2.15984 2.49236 0
2.35619 2.49236 0
2.35619 1.24088 0
2.55254 1.24088 0
2.35619 1.55374 0
2.55254 1.55374 0
2.55254 1.24088 0
2.74889 1.24088 0
2.55254 1.55374 0
2.74889 1.55374 0
2.35619 1.55374 0
2.55254 1.55374 0
2.35619 1.86663 0
2.55254 1.86663 0
2.55254 1.55374 0
2.74889 1.55374 0
2.55254 1.86663 0
2.74889 1.86663 0
2.74889 1.24088 0
2.94524 1.24088 0
2.74889 1.55374 0
2.94524 1.55374 0
2.94524 1.24088 0
3.14159 1.24088 0
2.94524 1.55374 0
3.14159 1.55374 0
2.74889 1.55374 0
2.94524 1.55374 0
2.74889 1.86663 0
2.94524 1.86663 0
2.94524 1.55374 0
3.14159 1.55374 0
2.94524 1.86663 0
3.14159 1.86663 0
2.35619 1.86663 0
2.55254 1.86663 0
2.35619 2.1795 0
2.55254 2.1795 0
2.55254 1.86663 0
2.74889 1.86663 0
2.55254 2.1795 0
2.74889 2.1795 0
2.35619 2.1795 0
2.55254 2.1795 0
2.35619 2.49236 0
2.55254 2.49236 0
2.55254 2.1795 0
2.74889 2.1795 0
2.55254 2.49236 0
2.74889 2.49236 0
2.74889 1.86663 0
2.94524 1.86663 0
2.74889 2.1795 0
2.94524 2.1795 0
2.94524 1.86663 0
3.14159 1.86663 0
2.94524 2.1795 0
3.14159 2.1795 0
2.74889 2.1795 0
2.94524 2.1795 0
2.74889 2.49236 0
2.94524 2.49236 0
2.94524 2.1795 0
3.14159 2.1795 0
2.94524 2.49236 0
3.14159 2.49236 0
0 2.49236 0
0.19635 2.49236 0
0 2.80522 0
0.19635 2.80522 0
0.19635 2.49236 0
0.392699 2.49236 0
0.19635 2.80522 0
0.392699 2.80522 0
0 2.80522 0
0.19635 2.80522 0
0 3.11807 0
0.19635 3.11807 0
0.19635 2.80522 0
0.392699 2.80522 0
0.19635 3.11807 0
0.392699 3.11807 0
0.392699 2.49236 0
0.589049 2.49236 0
0.392699 2.80522 0
0.589049 2.80522 0
0.589049 2.49236 0
0.785398 2.49236 0
0.589049 2.80522 0
0.785398 2.80522 0
0.392699 2.80522 0
0.589049 2.80522 0
0.392699 3.11807 0
0.589049 3.11807 0
0.589049 2.80522 0
0.785398 2.80522 0
0.589049 3.11807 0
0.785398 3.11807 0
0 3.11807 0
0.19635 3.11807 0
0 3.43091 0
0.19635 3.43091 0
0.19635 3.11807 0
0.392699 3.11807 0
0.19635 3.43091 0
0.392699 3.43091 0
0 3.43091 0
0.19635 3.43091 0
0 3.74375 0
[...]
POINT_DATA 20480
VECTORS uf double
0 1 0
3.96768e-16 1 0
0 1.0009 0
-1.21789e-14 1.0009 0
3.96768e-16 1 0
-6.8966e-15 1 0
-1.21789e-14 1.0009 0
4.8866e-15 1.0009 0
0 1.0009 0
3.77404e-15 1.0009 0
0 1.00067 0
6.90525e-15 1.00067 0
3.77404e-15 1.0009 0
1.2269e-15 1.0009 0
6.90525e-15 1.00067 0
4.204e-15 1.00067 0
-6.8966e-15 1 0
-9.60465e-15 1 0
4.8866e-15 1.0009 0
7.22699e-15 1.0009 0
-9.60465e-15 1 0
-9.6709e-15 1 0
7.22699e-15 1.0009 0
-8.54139e-16 1.0009 0
1.2269e-15 1.0009 0
-1.1432e-14 1.0009 0
4.204e-15 1.00067 0
1.61157e-14 1.00067 0
-1.1432e-14 1.0009 0
7.47093e-16 1.0009 0
1.61157e-14 1.00067 0
1.27894e-14 1.00067 0
0 1.00067 0
-1.67977e-14 1.00067 0
0 1.00071 0
3.35768e-14 1.00071 0
-1.67977e-14 1.00067 0
-1.41913e-14 1.00067 0
3.35768e-14 1.00071 0
7.22177e-15 1.00071 0
0 1.00071 0
-2.31622e-14 1.00071 0
0 1.00067 0
-4.70486e-15 1.00067 0
-2.31622e-14 1.00071 0
6.38442e-16 1.00071 0
-4.70486e-15 1.00067 0
3.77029e-15 1.00067 0
-1.41913e-14 1.00067 0
-1.80911e-14 1.00067 0
7.22177e-15 1.00071 0
1.90146e-14 1.00071 0
-1.80911e-14 1.00067 0
-1.76676e-14 1.00067 0
1.90146e-14 1.00071 0
2.29493e-14 1.00071 0
6.38442e-16 1.00071 0
-6.39964e-15 1.00071 0
3.77029e-15 1.00067 0
1.10432e-14 1.00067 0
-6.39964e-15 1.00071 0
-9.51513e-15 1.00071 0
1.10432e-14 1.00067 0
1.27931e-14 1.00067 0
-9.6709e-15 1 0
-1.63986e-14 1 0
-8.54139e-16 1.0009 0
3.41316e-15 1.0009 0
-1.63986e-14 1 0
-1.95016e-14 1 0
3.41316e-15 1.0009 0
1.47472e-14 1.0009 0
7.47093e-16 1.0009 0
-2.96447e-15 1.0009 0
1.27894e-14 1.00067 0
1.8187e-14 1.00067 0
-2.96447e-15 1.0009 0
-1.25776e-14 1.0009 0
1.8187e-14 1.00067 0
2.40436e-14 1.00067 0
-1.95016e-14 1 0
-8.41883e-15 1 0
1.47472e-14 1.0009 0
1.45113e-14 1.0009 0
-8.41883e-15 1 0
-6.43509e-16 1 0
1.45113e-14 1.0009 0
1.42482e-14 1.0009 0
-1.25776e-14 1.0009 0
-1.93312e-14 1.0009 0
2.40436e-14 1.00067 0
2.47226e-14 1.00067 0
-1.93312e-14 1.0009 0
-9.17485e-15 1.0009 0
2.47226e-14 1.00067 0
-2.73982e-15 1.00067 0
-1.76676e-14 1.00067 0
-1.07323e-14 1.00067 0
2.29493e-14 1.00071 0
1.69104e-14 1.00071 0
-1.07323e-14 1.00067 0
-1.24401e-14 1.00067 0
1.69104e-14 1.00071 0
1.77489e-14 1.00071 0
-9.51513e-15 1.00071 0
-9.65063e-15 1.00071 0
1.27931e-14 1.00067 0
1.62492e-14 1.00067 0
-9.65063e-15 1.00071 0
-1.34473e-14 1.00071 0
1.62492e-14 1.00067 0
1.17342e-14 1.00067 0
-1.24401e-14 1.00067 0
-2.13105e-14 1.00067 0
1.77489e-14 1.00071 0
1.97836e-14 1.00071 0
-2.13105e-14 1.00067 0
-3.096e-15 1.00067 0
1.97836e-14 1.00071 0
1.40515e-14 1.00071 0
-1.34473e-14 1.00071 0
-7.27332e-15 1.00071 0
1.17342e-14 1.00067 0
3.63386e-15 1.00067 0
-7.27332e-15 1.00071 0
-1.29677e-14 1.00071 0
3.63386e-15 1.00067 0
7.77482e-15 1.00067 0
0 1.00067 0
1.10187e-14 1.00067 0
0 1.00065 0
-8.818e-16 1.00065 0
1.10187e-14 1.00067 0
-6.65347e-15 1.00067 0
-8.818e-16 1.00065 0
4.9926e-15 1.00065 0
0 1.00065 0
3.83274e-16 1.00065 0
0 1.00062 0
-6.75082e-15 1.00062 0
3.83274e-16 1.00065 0
5.67204e-15 1.00065 0
-6.75082e-15 1.00062 0
1.70931e-14 1.00062 0
-6.65347e-15 1.00067 0
-1.8243e-14 1.00067 0
4.9926e-15 1.00065 0
1.54315e-14 1.00065 0
-1.8243e-14 1.00067 0
-3.49753e-15 1.00067 0
1.54315e-14 1.00065 0
-4.9351e-15 1.00065 0
5.67204e-15 1.00065 0
-1.39579e-14 1.00065 0
1.70931e-14 1.00062 0
1.62306e-14 1.00062 0
-1.39579e-14 1.00065 0
5.56091e-16 1.00065 0
1.62306e-14 1.00062 0
-4.11528e-15 1.00062 0
0 1.00062 0
4.71517e-15 1.00062 0
0 1.0006 0
-8.02033e-17 1.0006 0
4.71517e-15 1.00062 0
-3.25148e-14 1.00062 0
-8.02033e-17 1.0006 0
-1.26893e-14 1.0006 0
0 1.0006 0
1.70385e-14 1.0006 0
0 1.00058 0
1.60345e-14 1.00058 0
1.70385e-14 1.0006 0
1.1911e-14 1.0006 0
1.60345e-14 1.00058 0
2.29366e-14 1.00058 0
-3.25148e-14 1.00062 0
-1.10853e-14 1.00062 0
-1.26893e-14 1.0006 0
1.27631e-14 1.0006 0
-1.10853e-14 1.00062 0
-1.21672e-16 1.00062 0
1.27631e-14 1.0006 0
9.69655e-15 1.0006 0
1.1911e-14 1.0006 0
-1.54077e-14 1.0006 0
2.29366e-14 1.00058 0
6.70242e-15 1.00058 0
-1.54077e-14 1.0006 0
-1.55286e-14 1.0006 0
6.70242e-15 1.00058 0
1.8166e-14 1.00058 0
-3.49753e-15 1.00067 0
-1.58149e-14 1.00067 0
-4.9351e-15 1.00065 0
1.64114e-14 1.00065 0
-1.58149e-14 1.00067 0
-6.65287e-15 1.00067 0
1.64114e-14 1.00065 0
3.4106e-15 1.00065 0
5.56091e-16 1.00065 0
-1.14757e-14 1.00065 0
-4.11528e-15 1.00062 0
5.27269e-15 1.00062 0
-1.14757e-14 1.00065 0
2.08202e-15 1.00065 0
5.27269e-15 1.00062 0
4.41154e-15 1.00062 0
-6.65287e-15 1.00067 0
-2.70276e-15 1.00067 0
3.4106e-15 1.00065 0
1.5643e-14 1.00065 0
-2.70276e-15 1.00067 0
2.51364e-15 1.00067 0
1.5643e-14 1.00065 0
5.48431e-15 1.00065 0
2.08202e-15 1.00065 0
-8.83962e-15 1.00065 0
4.41154e-15 1.00062 0
5.75653e-16 1.00062 0
-8.83962e-15 1.00065 0
-7.9182e-15 1.00065 0
5.75653e-16 1.00062 0
8.23091e-15 1.00062 0
-1.21672e-16 1.00062 0
-1.20581e-14 1.00062 0
9.69655e-15 1.0006 0
6.79977e-15 1.0006 0
-1.20581e-14 1.00062 0
-1.2925e-14 1.00062 0
6.79977e-15 1.0006 0
1.50669e-14 1.0006 0
-1.55286e-14 1.0006 0
-1.12976e-14 1.0006 0
1.8166e-14 1.00058 0
2.39184e-14 1.00058 0
-1.12976e-14 1.0006 0
-2.10756e-14 1.0006 0
2.39184e-14 1.00058 0
1.6362e-14 1.00058 0
-1.2925e-14 1.00062 0
-2.88853e-15 1.00062 0
1.50669e-14 1.0006 0
9.9893e-15 1.0006 0
-2.88853e-15 1.00062 0
-1.05489e-14 1.00062 0
9.9893e-15 1.0006 0
5.54202e-15 1.0006 0
-2.10756e-14 1.0006 0
-1.37182e-14 1.0006 0
1.6362e-14 1.00058 0
7.14523e-15 1.00058 0
-1.37182e-14 1.0006 0
-6.30726e-15 1.0006 0
7.14523e-15 1.00058 0
1.48101e-14 1.00058 0
-6.43509e-16 1 0
-5.83469e-15 1 0
1.42482e-14 1.0009 0
1.96187e-14 1.0009 0
-5.83469e-15 1 0
-4.08056e-15 1 0
1.96187e-14 1.0009 0
1.75036e-14 1.0009 0
-9.17485e-15 1.0009 0
-1.94214e-14 1.0009 0
-2.73982e-15 1.00067 0
2.15534e-14 1.00067 0
-1.94214e-14 1.0009 0
-2.11461e-15 1.0009 0
2.15534e-14 1.00067 0
-5.99161e-15 1.00067 0
-4.08056e-15 1 0
-5.90157e-15 1 0
1.75036e-14 1.0009 0
1.7432e-14 1.0009 0
-5.90157e-15 1 0
-9.42446e-15 1 0
1.7432e-14 1.0009 0
2.33687e-14 1.0009 0
-2.11461e-15 1.0009 0
-1.31921e-14 1.0009 0
-5.99161e-15 1.00067 0
1.28483e-14 1.00067 0
-1.31921e-14 1.0009 0
-1.06604e-14 1.0009 0
1.28483e-14 1.00067 0
-3.80248e-15 1.00067 0
-3.096e-15 1.00067 0
-2.05041e-14 1.00067 0
1.40515e-14 1.00071 0
1.87356e-14 1.00071 0
-2.05041e-14 1.00067 0
-1.22644e-14 1.00067 0
1.87356e-14 1.00071 0
1.60565e-14 1.00071 0
-1.29677e-14 1.00071 0
-1.40039e-14 1.00071 0
7.77482e-15 1.00067 0
1.30855e-14 1.00067 0
-1.40039e-14 1.00071 0
-5.36508e-15 1.00071 0
1.30855e-14 1.00067 0
1.1014e-14 1.00067 0
-1.22644e-14 1.00067 0
-1.40517e-14 1.00067 0
1.60565e-14 1.00071 0
1.69048e-14 1.00071 0
-1.40517e-14 1.00067 0
5.24857e-15 1.00067 0
1.69048e-14 1.00071 0
1.30745e-14 1.00071 0
-5.36508e-15 1.00071 0
-1.78288e-14 1.00071 0
1.1014e-14 1.00067 0
1.62411e-14 1.00067 0
-1.78288e-14 1.00071 0
-1.03698e-14 1.00071 0
1.62411e-14 1.00067 0
1.66845e-15 1.00067 0
-9.42446e-15 1 0
7.05398e-15 1 0
2.33687e-14 1.0009 0
-1.27777e-16 1.0009 0
7.05398e-15 1 0
-1.44601e-14 1 0
-1.27777e-16 1.0009 0
2.74078e-14 1.0009 0
-1.06604e-14 1.0009 0
4.70583e-16 1.0009 0
-3.80248e-15 1.00067 0
-2.62346e-15 1.00067 0
4.70583e-16 1.0009 0
-1.74572e-14 1.0009 0
-2.62346e-15 1.00067 0
1.34209e-14 1.00067 0
-1.44601e-14 1 0
-8.41436e-16 1 0
2.74078e-14 1.0009 0
2.3964e-15 1.0009 0
-8.41436e-16 1 0
-5.01211e-15 1 0
2.3964e-15 1.0009 0
1.53447e-14 1.0009 0
-1.74572e-14 1.0009 0
2.80761e-15 1.0009 0
1.34209e-14 1.00067 0
1.29639e-14 1.00067 0
2.80761e-15 1.0009 0
-2.22698e-15 1.0009 0
1.29639e-14 1.00067 0
8.72246e-15 1.00067 0
5.24857e-15 1.00067 0
8.60093e-15 1.00067 0
1.30745e-14 1.00071 0
3.86794e-15 1.00071 0
8.60093e-15 1.00067 0
-1.02172e-14 1.00067 0
3.86794e-15 1.00071 0
1.80178e-14 1.00071 0
-1.03698e-14 1.00071 0
-9.68496e-15 1.00071 0
1.66845e-15 1.00067 0
6.97638e-15 1.00067 0
-9.68496e-15 1.00071 0
-1.135e-14 1.00071 0
6.97638e-15 1.00067 0
6.50211e-15 1.00067 0
-1.02172e-14 1.00067 0
-2.2474e-14 1.00067 0
1.80178e-14 1.00071 0
2.05281e-14 1.00071 0
-2.2474e-14 1.00067 0
-1.15757e-14 1.00067 0
2.05281e-14 1.00071 0
1.46977e-14 1.00071 0
-1.135e-14 1.00071 0
-1.04321e-14 1.00071 0
6.50211e-15 1.00067 0
1.03762e-14 1.00067 0
-1.04321e-14 1.00071 0
-1.42325e-14 1.00071 0
1.03762e-14 1.00067 0
1.94101e-14 1.00067 0
2.51364e-15 1.00067 0
-7.20577e-15 1.00067 0
5.48431e-15 1.00065 0
-1.50664e-15 1.00065 0
-7.20577e-15 1.00067 0
-1.22699e-14 1.00067 0
-1.50664e-15 1.00065 0
1.17547e-14 1.00065 0
-7.9182e-15 1.00065 0
-1.3548e-15 1.00065 0
8.23091e-15 1.00062 0
1.39701e-14 1.00062 0
-1.3548e-15 1.00065 0
-1.07898e-14 1.00065 0
1.39701e-14 1.00062 0
1.59687e-14 1.00062 0
-1.22699e-14 1.00067 0
-1.1121e-14 1.00067 0
1.17547e-14 1.00065 0
1.26415e-14 1.00065 0
-1.1121e-14 1.00067 0
5.89223e-15 1.00067 0
1.26415e-14 1.00065 0
-1.74397e-15 1.00065 0
-1.07898e-14 1.00065 0
-1.33866e-14 1.00065 0
1.59687e-14 1.00062 0
1.85543e-14 1.00062 0
-1.33866e-14 1.00065 0
-4.73119e-15 1.00065 0
1.85543e-14 1.00062 0
1.87507e-14 1.00062 0
-1.05489e-14 1.00062 0
-1.35878e-14 1.00062 0
5.54202e-15 1.0006 0
9.07993e-15 1.0006 0
-1.35878e-14 1.00062 0
-1.92601e-14 1.00062 0
9.07993e-15 1.0006 0
1.98494e-14 1.0006 0
-6.30726e-15 1.0006 0
-1.1134e-14 1.0006 0
1.48101e-14 1.00058 0
1.42177e-14 1.00058 0
-1.1134e-14 1.0006 0
-1.49219e-14 1.0006 0
1.42177e-14 1.00058 0
1.39613e-14 1.00058 0
-1.92601e-14 1.00062 0
-2.02156e-14 1.00062 0
1.98494e-14 1.0006 0
2.3535e-14 1.0006 0
-2.02156e-14 1.00062 0
-1.53209e-14 1.00062 0
2.3535e-14 1.0006 0
1.32458e-14 1.0006 0
-1.49219e-14 1.0006 0
-1.59607e-14 1.0006 0
1.39613e-14 1.00058 0
1.95358e-14 1.00058 0
-1.59607e-14 1.0006 0
-1.80194e-14 1.0006 0
1.95358e-14 1.00058 0
1.46086e-14 1.00058 0
5.89223e-15 1.00067 0
-7.71264e-15 1.00067 0
-1.74397e-15 1.00065 0
9.84371e-15 1.00065 0
-7.71264e-15 1.00067 0
-2.88102e-15 1.00067 0
9.84371e-15 1.00065 0
1.48984e-14 1.00065 0
-4.73119e-15 1.00065 0
-7.36094e-15 1.00065 0
1.87507e-14 1.00062 0
1.97382e-14 1.00062 0
-7.36094e-15 1.00065 0
-8.06093e-15 1.00065 0
1.97382e-14 1.00062 0
1.05412e-14 1.00062 0
-2.88102e-15 1.00067 0
2.97301e-16 1.00067 0
1.48984e-14 1.00065 0
6.87538e-15 1.00065 0
2.97301e-16 1.00067 0
-5.77036e-15 1.00067 0
6.87538e-15 1.00065 0
1.13823e-15 1.00065 0
-8.06093e-15 1.00065 0
-1.70994e-15 1.00065 0
1.05412e-14 1.00062 0
1.02412e-14 1.00062 0
-1.70994e-15 1.00065 0
-6.49807e-15 1.00065 0
1.02412e-14 1.00062 0
1.427e-14 1.00062 0
-1.53209e-14 1.00062 0
-9.94113e-15 1.00062 0
1.32458e-14 1.0006 0
1.01711e-14 1.0006 0
-9.94113e-15 1.00062 0
-6.77543e-15 1.00062 0
1.01711e-14 1.0006 0
1.83066e-14 1.0006 0
-1.80194e-14 1.0006 0
-7.56541e-15 1.0006 0
1.46086e-14 1.00058 0
4.527e-15 1.00058 0
-7.56541e-15 1.0006 0
-2.30392e-14 1.0006 0
4.527e-15 1.00058 0
1.13072e-14 1.00058 0
-6.77543e-15 1.00062 0
-8.25741e-15 1.00062 0
1.83066e-14 1.0006 0
1.0133e-14 1.0006 0
-8.25741e-15 1.00062 0
-6.89303e-15 1.00062 0
1.0133e-14 1.0006 0
6.76526e-15 1.0006 0
-2.30392e-14 1.0006 0
-1.21611e-14 1.0006 0
1.13072e-14 1.00058 0
5.40977e-15 1.00058 0
-1.21611e-14 1.0006 0
3.81802e-15 1.0006 0
5.40977e-15 1.00058 0
3.09373e-15 1.00058 0
0 1.00058 0
-1.89499e-14 1.00058 0
0 1.00056 0
-3.02949e-14 1.00056 0
-1.89499e-14 1.00058 0
-2.05532e-15 1.00058 0
-3.02949e-14 1.00056 0
-3.54967e-15 1.00056 0
0 1.00056 0
1.29107e-14 1.00056 0
0 1.00054 0
3.05822e-14 1.00054 0
1.29107e-14 1.00056 0
-1.71244e-15 1.00056 0
3.05822e-14 1.00054 0
4.44565e-15 1.00054 0
-2.05532e-15 1.00058 0
5.05654e-15 1.00058 0
-3.54967e-15 1.00056 0
4.03232e-16 1.00056 0
5.05654e-15 1.00058 0
-1.74334e-14 1.00058 0
4.03232e-16 1.00056 0
9.58834e-15 1.00056 0
-1.71244e-15 1.00056 0
-4.14624e-15 1.00056 0
4.44565e-15 1.00054 0
2.73859e-15 1.00054 0
-4.14624e-15 1.00056 0
-5.16303e-15 1.00056 0
2.73859e-15 1.00054 0
1.23194e-14 1.00054 0
0 1.00054 0
-1.86019e-14 1.00054 0
0 1.00051 0
-1.48973e-14 1.00051 0
-1.86019e-14 1.00054 0
-1.09496e-14 1.00054 0
-1.48973e-14 1.00051 0
-4.75679e-15 1.00051 0
0 1.00051 0
1.0806e-14 1.00051 0
0 1.00049 0
1.10875e-14 1.00049 0
1.0806e-14 1.00051 0
1.72475e-14 1.00051 0
1.10875e-14 1.00049 0
1.00807e-14 1.00049 0
-1.09496e-14 1.00054 0
1.17176e-15 1.00054 0
-4.75679e-15 1.00051 0
1.79912e-15 1.00051 0
1.17176e-15 1.00054 0
-1.59454e-14 1.00054 0
1.79912e-15 1.00051 0
1.72186e-14 1.00051 0
1.72475e-14 1.00051 0
-3.49475e-15 1.00051 0
1.00807e-14 1.00049 0
-4.29526e-15 1.00049 0
-3.49475e-15 1.00051 0
-6.33795e-15 1.00051 0
-4.29526e-15 1.00049 0
7.3165e-15 1.00049 0
-1.74334e-14 1.00058 0
-1.30055e-14 1.00058 0
9.58834e-15 1.00056 0
8.79797e-15 1.00056 0
-1.30055e-14 1.00058 0
-1.18844e-14 1.00058 0
8.79797e-15 1.00056 0
1.67341e-14 1.00056 0
-5.16303e-15 1.00056 0
-5.85337e-15 1.00056 0
1.23194e-14 1.00054 0
7.45354e-15 1.00054 0
-5.85337e-15 1.00056 0
-1.18553e-14 1.00056 0
7.45354e-15 1.00054 0
1.10267e-14 1.00054 0
-1.18844e-14 1.00058 0
-3.65118e-15 1.00058 0
1.67341e-14 1.00056 0
6.89029e-15 1.00056 0
-3.65118e-15 1.00058 0
-8.19152e-15 1.00058 0
6.89029e-15 1.00056 0
1.03955e-14 1.00056 0
-1.18553e-14 1.00056 0
2.75883e-15 1.00056 0
1.10267e-14 1.00054 0
3.58305e-15 1.00054 0
2.75883e-15 1.00056 0
-1.01869e-14 1.00056 0
3.58305e-15 1.00054 0
1.58206e-14 1.00054 0
-1.59454e-14 1.00054 0
7.60638e-16 1.00054 0
1.72186e-14 1.00051 0
6.28765e-15 1.00051 0
7.60638e-16 1.00054 0
-1.14888e-14 1.00054 0
6.28765e-15 1.00051 0
1.23748e-14 1.00051 0
-6.33795e-15 1.00051 0
-1.54952e-14 1.00051 0
7.3165e-15 1.00049 0
8.54625e-15 1.00049 0
-1.54952e-14 1.00051 0
-1.21334e-14 1.00051 0
8.54625e-15 1.00049 0
1.43633e-14 1.00049 0
-1.14888e-14 1.00054 0
-6.35376e-15 1.00054 0
1.23748e-14 1.00051 0
7.11944e-15 1.00051 0
-6.35376e-15 1.00054 0
-1.87914e-14 1.00054 0
7.11944e-15 1.00051 0
1.84525e-14 1.00051 0
-1.21334e-14 1.00051 0
-1.09699e-14 1.00051 0
1.43633e-14 1.00049 0
9.8192e-15 1.00049 0
-1.09699e-14 1.00051 0
-1.70597e-14 1.00051 0
9.8192e-15 1.00049 0
1.40892e-14 1.00049 0
0 1.00049 0
-3.16806e-15 1.00049 0
0 1.00047 0
-1.64578e-14 1.00047 0
-3.16806e-15 1.00049 0
-2.19139e-14 1.00049 0
-1.64578e-14 1.00047 0
-1.56269e-14 1.00047 0
0 1.00047 0
1.3801e-14 1.00047 0
0 1.00045 0
2.01213e-14 1.00045 0
1.3801e-14 1.00047 0
7.29653e-15 1.00047 0
2.01213e-14 1.00045 0
8.86513e-15 1.00045 0
-2.19139e-14 1.00049 0
1.49518e-15 1.00049 0
-1.56269e-14 1.00047 0
1.85836e-14 1.00047 0
1.49518e-15 1.00049 0
-1.62122e-14 1.00049 0
1.85836e-14 1.00047 0
2.00136e-14 1.00047 0
7.29653e-15 1.00047 0
-1.5229e-14 1.00047 0
8.86513e-15 1.00045 0
4.68188e-15 1.00045 0
-1.5229e-14 1.00047 0
-1.42278e-14 1.00047 0
4.68188e-15 1.00045 0
1.20213e-14 1.00045 0
0 1.00045 0
-2.08672e-14 1.00045 0
0 1.00043 0
-1.56303e-14 1.00043 0
-2.08672e-14 1.00045 0
1.8547e-14 1.00045 0
-1.56303e-14 1.00043 0
-3.0969e-15 1.00043 0
0 1.00043 0
4.88701e-15 1.00043 0
0 1.00041 0
-3.56312e-15 1.00041 0
4.88701e-15 1.00043 0
-1.0287e-14 1.00043 0
-3.56312e-15 1.00041 0
-1.18126e-14 1.00041 0
1.8547e-14 1.00045 0
-1.61823e-14 1.00045 0
-3.0969e-15 1.00043 0
5.35719e-15 1.00043 0
-1.61823e-14 1.00045 0
-2.78841e-14 1.00045 0
5.35719e-15 1.00043 0
3.34226e-15 1.00043 0
-1.0287e-14 1.00043 0
-9.03504e-16 1.00043 0
-1.18126e-14 1.00041 0
1.74179e-14 1.00041 0
-9.03504e-16 1.00043 0
-1.7301e-15 1.00043 0
1.74179e-14 1.00041 0
2.40486e-14 1.00041 0
-1.62122e-14 1.00049 0
-1.69586e-14 1.00049 0
2.00136e-14 1.00047 0
2.59936e-14 1.00047 0
-1.69586e-14 1.00049 0
-9.83605e-15 1.00049 0
2.59936e-14 1.00047 0
8.67743e-15 1.00047 0
-1.42278e-14 1.00047 0
-1.72744e-14 1.00047 0
1.20213e-14 1.00045 0
4.03663e-15 1.00045 0
-1.72744e-14 1.00047 0
-1.87085e-14 1.00047 0
4.03663e-15 1.00045 0
1.67758e-14 1.00045 0
-9.83605e-15 1.00049 0
-8.59295e-15 1.00049 0
8.67743e-15 1.00047 0
1.4231e-14 1.00047 0
-8.59295e-15 1.00049 0
-1.57581e-14 1.00049 0
1.4231e-14 1.00047 0
2.36181e-14 1.00047 0
-1.87085e-14 1.00047 0
-1.95416e-14 1.00047 0
1.67758e-14 1.00045 0
1.2951e-14 1.00045 0
-1.95416e-14 1.00047 0
-2.74556e-14 1.00047 0
1.2951e-14 1.00045 0
2.09741e-14 1.00045 0
-2.78841e-14 1.00045 0
-4.45443e-15 1.00045 0
3.34226e-15 1.00043 0
4.20592e-15 1.00043 0
-4.45443e-15 1.00045 0
-1.93563e-14 1.00045 0
4.20592e-15 1.00043 0
2.10654e-14 1.00043 0
-1.7301e-15 1.00043 0
-7.39536e-15 1.00043 0
2.40486e-14 1.00041 0
2.15413e-14 1.00041 0
-7.39536e-15 1.00043 0
-9.40019e-15 1.00043 0
2.15413e-14 1.00041 0
6.13941e-15 1.00041 0
-1.93563e-14 1.00045 0
-1.41138e-14 1.00045 0
2.10654e-14 1.00043 0
1.27418e-14 1.00043 0
-1.41138e-14 1.00045 0
-1.69901e-14 1.00045 0
1.27418e-14 1.00043 0
1.1163e-14 1.00043 0
-9.40019e-15 1.00043 0
-7.38543e-15 1.00043 0
6.13941e-15 1.00041 0
9.96466e-15 1.00041 0
-7.38543e-15 1.00043 0
-9.78585e-15 1.00043 0
9.96466e-15 1.00041 0
1.84604e-14 1.00041 0
-8.19152e-15 1.00058 0
-5.10446e-15 1.00058 0
1.03955e-14 1.00056 0
9.72024e-15 1.00056 0
-5.10446e-15 1.00058 0
-1.18971e-14 1.00058 0
9.72024e-15 1.00056 0
1.13674e-14 1.00056 0
-1.01869e-14 1.00056 0
-1.13814e-14 1.00056 0
1.58206e-14 1.00054 0
2.23369e-14 1.00054 0
-1.13814e-14 1.00056 0
-6.64669e-15 1.00056 0
2.23369e-14 1.00054 0
1.87813e-14 1.00054 0
-1.18971e-14 1.00058 0
-2.19656e-14 1.00058 0
1.13674e-14 1.00056 0
2.22854e-14 1.00056 0
-2.19656e-14 1.00058 0
-8.01443e-16 1.00058 0
2.22854e-14 1.00056 0
1.03424e-14 1.00056 0
-6.64669e-15 1.00056 0
-1.74526e-14 1.00056 0
1.87813e-14 1.00054 0
2.81441e-14 1.00054 0
-1.74526e-14 1.00056 0
-9.35135e-15 1.00056 0
2.81441e-14 1.00054 0
9.7866e-15 1.00054 0
-1.87914e-14 1.00054 0
-2.54046e-14 1.00054 0
1.84525e-14 1.00051 0
1.83757e-14 1.00051 0
-2.54046e-14 1.00054 0
-1.46223e-14 1.00054 0
1.83757e-14 1.00051 0
7.44113e-15 1.00051 0
-1.70597e-14 1.00051 0
-2.52327e-15 1.00051 0
1.40892e-14 1.00049 0
-5.05007e-15 1.00049 0
-2.52327e-15 1.00051 0
-4.80289e-15 1.00051 0
-5.05007e-15 1.00049 0
2.84544e-16 1.00049 0
-1.46223e-14 1.00054 0
-2.34885e-14 1.00054 0
7.44113e-15 1.00051 0
8.92303e-15 1.00051 0
-2.34885e-14 1.00054 0
-7.87798e-15 1.00054 0
8.92303e-15 1.00051 0
3.56253e-15 1.00051 0
-4.80289e-15 1.00051 0
-4.65191e-15 1.00051 0
2.84544e-16 1.00049 0
3.7208e-15 1.00049 0
-4.65191e-15 1.00051 0
-4.70561e-15 1.00051 0
3.7208e-15 1.00049 0
4.88101e-15 1.00049 0
-8.01443e-16 1.00058 0
-3.13753e-15 1.00058 0
1.03424e-14 1.00056 0
8.37435e-15 1.00056 0
-3.13753e-15 1.00058 0
-4.0848e-15 1.00058 0
8.37435e-15 1.00056 0
1.0568e-14 1.00056 0
-9.35135e-15 1.00056 0
-5.14715e-15 1.00056 0
9.7866e-15 1.00054 0
1.29539e-14 1.00054 0
-5.14715e-15 1.00056 0
6.15606e-16 1.00056 0
1.29539e-14 1.00054 0
7.7216e-15 1.00054 0
-4.0848e-15 1.00058 0
5.73727e-15 1.00058 0
1.0568e-14 1.00056 0
4.77824e-15 1.00056 0
5.73727e-15 1.00058 0
-4.83132e-15 1.00058 0
4.77824e-15 1.00056 0
1.19329e-14 1.00056 0
6.15606e-16 1.00056 0
1.83161e-15 1.00056 0
7.7216e-15 1.00054 0
-1.53271e-15 1.00054 0
1.83161e-15 1.00056 0
-1.46864e-14 1.00056 0
-1.53271e-15 1.00054 0
2.2028e-14 1.00054 0
-7.87798e-15 1.00054 0
-1.21875e-14 1.00054 0
3.56253e-15 1.00051 0
7.99398e-15 1.00051 0
-1.21875e-14 1.00054 0
-1.07207e-14 1.00054 0
7.99398e-15 1.00051 0
4.48842e-15 1.00051 0
-4.70561e-15 1.00051 0
-3.21041e-15 1.00051 0
4.88101e-15 1.00049 0
3.79872e-15 1.00049 0
-3.21041e-15 1.00051 0
-4.49525e-15 1.00051 0
3.79872e-15 1.00049 0
1.3009e-14 1.00049 0
-1.07207e-14 1.00054 0
2.82639e-15 1.00054 0
4.48842e-15 1.00051 0
1.72394e-16 1.00051 0
2.82639e-15 1.00054 0
-1.75771e-14 1.00054 0
1.72394e-16 1.00051 0
1.82362e-14 1.00051 0
-4.49525e-15 1.00051 0
9.15162e-16 1.00051 0
1.3009e-14 1.00049 0
1.45668e-15 1.00049 0
9.15162e-16 1.00051 0
-5.6633e-15 1.00051 0
1.45668e-15 1.00049 0
3.2454e-15 1.00049 0
-1.57581e-14 1.00049 0
-3.85901e-15 1.00049 0
2.36181e-14 1.00047 0
1.0804e-14 1.00047 0
-3.85901e-15 1.00049 0
-1.41919e-14 1.00049 0
1.0804e-14 1.00047 0
2.07234e-14 1.00047 0
-2.74556e-14 1.00047 0
-8.46797e-15 1.00047 0
2.09741e-14 1.00045 0
1.54596e-14 1.00045 0
-8.46797e-15 1.00047 0
-9.78871e-15 1.00047 0
1.54596e-14 1.00045 0
1.06624e-14 1.00045 0
-1.41919e-14 1.00049 0
-1.20234e-14 1.00049 0
2.07234e-14 1.00047 0
1.0717e-14 1.00047 0
-1.20234e-14 1.00049 0
-9.28003e-15 1.00049 0
1.0717e-14 1.00047 0
1.21463e-14 1.00047 0
-9.78871e-15 1.00047 0
-5.71565e-15 1.00047 0