# vtk DataFile Version 3.0
#This file was generated by the deal.II library on 2018/10/15 at 13:56:59
ASCII
DATASET UNSTRUCTURED_GRID

POINTS 20480 double
0 0 0
0.19635 0 0
0 0.297346 0
0.19635 0.297346 0
0.19635 0 0
0.392699 0 0
0.19635 0.297346 0
0.392699 0.297346 0
0 0.297346 0
0.19635 0.297346 0
0 0.610199 0
0.19635 0.610199 0
0.19635 0.297346 0
0.392699 0.297346 0
0.19635 0.610199 0
0.392699 0.610199 0
0.392699 0 0
0.589049 0 0
0.392699 0.297346 0
0.589049 0.297346 0
0.589049 0 0
0.785398 0 0
0.589049 0.297346 0
0.785398 0.297346 0
0.392699 0.297346 0
0.589049 0.297346 0
0.392699 0.610199 0
0.589049 0.610199 0
0.589049 0.297346 0
0.785398 0.297346 0
0.589049 0.610199 0
0.785398 0.610199 0
0 0.610199 0
0.19635 0.610199 0
0 0.922752 0
0.19635 0.922752 0
0.19635 0.610199 0
0.392699 0.610199 0
0.19635 0.922752 0
0.392699 0.922752 0
0 0.922752 0
0.19635 0.922752 0
0 1.23597 0
0.19635 1.23597 0
0.19635 0.922752 0
0.392699 0.922752 0
0.19635 1.23597 0
0.392699 1.23597 0
0.392699 0.610199 0
0.589049 0.610199 0
0.392699 0.922752 0
0.589049 0.922752 0
0.589049 0.610199 0
0.785398 0.610199 0
0.589049 0.922752 0
0.785398 0.922752 0
0.392699 0.922752 0
0.589049 0.922752 0
0.392699 1.23597 0
0.589049 1.23597 0
0.589049 0.922752 0
0.785398 0.922752 0
0.589049 1.23597 0
0.785398 1.23597 0
0.785398 0 0
0.981748 0 0
0.785398 0.297346 0
0.981748 0.297346 0
0.981748 0 0
1.1781 0 0
0.981748 0.297346 0
1.1781 0.297346 0
0.785398 0.297346 0
0.981748 0.297346 0
0.785398 0.610199 0
0.981748 0.610199 0
0.981748 0.297346 0
1.1781 0.297346 0
0.981748 0.610199 0
1.1781 0.610199 0
1.1781 0 0
1.37445 0 0
1.1781 0.297346 0
1.37445 0.297346 0
1.37445 0 0
1.5708 0 0
1.37445 0.297346 0
1.5708 0.297346 0
1.1781 0.297346 0
1.37445 0.297346 0
1.1781 0.610199 0
1.37445 0.610199 0
1.37445 0.297346 0
1.5708 0.297346 0
1.37445 0.610199 0
1.5708 0.610199 0
0.785398 0.610199 0
0.981748 0.610199 0
0.785398 0.922752 0
0.981748 0.922752 0
0.981748 0.610199 0
1.1781 0.610199 0
0.981748 0.922752 0
1.1781 0.922752 0
0.785398 0.922752 0
0.981748 0.922752 0
0.785398 1.23597 0
0.981748 1.23597 0
0.981748 0.922752 0
1.1781 0.922752 0
0.981748 1.23597 0
1.1781 1.23597 0
1.1781 0.610199 0
1.37445 0.610199 0
1.1781 0.922752 0
1.37445 0.922752 0
1.37445 0.610199 0
1.5708 0.610199 0
1.37445 0.922752 0
1.5708 0.922752 0
1.1781 0.922752 0
1.37445 0.922752 0
1.1781 1.23597 0
1.37445 1.23597 0
1.37445 0.922752 0
1.5708 0.922752 0
1.37445 1.23597 0
1.5708 1.23597 0
0 1.23597 0
0.19635 1.23597 0
0 1.54903 0
0.19635 1.54903 0
0.19635 1.23597 0
0.392699 1.23597 0
0.19635 1.54903 0
0.392699 1.54903 0
0 1.54903 0
0.19635 1.54903 0
0 1.86213 0
0.19635 1.86213 0
0.19635 1.54903 0
0.392699 1.54903 0
0.19635 1.86213 0
0.392699 1.86213 0
0.392699 1.23597 0
0.589049 1.23597 0
0.392699 1.54903 0
0.589049 1.54903 0
0.589049 1.23597 0
0.785398 1.23597 0
0.589049 1.54903 0
0.785398 1.54903 0
0.392699 1.54903 0
0.589049 1.54903 0
0.392699 1.86213 0
0.589049 1.86213 0
0.589049 1.54903 0
0.785398 1.54903 0
0.589049 1.86213 0
0.785398 1.86213 0
0 1.86213 0
0.19635 1.86213 0
0 2.1752 0
0.19635 2.1752 0
0.19635 1.86213 0
0.392699 1.86213 0
0.19635 2.1752 0
0.392699 2.1752 0
0 2.1752 0
0.19635 2.1752 0
0 2.48827 0
0.19635 2.48827 0
0.19635 2.1752 0
0.392699 2.1752 0
0.19635 2.48827 0
0.392699 2.48827 0
0.392699 1.86213 0
0.589049 1.86213 0
0.392699 2.1752 0
0.589049 2.1752 0
0.589049 1.86213 0
0.785398 1.86213 0
0.589049 2.1752 0
0.785398 2.1752 0
0.392699 2.1752 0
0.589049 2.1752 0
0.392699 2.48827 0
0.589049 2.48827 0
0.589049 2.1752 0
0.785398 2.1752 0
0.589049 2.48827 0
0.785398 2.48827 0
0.785398 1.23597 0
0.981748 1.23597 0
0.785398 1.54903 0
0.981748 1.54903 0
0.981748 1.23597 0
1.1781 1.23597 0
0.981748 1.54903 0
1.1781 1.54903 0
0.785398 1.54903 0
0.981748 1.54903 0
0.785398 1.86213 0
0.981748 1.86213 0
0.981748 1.54903 0
1.1781 1.54903 0
0.981748 1.86213 0
1.1781 1.86213 0
1.1781 1.23597 0
1.37445 1.23597 0
1.1781 1.54903 0
1.37445 1.54903 0
1.37445 1.23597 0
1.5708 1.23597 0
1.37445 1.54903 0
1.5708 1.54903 0
1.1781 1.54903 0
1.37445 1.54903 0
1.1781 1.86213 0
1.37445 1.86213 0
1.37445 1.54903 0
1.5708 1.54903 0
1.37445 1.86213 0
1.5708 1.86213 0
0.785398 1.86213 0
0.981748 1.86213 0
0.785398 2.1752 0
0.981748 2.1752 0
0.981748 1.86213 0
1.1781 1.86213 0
0.981748 2.1752 0
1.1781 2.1752 0
0.785398 2.1752 0
0.981748 2.1752 0
0.785398 2.48827 0
0.981748 2.48827 0
0.981748 2.1752 0
1.1781 2.1752 0
0.981748 2.48827 0
1.1781 2.48827 0
1.1781 1.86213 0
1.37445 1.86213 0
1.1781 2.1752 0
1.37445 2.1752 0
1.37445 1.86213 0
1.5708 1.86213 0
1.37445 2.1752 0
1.5708 2.1752 0
1.1781 2.1752 0
1.37445 2.1752 0
1.1781 2.48827 0
1.37445 2.48827 0
1.37445 2.1752 0
1.5708 2.1752 0
1.37445 2.48827 0
1.5708 2.48827 0
1.5708 0 0
1.76715 0 0
1.5708 0.297346 0
1.76715 0.297346 0
1.76715 0 0
1.9635 0 0
1.76715 0.297346 0
1.9635 0.297346 0
1.5708 0.297346 0
1.76715 0.297346 0
1.5708 0.610199 0
1.76715 0.610199 0
1.76715 0.297346 0
1.9635 0.297346 0
1.76715 0.610199 0
1.9635 0.610199 0
1.9635 0 0
2.15984 0 0
1.9635 0.297346 0
2.15984 0.297346 0
2.15984 0 0
2.35619 0 0
2.15984 0.297346 0
2.35619 0.297346 0
1.9635 0.297346 0
2.15984 0.297346 0
1.9635 0.610199 0
2.15984 0.610199 0
2.15984 0.297346 0
2.35619 0.297346 0
2.15984 0.610199 0
2.35619 0.610199 0
1.5708 0.610199 0
1.76715 0.610199 0
1.5708 0.922752 0
1.76715 0.922752 0
1.76715 0.610199 0
1.9635 0.610199 0
1.76715 0.922752 0
1.9635 0.922752 0
1.5708 0.922752 0
1.76715 0.922752 0
1.5708 1.23597 0
1.76715 1.23597 0
1.76715 0.922752 0
1.9635 0.922752 0
1.76715 1.23597 0
1.9635 1.23597 0
1.9635 0.610199 0
2.15984 0.610199 0
1.9635 0.922752 0
2.15984 0.922752 0
2.15984 0.610199 0
2.35619 0.610199 0
2.15984 0.922752 0
2.35619 0.922752 0
1.9635 0.922752 0
2.15984 0.922752 0
1.9635 1.23597 0
2.15984 1.23597 0
2.15984 0.922752 0
2.35619 0.922752 0
2.15984 1.23597 0
2.35619 1.23597 0
2.35619 0 0
2.55254 0 0
2.35619 0.297346 0
2.55254 0.297346 0
2.55254 0 0
2.74889 0 0
2.55254 0.297346 0
2.74889 0.297346 0
2.35619 0.297346 0
2.55254 0.297346 0
2.35619 0.610199 0
2.55254 0.610199 0
2.55254 0.297346 0
2.74889 0.297346 0
2.55254 0.610199 0
2.74889 0.610199 0
2.74889 0 0
2.94524 0 0
2.74889 0.297346 0
2.94524 0.297346 0
2.94524 0 0
3.14159 0 0
2.94524 0.297346 0
3.14159 0.297346 0
2.74889 0.297346 0
2.94524 0.297346 0
2.74889 0.610199 0
2.94524 0.610199 0
2.94524 0.297346 0
3.14159 0.297346 0
2.94524 0.610199 0
3.14159 0.610199 0
2.35619 0.610199 0
2.55254 0.610199 0
2.35619 0.922752 0
2.55254 0.922752 0
2.55254 0.610199 0
2.74889 0.610199 0
2.55254 0.922752 0
2.74889 0.922752 0
2.35619 0.922752 0
2.55254 0.922752 0
2.35619 1.23597 0
2.55254 1.23597 0
2.55254 0.922752 0
2.74889 0.922752 0
2.55254 1.23597 0
2.74889 1.23597 0
2.74889 0.610199 0
2.94524 0.610199 0
2.74889 0.922752 0
2.94524 0.922752 0
2.94524 0.610199 0
3.14159 0.610199 0
2.94524 0.922752 0
3.14159 0.922752 0
2.74889 0.922752 0
2.94524 0.922752 0
2.74889 1.23597 0
2.94524 1.23597 0
2.94524 0.922752 0
3.14159 0.922752 0
2.94524 1.23597 0
3.14159 1.23597 0
1.5708 1.23597 0
1.76715 1.23597 0
1.5708 1.54903 0
1.76715 1.54903 0
1.76715 1.23597 0
1.9635 1.23597 0
1.76715 1.54903 0
1.9635 1.54903 0
1.5708 1.54903 0
1.76715 1.54903 0
1.5708 1.86213 0
1.76715 1.86213 0
1.76715 1.54903 0
1.9635 1.54903 0
1.76715 1.86213 0
1.9635 1.86213 0
1.9635 1.23597 0
2.15984 1.23597 0
1.9635 1.54903 0
2.15984 1.54903 0
2.15984 1.23597 0
2.35619 1.23597 0
2.15984 1.54903 0
2.35619 1.54903 0
1.9635 1.54903 0
2.15984 1.54903 0
1.9635 1.86213 0
2.15984 1.86213 0
2.15984 1.54903 0
2.35619 1.54903 0
2.15984 1.86213 0
2.35619 1.86213 0
1.5708 1.86213 0
1.76715 1.86213 0
1.5708 2.1752 0
1.76715 2.1752 0
1.76715 1.86213 0
1.9635 1.86213 0
1.76715 2.1752 0
1.9635 2.1752 0
1.5708 2.1752 0
1.76715 2.1752 0
1.5708 2.48827 0
1.76715 2.48827 0
1.76715 2.1752 0
1.9635 2.1752 0
1.76715 2.48827 0
1.9635 2.48827 0
1.9635 1.86213 0
2.15984 1.86213 0
1.9635 2.1752 0
2.15984 2.1752 0
2.15984 1.86213 0
2.35619 1.86213 0
2.15984 2.1752 0
2.35619 2.1752 0
1.9635 2.1752 0
2.15984 2.1752 0
1.9635 2.48827 0
2.15984 2.48827 0
2.15984 2.1752 0
2.35619 2.1752 0
2.15984 2.48827 0
2.35619 2.48827 0
2.35619 1.23597 0
2.55254 1.23597 0
2.35619 1.54903 0
2.55254 1.54903 0
2.55254 1.23597 0
2.74889 1.23597 0
2.55254 1.54903 0
2.74889 1.54903 0
2.35619 1.54903 0
2.55254 1.54903 0
2.35619 1.86213 0
2.55254 1.86213 0
2.55254 1.54903 0
2.74889 1.54903 0
2.55254 1.86213 0
2.74889 1.86213 0
2.74889 1.23597 0
2.94524 1.23597 0
2.74889 1.54903 0
2.94524 1.54903 0
2.94524 1.23597 0
3.14159 1.23597 0
2.94524 1.54903 0
3.14159 1.54903 0
2.74889 1.54903 0
2.94524 1.54903 0
2.74889 1.86213 0
2.94524 1.86213 0
2.94524 1.54903 0
3.14159 1.54903 0
2.94524 1.86213 0
3.14159 1.86213 0
2.35619 1.86213 0
2.55254 1.86213 0
2.35619 2.1752 0
2.55254 2.1752 0
2.55254 1.86213 0
2.74889 1.86213 0
2.55254 2.1752 0
2.74889 2.1752 0
2.35619 2.1752 0
2.55254 2.1752 0
2.35619 2.48827 0
2.55254 2.48827 0
2.55254 2.1752 0
2.74889 2.1752 0
2.55254 2.48827 0
2.74889 2.48827 0
2.74889 1.86213 0
2.94524 1.86213 0
2.74889 2.1752 0
2.94524 2.1752 0
2.94524 1.86213 0
3.14159 1.86213 0
2.94524 2.1752 0
3.14159 2.1752 0
2.74889 2.1752 0
2.94524 2.1752 0
2.74889 2.48827 0
2.94524 2.48827 0
2.94524 2.1752 0
3.14159 2.1752 0
2.94524 2.48827 0
3.14159 2.48827 0
0 2.48827 0
0.19635 2.48827 0
0 2.80132 0
0.19635 2.80132 0
0.19635 2.48827 0
0.392699 2.48827 0
0.19635 2.80132 0
0.392699 2.80132 0
0 2.80132 0
0.19635 2.80132 0
0 3.11436 0
0.19635 3.11436 0
0.19635 2.80132 0
0.392699 2.80132 0
0.19635 3.11436 0
0.392699 3.11436 0
0.392699 2.48827 0
0.589049 2.48827 0
0.392699 2.80132 0
0.589049 2.80132 0
0.589049 2.48827 0
0.785398 2.48827 0
0.589049 2.80132 0
0.785398 2.80132 0
0.392699 2.80132 0
0.589049 2.80132 0
0.392699 3.11436 0
0.589049 3.11436 0
0.589049 2.80132 0
0.785398 2.80132 0
0.589049 3.11436 0
0.785398 3.11436 0
0 3.11436 0
0.19635 3.11436 0
0 3.42739 0
0.19635 3.42739 0
0.19635 3.11436 0
0.392699 3.11436 0
0.19635 3.42739 0
0.392699 3.42739 0
0 3.42739 0
0.19635 3.42739 0
0 3.74041 0
[...]
POINT_DATA 20480
VECTORS uf double
0 1 0
-4.04958e-15 1 0
0 1.00096 0
-3.19986e-15 1.00096 0
-4.04958e-15 1 0
7.91477e-15 1 0
-3.19986e-15 1.00096 0
-1.46732e-14 1.00096 0
0 1.00096 0
8.45736e-15 1.00096 0
0 1.00072 0
-3.90367e-15 1.00072 0
8.45736e-15 1.00096 0
9.52824e-15 1.00096 0
-3.90367e-15 1.00072 0
-4.27755e-16 1.00072 0
7.91477e-15 1 0
3.17976e-15 1 0
-1.46732e-14 1.00096 0
-6.668e-15 1.00096 0
3.17976e-15 1 0
-4.0235e-15 1 0
-6.668e-15 1.00096 0
-8.21644e-15 1.00096 0
9.52824e-15 1.00096 0
4.02421e-15 1.00096 0
-4.27755e-16 1.00072 0
-6.01776e-15 1.00072 0
4.02421e-15 1.00096 0
1.48726e-14 1.00096 0
-6.01776e-15 1.00072 0
-4.89575e-15 1.00072 0
0 1.00072 0
8.41628e-15 1.00072 0
0 1.00076 0
1.01292e-14 1.00076 0
8.41628e-15 1.00072 0
-4.00086e-15 1.00072 0
1.01292e-14 1.00076 0
-1.59434e-15 1.00076 0
0 1.00076 0
-1.7725e-14 1.00076 0
0 1.00072 0
-1.73451e-14 1.00072 0
-1.7725e-14 1.00076 0
1.12101e-14 1.00076 0
-1.73451e-14 1.00072 0
7.59994e-16 1.00072 0
-4.00086e-15 1.00072 0
4.0644e-15 1.00072 0
-1.59434e-15 1.00076 0
7.00081e-15 1.00076 0
4.0644e-15 1.00072 0
8.06768e-15 1.00072 0
7.00081e-15 1.00076 0
-3.19056e-15 1.00076 0
1.12101e-14 1.00076 0
5.54936e-16 1.00076 0
7.59994e-16 1.00072 0
1.01772e-14 1.00072 0
5.54936e-16 1.00076 0
9.16004e-15 1.00076 0
1.01772e-14 1.00072 0
-6.36285e-15 1.00072 0
-4.0235e-15 1 0
-1.43956e-14 1 0
-8.21644e-15 1.00096 0
9.00442e-15 1.00096 0
-1.43956e-14 1 0
5.22835e-16 1 0
9.00442e-15 1.00096 0
-8.21324e-15 1.00096 0
1.48726e-14 1.00096 0
-1.37143e-14 1.00096 0
-4.89575e-15 1.00072 0
2.32694e-14 1.00072 0
-1.37143e-14 1.00096 0
-4.4042e-15 1.00096 0
2.32694e-14 1.00072 0
2.13996e-14 1.00072 0
5.22835e-16 1 0
1.64381e-15 1 0
-8.21324e-15 1.00096 0
-1.06007e-15 1.00096 0
1.64381e-15 1 0
7.66765e-15 1 0
-1.06007e-15 1.00096 0
4.68202e-15 1.00096 0
-4.4042e-15 1.00096 0
-5.47375e-15 1.00096 0
2.13996e-14 1.00072 0
1.79818e-14 1.00072 0
-5.47375e-15 1.00096 0
-7.83492e-15 1.00096 0
1.79818e-14 1.00072 0
4.16819e-15 1.00072 0
8.06768e-15 1.00072 0
-7.56836e-15 1.00072 0
-3.19056e-15 1.00076 0
5.23374e-15 1.00076 0
-7.56836e-15 1.00072 0
-5.50121e-17 1.00072 0
5.23374e-15 1.00076 0
1.50941e-15 1.00076 0
9.16004e-15 1.00076 0
1.44639e-14 1.00076 0
-6.36285e-15 1.00072 0
-3.89548e-15 1.00072 0
1.44639e-14 1.00076 0
-8.13405e-15 1.00076 0
-3.89548e-15 1.00072 0
8.31264e-15 1.00072 0
-5.50121e-17 1.00072 0
-5.6901e-15 1.00072 0
1.50941e-15 1.00076 0
5.85958e-15 1.00076 0
-5.6901e-15 1.00072 0
-9.07022e-15 1.00072 0
5.85958e-15 1.00076 0
2.52982e-14 1.00076 0
-8.13405e-15 1.00076 0
-2.193e-15 1.00076 0
8.31264e-15 1.00072 0
3.74309e-15 1.00072 0
-2.193e-15 1.00076 0
-7.10514e-15 1.00076 0
3.74309e-15 1.00072 0
-7.00464e-15 1.00072 0
0 1.00072 0
1.53002e-14 1.00072 0
0 1.0007 0
1.96604e-14 1.0007 0
1.53002e-14 1.00072 0
-1.05431e-14 1.00072 0
1.96604e-14 1.0007 0
-1.8784e-14 1.0007 0
0 1.0007 0
-1.62655e-14 1.0007 0
0 1.00067 0
-1.30797e-14 1.00067 0
-1.62655e-14 1.0007 0
2.55632e-14 1.0007 0
-1.30797e-14 1.00067 0
2.08085e-14 1.00067 0
-1.05431e-14 1.00072 0
-1.38443e-14 1.00072 0
-1.8784e-14 1.0007 0
5.64281e-15 1.0007 0
-1.38443e-14 1.00072 0
6.67991e-15 1.00072 0
5.64281e-15 1.0007 0
-7.27248e-15 1.0007 0
2.55632e-14 1.0007 0
-1.13895e-14 1.0007 0
2.08085e-14 1.00067 0
9.78758e-15 1.00067 0
-1.13895e-14 1.0007 0
2.60157e-15 1.0007 0
9.78758e-15 1.00067 0
-5.71958e-15 1.00067 0
0 1.00067 0
2.03513e-16 1.00067 0
0 1.00065 0
-3.07482e-15 1.00065 0
2.03513e-16 1.00067 0
-4.38809e-14 1.00067 0
-3.07482e-15 1.00065 0
-2.61848e-14 1.00065 0
0 1.00065 0
2.64315e-14 1.00065 0
0 1.00063 0
3.56802e-14 1.00063 0
2.64315e-14 1.00065 0
2.27612e-14 1.00065 0
3.56802e-14 1.00063 0
4.55647e-14 1.00063 0
-4.38809e-14 1.00067 0
-1.96544e-15 1.00067 0
-2.61848e-14 1.00065 0
1.13431e-15 1.00065 0
-1.96544e-15 1.00067 0
6.64926e-15 1.00067 0
1.13431e-15 1.00065 0
-3.68911e-15 1.00065 0
2.27612e-14 1.00065 0
-2.57997e-15 1.00065 0
4.55647e-14 1.00063 0
1.88712e-15 1.00063 0
-2.57997e-15 1.00065 0
-1.03472e-14 1.00065 0
1.88712e-15 1.00063 0
1.62526e-14 1.00063 0
6.67991e-15 1.00072 0
-3.24946e-15 1.00072 0
-7.27248e-15 1.0007 0
-2.01193e-15 1.0007 0
-3.24946e-15 1.00072 0
1.41972e-15 1.00072 0
-2.01193e-15 1.0007 0
-4.54918e-15 1.0007 0
2.60157e-15 1.0007 0
4.00293e-15 1.0007 0
-5.71958e-15 1.00067 0
9.85717e-16 1.00067 0
4.00293e-15 1.0007 0
-1.44201e-15 1.0007 0
9.85717e-16 1.00067 0
8.62294e-15 1.00067 0
1.41972e-15 1.00072 0
-3.74922e-15 1.00072 0
-4.54918e-15 1.0007 0
3.74048e-15 1.0007 0
-3.74922e-15 1.00072 0
3.75158e-15 1.00072 0
3.74048e-15 1.0007 0
5.66724e-15 1.0007 0
-1.44201e-15 1.0007 0
2.50118e-15 1.0007 0
8.62294e-15 1.00067 0
1.82053e-15 1.00067 0
2.50118e-15 1.0007 0
-6.75435e-15 1.0007 0
1.82053e-15 1.00067 0
5.78097e-16 1.00067 0
6.64926e-15 1.00067 0
-1.67354e-14 1.00067 0
-3.68911e-15 1.00065 0
1.06442e-14 1.00065 0
-1.67354e-14 1.00067 0
-1.44846e-14 1.00067 0
1.06442e-14 1.00065 0
3.61907e-15 1.00065 0
-1.03472e-14 1.00065 0
-7.47938e-15 1.00065 0
1.62526e-14 1.00063 0
1.48454e-14 1.00063 0
-7.47938e-15 1.00065 0
-3.43895e-15 1.00065 0
1.48454e-14 1.00063 0
9.82573e-15 1.00063 0
-1.44846e-14 1.00067 0
-1.31731e-14 1.00067 0
3.61907e-15 1.00065 0
1.33154e-14 1.00065 0
-1.31731e-14 1.00067 0
3.74403e-15 1.00067 0
1.33154e-14 1.00065 0
-1.69783e-15 1.00065 0
-3.43895e-15 1.00065 0
-9.72507e-15 1.00065 0
9.82573e-15 1.00063 0
3.94557e-16 1.00063 0
-9.72507e-15 1.00065 0
-6.14493e-15 1.00065 0
3.94557e-16 1.00063 0
1.387e-14 1.00063 0
7.66765e-15 1 0
5.94238e-15 1 0
4.68202e-15 1.00096 0
-2.61121e-17 1.00096 0
5.94238e-15 1 0
1.00969e-14 1 0
-2.61121e-17 1.00096 0
-9.00191e-16 1.00096 0
-7.83492e-15 1.00096 0
1.14882e-16 1.00096 0
4.16819e-15 1.00072 0
3.94775e-15 1.00072 0
1.14882e-16 1.00096 0
-2.78596e-15 1.00096 0
3.94775e-15 1.00072 0
6.2712e-15 1.00072 0
1.00969e-14 1 0
7.27831e-15 1 0
-9.00191e-16 1.00096 0
1.58951e-15 1.00096 0
7.27831e-15 1 0
-3.42829e-15 1 0
1.58951e-15 1.00096 0
1.70784e-14 1.00096 0
-2.78596e-15 1.00096 0
6.37423e-15 1.00096 0
6.2712e-15 1.00072 0
-9.0627e-16 1.00072 0
6.37423e-15 1.00096 0
1.4916e-15 1.00096 0
-9.0627e-16 1.00072 0
-7.51953e-15 1.00072 0
-9.07022e-15 1.00072 0
4.75389e-16 1.00072 0
2.52982e-14 1.00076 0
1.04323e-14 1.00076 0
4.75389e-16 1.00072 0
-1.386e-14 1.00072 0
1.04323e-14 1.00076 0
2.6495e-14 1.00076 0
-7.10514e-15 1.00076 0
-1.38059e-14 1.00076 0
-7.00464e-15 1.00072 0
1.12962e-14 1.00072 0
-1.38059e-14 1.00076 0
-1.77673e-14 1.00076 0
1.12962e-14 1.00072 0
4.48332e-15 1.00072 0
-1.386e-14 1.00072 0
-5.30606e-15 1.00072 0
2.6495e-14 1.00076 0
1.07464e-14 1.00076 0
-5.30606e-15 1.00072 0
4.3402e-15 1.00072 0
1.07464e-14 1.00076 0
8.84686e-15 1.00076 0
-1.77673e-14 1.00076 0
-6.35863e-15 1.00076 0
4.48332e-15 1.00072 0
5.06917e-15 1.00072 0
-6.35863e-15 1.00076 0
4.16231e-16 1.00076 0
5.06917e-15 1.00072 0
3.96216e-15 1.00072 0
-3.42829e-15 1 0
7.97346e-15 1 0
1.70784e-14 1.00096 0
-3.05725e-15 1.00096 0
7.97346e-15 1 0
2.24002e-15 1 0
-3.05725e-15 1.00096 0
7.00484e-15 1.00096 0
1.4916e-15 1.00096 0
3.48159e-15 1.00096 0
-7.51953e-15 1.00072 0
-3.91828e-17 1.00072 0
3.48159e-15 1.00096 0
-1.50176e-14 1.00096 0
-3.91828e-17 1.00072 0
2.48302e-14 1.00072 0
2.24002e-15 1 0
4.28643e-16 1 0
7.00484e-15 1.00096 0
6.18892e-15 1.00096 0
4.28643e-16 1 0
2.5995e-16 1 0
6.18892e-15 1.00096 0
-2.91898e-15 1.00096 0
-1.50176e-14 1.00096 0
-1.0991e-14 1.00096 0
2.48302e-14 1.00072 0
2.24672e-14 1.00072 0
-1.0991e-14 1.00096 0
1.70263e-14 1.00096 0
2.24672e-14 1.00072 0
-1.93719e-15 1.00072 0
4.3402e-15 1.00072 0
1.47657e-14 1.00072 0
8.84686e-15 1.00076 0
-5.78309e-15 1.00076 0
1.47657e-14 1.00072 0
-1.42469e-14 1.00072 0
-5.78309e-15 1.00076 0
1.83853e-14 1.00076 0
4.16231e-16 1.00076 0
1.72737e-15 1.00076 0
3.96216e-15 1.00072 0
8.35442e-15 1.00072 0
1.72737e-15 1.00076 0
-1.27176e-15 1.00076 0
8.35442e-15 1.00072 0
4.85461e-15 1.00072 0
-1.42469e-14 1.00072 0
-1.11998e-14 1.00072 0
1.83853e-14 1.00076 0
9.01172e-15 1.00076 0
-1.11998e-14 1.00072 0
3.23951e-15 1.00072 0
9.01172e-15 1.00076 0
1.08183e-14 1.00076 0
-1.27176e-15 1.00076 0
-3.7471e-15 1.00076 0
4.85461e-15 1.00072 0
2.29016e-14 1.00072 0
-3.7471e-15 1.00076 0
-2.02183e-14 1.00076 0
2.29016e-14 1.00072 0
2.82793e-14 1.00072 0
3.75158e-15 1.00072 0
-2.39893e-15 1.00072 0
5.66724e-15 1.0007 0
-3.81747e-15 1.0007 0
-2.39893e-15 1.00072 0
-4.88765e-15 1.00072 0
-3.81747e-15 1.0007 0
1.57022e-14 1.0007 0
-6.75435e-15 1.0007 0
-2.80946e-15 1.0007 0
5.78097e-16 1.00067 0
5.46961e-15 1.00067 0
-2.80946e-15 1.0007 0
-8.16381e-15 1.0007 0
5.46961e-15 1.00067 0
1.10107e-14 1.00067 0
-4.88765e-15 1.00072 0
-1.63212e-15 1.00072 0
1.57022e-14 1.0007 0
6.87291e-15 1.0007 0
-1.63212e-15 1.00072 0
-1.36966e-15 1.00072 0
6.87291e-15 1.0007 0
7.79608e-15 1.0007 0
-8.16381e-15 1.0007 0
-7.95761e-15 1.0007 0
1.10107e-14 1.00067 0
1.68336e-14 1.00067 0
-7.95761e-15 1.0007 0
-9.69108e-15 1.0007 0
1.68336e-14 1.00067 0
1.72389e-14 1.00067 0
3.74403e-15 1.00067 0
-3.93099e-15 1.00067 0
-1.69783e-15 1.00065 0
1.82473e-14 1.00065 0
-3.93099e-15 1.00067 0
-1.63268e-14 1.00067 0
1.82473e-14 1.00065 0
2.42917e-14 1.00065 0
-6.14493e-15 1.00065 0
-1.99402e-14 1.00065 0
1.387e-14 1.00063 0
2.23747e-14 1.00063 0
-1.99402e-14 1.00065 0
-1.32428e-14 1.00065 0
2.23747e-14 1.00063 0
7.27468e-15 1.00063 0
-1.63268e-14 1.00067 0
-1.35816e-14 1.00067 0
2.42917e-14 1.00065 0
1.33991e-14 1.00065 0
-1.35816e-14 1.00067 0
-2.02199e-14 1.00067 0
1.33991e-14 1.00065 0
1.6572e-14 1.00065 0
-1.32428e-14 1.00065 0
-9.93858e-15 1.00065 0
7.27468e-15 1.00063 0
9.35693e-15 1.00063 0
-9.93858e-15 1.00065 0
-1.05573e-14 1.00065 0
9.35693e-15 1.00063 0
1.54829e-14 1.00063 0
-1.36966e-15 1.00072 0
-3.28174e-15 1.00072 0
7.79608e-15 1.0007 0
1.07039e-14 1.0007 0
-3.28174e-15 1.00072 0
-3.49643e-15 1.00072 0
1.07039e-14 1.0007 0
1.11572e-14 1.0007 0
-9.69108e-15 1.0007 0
-1.55525e-14 1.0007 0
1.72389e-14 1.00067 0
2.14587e-14 1.00067 0
-1.55525e-14 1.0007 0
-9.34726e-15 1.0007 0
2.14587e-14 1.00067 0
1.09246e-14 1.00067 0
-3.49643e-15 1.00072 0
-1.71472e-14 1.00072 0
1.11572e-14 1.0007 0
1.22232e-14 1.0007 0
-1.71472e-14 1.00072 0
-7.54325e-16 1.00072 0
1.22232e-14 1.0007 0
-5.18048e-15 1.0007 0
-9.34726e-15 1.0007 0
1.83007e-15 1.0007 0
1.09246e-14 1.00067 0
5.58348e-15 1.00067 0
1.83007e-15 1.0007 0
-2.72292e-15 1.0007 0
5.58348e-15 1.00067 0
1.64081e-14 1.00067 0
-2.02199e-14 1.00067 0
-1.56277e-14 1.00067 0
1.6572e-14 1.00065 0
1.30506e-14 1.00065 0
-1.56277e-14 1.00067 0
5.76596e-15 1.00067 0
1.30506e-14 1.00065 0
-5.21231e-15 1.00065 0
-1.05573e-14 1.00065 0
-8.017e-15 1.00065 0
1.54829e-14 1.00063 0
1.23665e-14 1.00063 0
-8.017e-15 1.00065 0
3.0015e-15 1.00065 0
1.23665e-14 1.00063 0
-7.00984e-17 1.00063 0
5.76596e-15 1.00067 0
-4.67089e-15 1.00067 0
-5.21231e-15 1.00065 0
1.21357e-14 1.00065 0
-4.67089e-15 1.00067 0
-7.34185e-15 1.00067 0
1.21357e-14 1.00065 0
9.20605e-15 1.00065 0
3.0015e-15 1.00065 0
-1.48591e-14 1.00065 0
-7.00984e-17 1.00063 0
1.30591e-14 1.00063 0
-1.48591e-14 1.00065 0
-1.3558e-15 1.00065 0
1.30591e-14 1.00063 0
3.31376e-15 1.00063 0
0 1.00063 0
-3.63978e-14 1.00063 0
0 1.0006 0
-5.05644e-14 1.0006 0
-3.63978e-14 1.00063 0
-8.84936e-15 1.00063 0
-5.05644e-14 1.0006 0
6.84566e-16 1.0006 0
0 1.0006 0
4.01487e-14 1.0006 0
0 1.00058 0
3.88355e-14 1.00058 0
4.01487e-14 1.0006 0
-8.09593e-15 1.0006 0
3.88355e-14 1.00058 0
2.87425e-15 1.00058 0
-8.84936e-15 1.00063 0
-1.48437e-16 1.00063 0
6.84566e-16 1.0006 0
7.49657e-15 1.0006 0
-1.48437e-16 1.00063 0
-3.18419e-15 1.00063 0
7.49657e-15 1.0006 0
7.7932e-16 1.0006 0
-8.09593e-15 1.0006 0
3.61471e-15 1.0006 0
2.87425e-15 1.00058 0
-3.36219e-15 1.00058 0
3.61471e-15 1.0006 0
-3.70255e-16 1.0006 0
-3.36219e-15 1.00058 0
1.56343e-14 1.00058 0
0 1.00058 0
-2.54273e-14 1.00058 0
0 1.00056 0
-2.66605e-14 1.00056 0
-2.54273e-14 1.00058 0
-1.89513e-14 1.00058 0
-2.66605e-14 1.00056 0
4.41358e-15 1.00056 0
0 1.00056 0
2.97888e-14 1.00056 0
0 1.00053 0
2.34682e-14 1.00053 0
2.97888e-14 1.00056 0
2.03212e-14 1.00056 0
2.34682e-14 1.00053 0
2.9096e-14 1.00053 0
-1.89513e-14 1.00058 0
-9.48154e-18 1.00058 0
4.41358e-15 1.00056 0
3.71121e-15 1.00056 0
-9.48154e-18 1.00058 0
-9.27941e-15 1.00058 0
3.71121e-15 1.00056 0
2.48932e-15 1.00056 0
2.03212e-14 1.00056 0
-7.53297e-15 1.00056 0
2.9096e-14 1.00053 0
-1.09407e-14 1.00053 0
-7.53297e-15 1.00056 0
-4.32671e-15 1.00056 0
-1.09407e-14 1.00053 0
-1.16517e-15 1.00053 0
-3.18419e-15 1.00063 0
-5.77113e-16 1.00063 0
7.7932e-16 1.0006 0
-1.30257e-15 1.0006 0
-5.77113e-16 1.00063 0
-1.06049e-14 1.00063 0
-1.30257e-15 1.0006 0
2.14767e-14 1.0006 0
-3.70255e-16 1.0006 0
5.29359e-15 1.0006 0
1.56343e-14 1.00058 0
1.01984e-14 1.00058 0
5.29359e-15 1.0006 0
-1.32375e-14 1.0006 0
1.01984e-14 1.00058 0
1.7882e-14 1.00058 0
-1.06049e-14 1.00063 0
1.04505e-14 1.00063 0
2.14767e-14 1.0006 0
-2.4935e-15 1.0006 0
1.04505e-14 1.00063 0
-1.31676e-15 1.00063 0
-2.4935e-15 1.0006 0
-1.08959e-15 1.0006 0
-1.32375e-14 1.0006 0
8.12615e-15 1.0006 0
1.7882e-14 1.00058 0
2.77863e-15 1.00058 0
8.12615e-15 1.0006 0
-3.38971e-15 1.0006 0
2.77863e-15 1.00058 0
1.80664e-14 1.00058 0
-9.27941e-15 1.00058 0
-5.09507e-15 1.00058 0
2.48932e-15 1.00056 0
9.30235e-16 1.00056 0
-5.09507e-15 1.00058 0
-1.29386e-14 1.00058 0
9.30235e-16 1.00056 0
8.4335e-15 1.00056 0
-4.32671e-15 1.00056 0
-1.59888e-14 1.00056 0
-1.16517e-15 1.00053 0
9.08702e-15 1.00053 0
-1.59888e-14 1.00056 0
-1.33763e-14 1.00056 0
9.08702e-15 1.00053 0
1.50029e-14 1.00053 0
-1.29386e-14 1.00058 0
-5.31721e-16 1.00058 0
8.4335e-15 1.00056 0
2.67755e-15 1.00056 0
-5.31721e-16 1.00058 0
-1.46721e-14 1.00058 0
2.67755e-15 1.00056 0
1.38779e-14 1.00056 0
-1.33763e-14 1.00056 0
-1.16298e-14 1.00056 0
1.50029e-14 1.00053 0
1.30123e-14 1.00053 0
-1.16298e-14 1.00056 0
-6.59451e-15 1.00056 0
1.30123e-14 1.00053 0
6.33412e-15 1.00053 0
0 1.00053 0
-3.17849e-14 1.00053 0
0 1.00051 0
-2.376e-14 1.00051 0
-3.17849e-14 1.00053 0
-4.49011e-14 1.00053 0
-2.376e-14 1.00051 0
-4.04955e-14 1.00051 0
0 1.00051 0
2.68074e-14 1.00051 0
0 1.00049 0
3.7066e-14 1.00049 0
2.68074e-14 1.00051 0
1.71895e-14 1.00051 0
3.7066e-14 1.00049 0
1.747e-14 1.00049 0
-4.49011e-14 1.00053 0
1.43996e-14 1.00053 0
-4.04955e-14 1.00051 0
3.86787e-14 1.00051 0
1.43996e-14 1.00053 0
-1.36715e-15 1.00053 0
3.86787e-14 1.00051 0
2.29717e-14 1.00051 0
1.71895e-14 1.00051 0
-2.89285e-14 1.00051 0
1.747e-14 1.00049 0
-2.81008e-14 1.00049 0
-2.89285e-14 1.00051 0
-8.66894e-15 1.00051 0
-2.81008e-14 1.00049 0
5.71217e-15 1.00049 0
0 1.00049 0
-3.93519e-14 1.00049 0
0 1.00047 0
-4.06979e-14 1.00047 0
-3.93519e-14 1.00049 0
1.51583e-14 1.00049 0
-4.06979e-14 1.00047 0
2.13241e-14 1.00047 0
0 1.00047 0
1.70049e-14 1.00047 0
0 1.00045 0
1.30017e-14 1.00045 0
1.70049e-14 1.00047 0
-2.10107e-14 1.00047 0
1.30017e-14 1.00045 0
-6.7977e-15 1.00045 0
1.51583e-14 1.00049 0
6.10989e-15 1.00049 0
2.13241e-14 1.00047 0
1.96874e-15 1.00047 0
6.10989e-15 1.00049 0
-3.24513e-14 1.00049 0
1.96874e-15 1.00047 0
-1.21311e-14 1.00047 0
-2.10107e-14 1.00047 0
1.43643e-15 1.00047 0
-6.7977e-15 1.00045 0
7.33095e-15 1.00045 0
1.43643e-15 1.00047 0
7.24491e-15 1.00047 0
7.33095e-15 1.00045 0
2.56594e-15 1.00045 0
-1.36715e-15 1.00053 0
-1.58293e-14 1.00053 0
2.29717e-14 1.00051 0
1.78904e-14 1.00051 0
-1.58293e-14 1.00053 0
-9.48738e-15 1.00053 0
1.78904e-14 1.00051 0
7.34942e-15 1.00051 0
-8.66894e-15 1.00051 0
5.33544e-15 1.00051 0
5.71217e-15 1.00049 0
1.83511e-14 1.00049 0
5.33544e-15 1.00051 0
-6.23678e-15 1.00051 0
1.83511e-14 1.00049 0
6.97144e-15 1.00049 0
-9.48738e-15 1.00053 0
-1.62407e-14 1.00053 0
7.34942e-15 1.00051 0
1.42526e-14 1.00051 0
-1.62407e-14 1.00053 0
-1.44879e-14 1.00053 0
1.42526e-14 1.00051 0
6.9969e-15 1.00051 0
-6.23678e-15 1.00051 0
-7.24312e-15 1.00051 0
6.97144e-15 1.00049 0
4.46624e-15 1.00049 0
-7.24312e-15 1.00051 0
-8.32441e-15 1.00051 0
4.46624e-15 1.00049 0
1.35073e-14 1.00049 0
-3.24513e-14 1.00049 0
-2.712e-14 1.00049 0
-1.21311e-14 1.00047 0
-2.7429e-15 1.00047 0
-2.712e-14 1.00049 0
-1.12408e-14 1.00049 0
-2.7429e-15 1.00047 0
1.09892e-14 1.00047 0
7.24491e-15 1.00047 0
3.09522e-16 1.00047 0
2.56594e-15 1.00045 0
1.18584e-14 1.00045 0
3.09522e-16 1.00047 0
-9.12934e-15 1.00047 0
1.18584e-14 1.00045 0
1.12552e-14 1.00045 0
-1.12408e-14 1.00049 0
-7.15497e-15 1.00049 0
1.09892e-14 1.00047 0
1.16152e-14 1.00047 0
-7.15497e-15 1.00049 0
-1.00836e-14 1.00049 0
1.16152e-14 1.00047 0
1.00482e-14 1.00047 0
-9.12934e-15 1.00047 0
-1.40839e-14 1.00047 0
1.12552e-14 1.00045 0
1.52312e-14 1.00045 0
-1.40839e-14 1.00047 0
-7.36971e-15 1.00047 0
1.52312e-14 1.00045 0
1.09316e-14 1.00045 0
-1.31676e-15 1.00063 0
-1.73525e-14 1.00063 0
-1.08959e-15 1.0006 0
1.03158e-14 1.0006 0
-1.73525e-14 1.00063 0
-6.9184e-15 1.00063 0
1.03158e-14 1.0006 0
7.94485e-15 1.0006 0
-3.38971e-15 1.0006 0
-5.39811e-15 1.0006 0
1.80664e-14 1.00058 0
1.5736e-14 1.00058 0
-5.39811e-15 1.0006 0
-4.66391e-15 1.0006 0
1.5736e-14 1.00058 0
1.3697e-14 1.00058 0
-6.9184e-15 1.00063 0
-1.62103e-14 1.00063 0
7.94485e-15 1.0006 0
2.50186e-14 1.0006 0
-1.62103e-14 1.00063 0
-1.1166e-14 1.00063 0
2.50186e-14 1.0006 0
1.58011e-14 1.0006 0
-4.66391e-15 1.0006 0
-1.90048e-14 1.0006 0
1.3697e-14 1.00058 0
2.1625e-14 1.00058 0
-1.90048e-14 1.0006 0
-1.4152e-14 1.0006 0
2.1625e-14 1.00058 0
2.11706e-14 1.00058 0
-1.46721e-14 1.00058 0
-7.44441e-15 1.00058 0
1.38779e-14 1.00056 0
1.09925e-14 1.00056 0
-7.44441e-15 1.00058 0
-9.95989e-15 1.00058 0
1.09925e-14 1.00056 0
1.4037e-14 1.00056 0
-6.59451e-15 1.00056 0
-4.51785e-15 1.00056 0
6.33412e-15 1.00053 0
4.12387e-15 1.00053 0
-4.51785e-15 1.00056 0
-7.0289e-15 1.00056 0
4.12387e-15 1.00053 0
5.53894e-15 1.00053 0
-9.95989e-15 1.00058 0
-1.43176e-14 1.00058 0
1.4037e-14 1.00056 0
1.02273e-14 1.00056 0
-1.43176e-14 1.00058 0
-1.2336e-14 1.00058 0
1.02273e-14 1.00056 0
6.36677e-15 1.00056 0
-7.0289e-15 1.00056 0
-5.23823e-15 1.00056 0
5.53894e-15 1.00053 0
7.44728e-15 1.00053 0
-5.23823e-15 1.00056 0
-6.16259e-15 1.00056 0
7.44728e-15 1.00053 0
5.71474e-15 1.00053 0
-1.1166e-14 1.00063 0
-4.19527e-15 1.00063 0
1.58011e-14 1.0006 0
4.98011e-15 1.0006 0
-4.19527e-15 1.00063 0
1.15654e-14 1.00063 0
4.98011e-15 1.0006 0
-6.36185e-15 1.0006 0
-1.4152e-14 1.0006 0
2.08963e-15 1.0006 0
2.11706e-14 1.00058 0
-1.59865e-16 1.00058 0
2.08963e-15 1.0006 0
7.74718e-15 1.0006 0
-1.59865e-16 1.00058 0
1.08423e-15 1.00058 0
1.15654e-14 1.00063 0
-4.57829e-15 1.00063 0
-6.36185e-15 1.0006 0
1.13162e-14 1.0006 0
-4.57829e-15 1.00063 0
-2.76776e-15 1.00063 0
1.13162e-14 1.0006 0
5.25887e-15 1.0006 0
7.74718e-15 1.0006 0
-6.93954e-15 1.0006 0
1.08423e-15 1.00058 0
1.18792e-14 1.00058 0
-6.93954e-15 1.0006 0
-2.59559e-15 1.0006 0
1.18792e-14 1.00058 0
1.23211e-14 1.00058 0
-1.2336e-14 1.00058 0
-2.78133e-15 1.00058 0
6.36677e-15 1.00056 0
5.50125e-15 1.00056 0
-2.78133e-15 1.00058 0
-1.53108e-14 1.00058 0
5.50125e-15 1.00056 0
1.78586e-14 1.00056 0
-6.16259e-15 1.00056 0
-3.82175e-15 1.00056 0
5.71474e-15 1.00053 0
8.04853e-15 1.00053 0
-3.82175e-15 1.00056 0
-1.49644e-14 1.00056 0
8.04853e-15 1.00053 0
1.76872e-14 1.00053 0
-1.53108e-14 1.00058 0
-1.19381e-14 1.00058 0
1.78586e-14 1.00056 0
1.31106e-14 1.00056 0
-1.19381e-14 1.00058 0
-1.24825e-14 1.00058 0
1.31106e-14 1.00056 0
9.45675e-15 1.00056 0
-1.49644e-14 1.00056 0
-9.64794e-16 1.00056 0
1.76872e-14 1.00053 0
2.5911e-16 1.00053 0
-9.64794e-16 1.00056 0
2.89044e-15 1.00056 0
2.5911e-16 1.00053 0
-3.30014e-15 1.00053 0
-1.44879e-14 1.00053 0
-1.63925e-14 1.00053 0
6.9969e-15 1.00051 0
1.7682e-14 1.00051 0
-1.63925e-14 1.00053 0
-1.45224e-14 1.00053 0
1.7682e-14 1.00051 0
1.05255e-14 1.00051 0
-8.32441e-15 1.00051 0
-1.14041e-14 1.00051 0
1.35073e-14 1.00049 0
1.335e-15 1.00049 0
-1.14041e-14 1.00051 0
-4.41049e-15 1.00051 0
1.335e-15 1.00049 0
2.05682e-15 1.00049 0
-1.45224e-14 1.00053 0
-1.90591e-14 1.00053 0
1.05255e-14 1.00051 0
1.31306e-14 1.00051 0
-1.90591e-14 1.00053 0
-9.12631e-15 1.00053 0
1.31306e-14 1.00051 0
5.53728e-15 1.00051 0
-4.41049e-15 1.00051 0
-7.57505e-15 1.00051 0