# vtk DataFile Version 3.0
#This file was generated by the deal.II library on 2018/10/15 at 10:22:38
ASCII
DATASET UNSTRUCTURED_GRID

POINTS 20480 double
0 0 0
0.19635 0 0
0 0.300834 0
0.19635 0.300834 0
0.19635 0 0
0.392699 0 0
0.19635 0.300834 0
0.392699 0.300834 0
0 0.300834 0
0.19635 0.300834 0
0 0.613679 0
0.19635 0.613679 0
0.19635 0.300834 0
0.392699 0.300834 0
0.19635 0.613679 0
0.392699 0.613679 0
0.392699 0 0
0.589049 0 0
0.392699 0.300834 0
0.589049 0.300834 0
0.589049 0 0
0.785398 0 0
0.589049 0.300834 0
0.785398 0.300834 0
0.392699 0.300834 0
0.589049 0.300834 0
0.392699 0.613679 0
0.589049 0.613679 0
0.589049 0.300834 0
0.785398 0.300834 0
0.589049 0.613679 0
0.785398 0.613679 0
0 0.613679 0
0.19635 0.613679 0
0 0.926237 0
0.19635 0.926237 0
0.19635 0.613679 0
0.392699 0.613679 0
0.19635 0.926237 0
0.392699 0.926237 0
0 0.926237 0
0.19635 0.926237 0
0 1.23928 0
0.19635 1.23928 0
0.19635 0.926237 0
0.392699 0.926237 0
0.19635 1.23928 0
0.392699 1.23928 0
0.392699 0.613679 0
0.589049 0.613679 0
0.392699 0.926237 0
0.589049 0.926237 0
0.589049 0.613679 0
0.785398 0.613679 0
0.589049 0.926237 0
0.785398 0.926237 0
0.392699 0.926237 0
0.589049 0.926237 0
0.392699 1.23928 0
0.589049 1.23928 0
0.589049 0.926237 0
0.785398 0.926237 0
0.589049 1.23928 0
0.785398 1.23928 0
0.785398 0 0
0.981748 0 0
0.785398 0.300834 0
0.981748 0.300834 0
0.981748 0 0
1.1781 0 0
0.981748 0.300834 0
1.1781 0.300834 0
0.785398 0.300834 0
0.981748 0.300834 0
0.785398 0.613679 0
0.981748 0.613679 0
0.981748 0.300834 0
1.1781 0.300834 0
0.981748 0.613679 0
1.1781 0.613679 0
1.1781 0 0
1.37445 0 0
1.1781 0.300834 0
1.37445 0.300834 0
1.37445 0 0
1.5708 0 0
1.37445 0.300834 0
1.5708 0.300834 0
1.1781 0.300834 0
1.37445 0.300834 0
1.1781 0.613679 0
1.37445 0.613679 0
1.37445 0.300834 0
1.5708 0.300834 0
1.37445 0.613679 0
1.5708 0.613679 0
0.785398 0.613679 0
0.981748 0.613679 0
0.785398 0.926237 0
0.981748 0.926237 0
0.981748 0.613679 0
1.1781 0.613679 0
0.981748 0.926237 0
1.1781 0.926237 0
0.785398 0.926237 0
0.981748 0.926237 0
0.785398 1.23928 0
0.981748 1.23928 0
0.981748 0.926237 0
1.1781 0.926237 0
0.981748 1.23928 0
1.1781 1.23928 0
1.1781 0.613679 0
1.37445 0.613679 0
1.1781 0.926237 0
1.37445 0.926237 0
1.37445 0.613679 0
1.5708 0.613679 0
1.37445 0.926237 0
1.5708 0.926237 0
1.1781 0.926237 0
1.37445 0.926237 0
1.1781 1.23928 0
1.37445 1.23928 0
1.37445 0.926237 0
1.5708 0.926237 0
1.37445 1.23928 0
1.5708 1.23928 0
0 1.23928 0
0.19635 1.23928 0
0 1.5522 0
0.19635 1.5522 0
0.19635 1.23928 0
0.392699 1.23928 0
0.19635 1.5522 0
0.392699 1.5522 0
0 1.5522 0
0.19635 1.5522 0
0 1.86516 0
0.19635 1.86516 0
0.19635 1.5522 0
0.392699 1.5522 0
0.19635 1.86516 0
0.392699 1.86516 0
0.392699 1.23928 0
0.589049 1.23928 0
0.392699 1.5522 0
0.589049 1.5522 0
0.589049 1.23928 0
0.785398 1.23928 0
0.589049 1.5522 0
0.785398 1.5522 0
0.392699 1.5522 0
0.589049 1.5522 0
0.392699 1.86516 0
0.589049 1.86516 0
0.589049 1.5522 0
0.785398 1.5522 0
0.589049 1.86516 0
0.785398 1.86516 0
0 1.86516 0
0.19635 1.86516 0
0 2.1781 0
0.19635 2.1781 0
0.19635 1.86516 0
0.392699 1.86516 0
0.19635 2.1781 0
0.392699 2.1781 0
0 2.1781 0
0.19635 2.1781 0
0 2.49103 0
0.19635 2.49103 0
0.19635 2.1781 0
0.392699 2.1781 0
0.19635 2.49103 0
0.392699 2.49103 0
0.392699 1.86516 0
0.589049 1.86516 0
0.392699 2.1781 0
0.589049 2.1781 0
0.589049 1.86516 0
0.785398 1.86516 0
0.589049 2.1781 0
0.785398 2.1781 0
0.392699 2.1781 0
0.589049 2.1781 0
0.392699 2.49103 0
0.589049 2.49103 0
0.589049 2.1781 0
0.785398 2.1781 0
0.589049 2.49103 0
0.785398 2.49103 0
0.785398 1.23928 0
0.981748 1.23928 0
0.785398 1.5522 0
0.981748 1.5522 0
0.981748 1.23928 0
1.1781 1.23928 0
0.981748 1.5522 0
1.1781 1.5522 0
0.785398 1.5522 0
0.981748 1.5522 0
0.785398 1.86516 0
0.981748 1.86516 0
0.981748 1.5522 0
1.1781 1.5522 0
0.981748 1.86516 0
1.1781 1.86516 0
1.1781 1.23928 0
1.37445 1.23928 0
1.1781 1.5522 0
1.37445 1.5522 0
1.37445 1.23928 0
1.5708 1.23928 0
1.37445 1.5522 0
1.5708 1.5522 0
1.1781 1.5522 0
1.37445 1.5522 0
1.1781 1.86516 0
1.37445 1.86516 0
1.37445 1.5522 0
1.5708 1.5522 0
1.37445 1.86516 0
1.5708 1.86516 0
0.785398 1.86516 0
0.981748 1.86516 0
0.785398 2.1781 0
0.981748 2.1781 0
0.981748 1.86516 0
1.1781 1.86516 0
0.981748 2.1781 0
1.1781 2.1781 0
0.785398 2.1781 0
0.981748 2.1781 0
0.785398 2.49103 0
0.981748 2.49103 0
0.981748 2.1781 0
1.1781 2.1781 0
0.981748 2.49103 0
1.1781 2.49103 0
1.1781 1.86516 0
1.37445 1.86516 0
1.1781 2.1781 0
1.37445 2.1781 0
1.37445 1.86516 0
1.5708 1.86516 0
1.37445 2.1781 0
1.5708 2.1781 0
1.1781 2.1781 0
1.37445 2.1781 0
1.1781 2.49103 0
1.37445 2.49103 0
1.37445 2.1781 0
1.5708 2.1781 0
1.37445 2.49103 0
1.5708 2.49103 0
1.5708 0 0
1.76715 0 0
1.5708 0.300834 0
1.76715 0.300834 0
1.76715 0 0
1.9635 0 0
1.76715 0.300834 0
1.9635 0.300834 0
1.5708 0.300834 0
1.76715 0.300834 0
1.5708 0.613679 0
1.76715 0.613679 0
1.76715 0.300834 0
1.9635 0.300834 0
1.76715 0.613679 0
1.9635 0.613679 0
1.9635 0 0
2.15984 0 0
1.9635 0.300834 0
2.15984 0.300834 0
2.15984 0 0
2.35619 0 0
2.15984 0.300834 0
2.35619 0.300834 0
1.9635 0.300834 0
2.15984 0.300834 0
1.9635 0.613679 0
2.15984 0.613679 0
2.15984 0.300834 0
2.35619 0.300834 0
2.15984 0.613679 0
2.35619 0.613679 0
1.5708 0.613679 0
1.76715 0.613679 0
1.5708 0.926237 0
1.76715 0.926237 0
1.76715 0.613679 0
1.9635 0.613679 0
1.76715 0.926237 0
1.9635 0.926237 0
1.5708 0.926237 0
1.76715 0.926237 0
1.5708 1.23928 0
1.76715 1.23928 0
1.76715 0.926237 0
1.9635 0.926237 0
1.76715 1.23928 0
1.9635 1.23928 0
1.9635 0.613679 0
2.15984 0.613679 0
1.9635 0.926237 0
2.15984 0.926237 0
2.15984 0.613679 0
2.35619 0.613679 0
2.15984 0.926237 0
2.35619 0.926237 0
1.9635 0.926237 0
2.15984 0.926237 0
1.9635 1.23928 0
2.15984 1.23928 0
2.15984 0.926237 0
2.35619 0.926237 0
2.15984 1.23928 0
2.35619 1.23928 0
2.35619 0 0
2.55254 0 0
2.35619 0.300834 0
2.55254 0.300834 0
2.55254 0 0
2.74889 0 0
2.55254 0.300834 0
2.74889 0.300834 0
2.35619 0.300834 0
2.55254 0.300834 0
2.35619 0.613679 0
2.55254 0.613679 0
2.55254 0.300834 0
2.74889 0.300834 0
2.55254 0.613679 0
2.74889 0.613679 0
2.74889 0 0
2.94524 0 0
2.74889 0.300834 0
2.94524 0.300834 0
2.94524 0 0
3.14159 0 0
2.94524 0.300834 0
3.14159 0.300834 0
2.74889 0.300834 0
2.94524 0.300834 0
2.74889 0.613679 0
2.94524 0.613679 0
2.94524 0.300834 0
3.14159 0.300834 0
2.94524 0.613679 0
3.14159 0.613679 0
2.35619 0.613679 0
2.55254 0.613679 0
2.35619 0.926237 0
2.55254 0.926237 0
2.55254 0.613679 0
2.74889 0.613679 0
2.55254 0.926237 0
2.74889 0.926237 0
2.35619 0.926237 0
2.55254 0.926237 0
2.35619 1.23928 0
2.55254 1.23928 0
2.55254 0.926237 0
2.74889 0.926237 0
2.55254 1.23928 0
2.74889 1.23928 0
2.74889 0.613679 0
2.94524 0.613679 0
2.74889 0.926237 0
2.94524 0.926237 0
2.94524 0.613679 0
3.14159 0.613679 0
2.94524 0.926237 0
3.14159 0.926237 0
2.74889 0.926237 0
2.94524 0.926237 0
2.74889 1.23928 0
2.94524 1.23928 0
2.94524 0.926237 0
3.14159 0.926237 0
2.94524 1.23928 0
3.14159 1.23928 0
1.5708 1.23928 0
1.76715 1.23928 0
1.5708 1.5522 0
1.76715 1.5522 0
1.76715 1.23928 0
1.9635 1.23928 0
1.76715 1.5522 0
1.9635 1.5522 0
1.5708 1.5522 0
1.76715 1.5522 0
1.5708 1.86516 0
1.76715 1.86516 0
1.76715 1.5522 0
1.9635 1.5522 0
1.76715 1.86516 0
1.9635 1.86516 0
1.9635 1.23928 0
2.15984 1.23928 0
1.9635 1.5522 0
2.15984 1.5522 0
2.15984 1.23928 0
2.35619 1.23928 0
2.15984 1.5522 0
2.35619 1.5522 0
1.9635 1.5522 0
2.15984 1.5522 0
1.9635 1.86516 0
2.15984 1.86516 0
2.15984 1.5522 0
2.35619 1.5522 0
2.15984 1.86516 0
2.35619 1.86516 0
1.5708 1.86516 0
1.76715 1.86516 0
1.5708 2.1781 0
1.76715 2.1781 0
1.76715 1.86516 0
1.9635 1.86516 0
1.76715 2.1781 0
1.9635 2.1781 0
1.5708 2.1781 0
1.76715 2.1781 0
1.5708 2.49103 0
1.76715 2.49103 0
1.76715 2.1781 0
1.9635 2.1781 0
1.76715 2.49103 0
1.9635 2.49103 0
1.9635 1.86516 0
2.15984 1.86516 0
1.9635 2.1781 0
2.15984 2.1781 0
2.15984 1.86516 0
2.35619 1.86516 0
2.15984 2.1781 0
2.35619 2.1781 0
1.9635 2.1781 0
2.15984 2.1781 0
1.9635 2.49103 0
2.15984 2.49103 0
2.15984 2.1781 0
2.35619 2.1781 0
2.15984 2.49103 0
2.35619 2.49103 0
2.35619 1.23928 0
2.55254 1.23928 0
2.35619 1.5522 0
2.55254 1.5522 0
2.55254 1.23928 0
2.74889 1.23928 0
2.55254 1.5522 0
2.74889 1.5522 0
2.35619 1.5522 0
2.55254 1.5522 0
2.35619 1.86516 0
2.55254 1.86516 0
2.55254 1.5522 0
2.74889 1.5522 0
2.55254 1.86516 0
2.74889 1.86516 0
2.74889 1.23928 0
2.94524 1.23928 0
2.74889 1.5522 0
2.94524 1.5522 0
2.94524 1.23928 0
3.14159 1.23928 0
2.94524 1.5522 0
3.14159 1.5522 0
2.74889 1.5522 0
2.94524 1.5522 0
2.74889 1.86516 0
2.94524 1.86516 0
2.94524 1.5522 0
3.14159 1.5522 0
2.94524 1.86516 0
3.14159 1.86516 0
2.35619 1.86516 0
2.55254 1.86516 0
2.35619 2.1781 0
2.55254 2.1781 0
2.55254 1.86516 0
2.74889 1.86516 0
2.55254 2.1781 0
2.74889 2.1781 0
2.35619 2.1781 0
2.55254 2.1781 0
2.35619 2.49103 0
2.55254 2.49103 0
2.55254 2.1781 0
2.74889 2.1781 0
2.55254 2.49103 0
2.74889 2.49103 0
2.74889 1.86516 0
2.94524 1.86516 0
2.74889 2.1781 0
2.94524 2.1781 0
2.94524 1.86516 0
3.14159 1.86516 0
2.94524 2.1781 0
3.14159 2.1781 0
2.74889 2.1781 0
2.94524 2.1781 0
2.74889 2.49103 0
2.94524 2.49103 0
2.94524 2.1781 0
3.14159 2.1781 0
2.94524 2.49103 0
3.14159 2.49103 0
0 2.49103 0
0.19635 2.49103 0
0 2.80395 0
0.19635 2.80395 0
0.19635 2.49103 0
0.392699 2.49103 0
0.19635 2.80395 0
0.392699 2.80395 0
0 2.80395 0
0.19635 2.80395 0
0 3.11686 0
0.19635 3.11686 0
0.19635 2.80395 0
0.392699 2.80395 0
0.19635 3.11686 0
0.392699 3.11686 0
0.392699 2.49103 0
0.589049 2.49103 0
0.392699 2.80395 0
0.589049 2.80395 0
0.589049 2.49103 0
0.785398 2.49103 0
0.589049 2.80395 0
0.785398 2.80395 0
0.392699 2.80395 0
0.589049 2.80395 0
0.392699 3.11686 0
0.589049 3.11686 0
0.589049 2.80395 0
0.785398 2.80395 0
0.589049 3.11686 0
0.785398 3.11686 0
0 3.11686 0
0.19635 3.11686 0
0 3.42976 0
0.19635 3.42976 0
0.19635 3.11686 0
0.392699 3.11686 0
0.19635 3.42976 0
0.392699 3.42976 0
0 3.42976 0
0.19635 3.42976 0
0 3.74266 0
0.19635 3.74266 0
0.19635 3.42976 0
0.392699 3.42976 0
0.19635 3.74266 0
[...]
POINT_DATA 20480
VECTORS uf double
0 1 0
-1.06467e-15 1 0
0 1.00093 0
-7.79865e-15 1.00093 0
-1.06467e-15 1 0
-3.09106e-15 1 0
-7.79865e-15 1.00093 0
-5.20636e-15 1.00093 0
0 1.00093 0
-5.4062e-15 1.00093 0
0 1.00069 0
2.00143e-14 1.00069 0
-5.4062e-15 1.00093 0
1.25447e-14 1.00093 0
2.00143e-14 1.00069 0
-8.22314e-15 1.00069 0
-3.09106e-15 1 0
-7.81753e-15 1 0
-5.20636e-15 1.00093 0
2.18421e-15 1.00093 0
-7.81753e-15 1 0
-1.46751e-14 1 0
2.18421e-15 1.00093 0
7.18461e-15 1.00093 0
1.25447e-14 1.00093 0
4.74825e-16 1.00093 0
-8.22314e-15 1.00069 0
9.09315e-15 1.00069 0
4.74825e-16 1.00093 0
4.35209e-15 1.00093 0
9.09315e-15 1.00069 0
1.16106e-14 1.00069 0
0 1.00069 0
-1.14876e-14 1.00069 0
0 1.00073 0
2.31058e-14 1.00073 0
-1.14876e-14 1.00069 0
8.27094e-15 1.00069 0
2.31058e-14 1.00073 0
3.65527e-16 1.00073 0
0 1.00073 0
-2.39318e-14 1.00073 0
0 1.00069 0
-4.00857e-15 1.00069 0
-2.39318e-14 1.00073 0
-4.42121e-15 1.00073 0
-4.00857e-15 1.00069 0
9.94041e-15 1.00069 0
8.27094e-15 1.00069 0
-3.8419e-15 1.00069 0
3.65527e-16 1.00073 0
1.38659e-14 1.00073 0
-3.8419e-15 1.00069 0
-1.58307e-14 1.00069 0
1.38659e-14 1.00073 0
1.8609e-14 1.00073 0
-4.42121e-15 1.00073 0
-7.788e-15 1.00073 0
9.94041e-15 1.00069 0
1.13607e-15 1.00069 0
-7.788e-15 1.00073 0
-1.23012e-14 1.00073 0
1.13607e-15 1.00069 0
1.29731e-14 1.00069 0
-1.46751e-14 1 0
-1.76164e-14 1 0
7.18461e-15 1.00093 0
1.10264e-14 1.00093 0
-1.76164e-14 1 0
-9.62766e-15 1 0
1.10264e-14 1.00093 0
2.07488e-14 1.00093 0
4.35209e-15 1.00093 0
-3.20157e-15 1.00093 0
1.16106e-14 1.00069 0
2.43157e-14 1.00069 0
-3.20157e-15 1.00093 0
-1.51018e-14 1.00093 0
2.43157e-14 1.00069 0
1.6471e-14 1.00069 0
-9.62766e-15 1 0
5.92735e-15 1 0
2.07488e-14 1.00093 0
1.03094e-14 1.00093 0
5.92735e-15 1 0
-4.3256e-15 1 0
1.03094e-14 1.00093 0
1.9442e-14 1.00093 0
-1.51018e-14 1.00093 0
-3.4867e-14 1.00093 0
1.6471e-14 1.00069 0
3.37166e-14 1.00069 0
-3.4867e-14 1.00093 0
-1.59007e-14 1.00093 0
3.37166e-14 1.00069 0
9.2142e-15 1.00069 0
-1.58307e-14 1.00069 0
-4.35333e-15 1.00069 0
1.8609e-14 1.00073 0
-5.65254e-15 1.00073 0
-4.35333e-15 1.00069 0
-1.59672e-15 1.00069 0
-5.65254e-15 1.00073 0
5.38674e-15 1.00073 0
-1.23012e-14 1.00073 0
-3.02218e-15 1.00073 0
1.29731e-14 1.00069 0
9.82851e-15 1.00069 0
-3.02218e-15 1.00073 0
-1.29679e-14 1.00073 0
9.82851e-15 1.00069 0
8.28919e-15 1.00069 0
-1.59672e-15 1.00069 0
-1.70657e-14 1.00069 0
5.38674e-15 1.00073 0
1.44564e-14 1.00073 0
-1.70657e-14 1.00069 0
-1.03604e-14 1.00069 0
1.44564e-14 1.00073 0
2.18717e-14 1.00073 0
-1.29679e-14 1.00073 0
-4.52925e-15 1.00073 0
8.28919e-15 1.00069 0
1.29398e-14 1.00069 0
-4.52925e-15 1.00073 0
-1.54409e-14 1.00073 0
1.29398e-14 1.00069 0
1.73745e-14 1.00069 0
0 1.00069 0
8.41929e-15 1.00069 0
0 1.00067 0
1.42085e-14 1.00067 0
8.41929e-15 1.00069 0
-1.60402e-14 1.00069 0
1.42085e-14 1.00067 0
-4.67942e-16 1.00067 0
0 1.00067 0
-2.71567e-14 1.00067 0
0 1.00064 0
7.8253e-15 1.00064 0
-2.71567e-14 1.00067 0
4.34123e-15 1.00067 0
7.8253e-15 1.00064 0
2.81635e-14 1.00064 0
-1.60402e-14 1.00069 0
-5.68807e-15 1.00069 0
-4.67942e-16 1.00067 0
-3.24358e-16 1.00067 0
-5.68807e-15 1.00069 0
-1.74823e-14 1.00069 0
-3.24358e-16 1.00067 0
1.53092e-14 1.00067 0
4.34123e-15 1.00067 0
-9.75597e-15 1.00067 0
2.81635e-14 1.00064 0
1.67681e-14 1.00064 0
-9.75597e-15 1.00067 0
-9.48797e-15 1.00067 0
1.67681e-14 1.00064 0
1.26014e-15 1.00064 0
0 1.00064 0
-1.8945e-16 1.00064 0
0 1.00062 0
-4.14323e-15 1.00062 0
-1.8945e-16 1.00064 0
-3.98607e-14 1.00064 0
-4.14323e-15 1.00062 0
-2.31646e-14 1.00062 0
0 1.00062 0
2.38333e-14 1.00062 0
0 1.0006 0
2.15087e-14 1.0006 0
2.38333e-14 1.00062 0
1.82106e-14 1.00062 0
2.15087e-14 1.0006 0
2.95618e-14 1.0006 0
-3.98607e-14 1.00064 0
-1.06986e-14 1.00064 0
-2.31646e-14 1.00062 0
1.20656e-14 1.00062 0
-1.06986e-14 1.00064 0
-4.8431e-15 1.00064 0
1.20656e-14 1.00062 0
4.09746e-15 1.00062 0
1.82106e-14 1.00062 0
-1.19555e-14 1.00062 0
2.95618e-14 1.0006 0
4.92304e-15 1.0006 0
-1.19555e-14 1.00062 0
-1.07848e-14 1.00062 0
4.92304e-15 1.0006 0
2.30425e-14 1.0006 0
-1.74823e-14 1.00069 0
-3.61175e-15 1.00069 0
1.53092e-14 1.00067 0
1.92038e-15 1.00067 0
-3.61175e-15 1.00069 0
-4.58699e-15 1.00069 0
1.92038e-15 1.00067 0
1.05999e-14 1.00067 0
-9.48797e-15 1.00067 0
-1.14337e-15 1.00067 0
1.26014e-15 1.00064 0
2.84221e-15 1.00064 0
-1.14337e-15 1.00067 0
-1.67522e-14 1.00067 0
2.84221e-15 1.00064 0
1.11307e-14 1.00064 0
-4.58699e-15 1.00069 0
-1.48469e-14 1.00069 0
1.05999e-14 1.00067 0
1.58173e-14 1.00067 0
-1.48469e-14 1.00069 0
-4.40166e-15 1.00069 0
1.58173e-14 1.00067 0
-3.52606e-15 1.00067 0
-1.67522e-14 1.00067 0
-3.87487e-15 1.00067 0
1.11307e-14 1.00064 0
-1.23772e-16 1.00064 0
-3.87487e-15 1.00067 0
2.18129e-15 1.00067 0
-1.23772e-16 1.00064 0
6.46402e-15 1.00064 0
-4.8431e-15 1.00064 0
-2.47235e-14 1.00064 0
4.09746e-15 1.00062 0
1.50859e-14 1.00062 0
-2.47235e-14 1.00064 0
-1.43373e-14 1.00064 0
1.50859e-14 1.00062 0
1.33319e-14 1.00062 0
-1.07848e-14 1.00062 0
-1.05964e-14 1.00062 0
2.30425e-14 1.0006 0
1.80893e-14 1.0006 0
-1.05964e-14 1.00062 0
-1.02862e-14 1.00062 0
1.80893e-14 1.0006 0
9.06837e-15 1.0006 0
-1.43373e-14 1.00064 0
-1.83415e-14 1.00064 0
1.33319e-14 1.00062 0
1.59511e-14 1.00062 0
-1.83415e-14 1.00064 0
-2.49573e-14 1.00064 0
1.59511e-14 1.00062 0
2.28141e-14 1.00062 0
-1.02862e-14 1.00062 0
-8.81823e-15 1.00062 0
9.06837e-15 1.0006 0
1.11402e-14 1.0006 0
-8.81823e-15 1.00062 0
-1.78944e-14 1.00062 0
1.11402e-14 1.0006 0
1.6635e-14 1.0006 0
-4.3256e-15 1 0
6.68354e-15 1 0
1.9442e-14 1.00093 0
-1.24256e-14 1.00093 0
6.68354e-15 1 0
-3.64188e-15 1 0
-1.24256e-14 1.00093 0
1.63371e-14 1.00093 0
-1.59007e-14 1.00093 0
2.00586e-14 1.00093 0
9.2142e-15 1.00069 0
-7.85404e-15 1.00069 0
2.00586e-14 1.00093 0
-1.24759e-14 1.00093 0
-7.85404e-15 1.00069 0
8.70172e-15 1.00069 0
-3.64188e-15 1 0
-8.29585e-15 1 0
1.63371e-14 1.00093 0
1.94493e-14 1.00093 0
-8.29585e-15 1 0
1.13002e-16 1 0
1.94493e-14 1.00093 0
4.71729e-15 1.00093 0
-1.24759e-14 1.00093 0
-7.27894e-15 1.00093 0
8.70172e-15 1.00069 0
5.9322e-15 1.00069 0
-7.27894e-15 1.00093 0
-2.99067e-15 1.00093 0
5.9322e-15 1.00069 0
1.28447e-15 1.00069 0
-1.03604e-14 1.00069 0
-5.33127e-15 1.00069 0
2.18717e-14 1.00073 0
2.07224e-14 1.00073 0
-5.33127e-15 1.00069 0
-6.56716e-15 1.00069 0
2.07224e-14 1.00073 0
1.07829e-14 1.00073 0
-1.54409e-14 1.00073 0
-1.66102e-14 1.00073 0
1.73745e-14 1.00069 0
1.80382e-14 1.00069 0
-1.66102e-14 1.00073 0
-9.56459e-15 1.00073 0
1.80382e-14 1.00069 0
1.38559e-14 1.00069 0
-6.56716e-15 1.00069 0
-1.14426e-14 1.00069 0
1.07829e-14 1.00073 0
1.52242e-14 1.00073 0
-1.14426e-14 1.00069 0
-1.67251e-15 1.00069 0
1.52242e-14 1.00073 0
1.14574e-14 1.00073 0
-9.56459e-15 1.00073 0
-1.55486e-14 1.00073 0
1.38559e-14 1.00069 0
2.40381e-14 1.00069 0
-1.55486e-14 1.00073 0
-7.89011e-16 1.00073 0
2.40381e-14 1.00069 0
5.59075e-15 1.00069 0
1.13002e-16 1 0
-4.26939e-16 1 0
4.71729e-15 1.00093 0
-2.74526e-15 1.00093 0
-4.26939e-16 1 0
-1.23823e-14 1 0
-2.74526e-15 1.00093 0
2.37144e-14 1.00093 0
-2.99067e-15 1.00093 0
-1.0476e-14 1.00093 0
1.28447e-15 1.00069 0
2.00134e-14 1.00069 0
-1.0476e-14 1.00093 0
-1.94636e-14 1.00093 0
2.00134e-14 1.00069 0
1.04915e-14 1.00069 0
-1.23823e-14 1 0
1.76952e-15 1 0
2.37144e-14 1.00093 0
-2.27935e-15 1.00093 0
1.76952e-15 1 0
-3.41234e-15 1 0
-2.27935e-15 1.00093 0
2.3186e-14 1.00093 0
-1.94636e-14 1.00093 0
1.80509e-15 1.00093 0
1.04915e-14 1.00069 0
7.33588e-15 1.00069 0
1.80509e-15 1.00093 0
-2.28558e-14 1.00093 0
7.33588e-15 1.00069 0
2.30215e-14 1.00069 0
-1.67251e-15 1.00069 0
8.64666e-16 1.00069 0
1.14574e-14 1.00073 0
5.43652e-15 1.00073 0
8.64666e-16 1.00069 0
1.04334e-14 1.00069 0
5.43652e-15 1.00073 0
1.54379e-14 1.00073 0
-7.89011e-16 1.00073 0
5.45683e-15 1.00073 0
5.59075e-15 1.00069 0
5.24599e-15 1.00069 0
5.45683e-15 1.00073 0
-1.30129e-14 1.00073 0
5.24599e-15 1.00069 0
5.49947e-15 1.00069 0
1.04334e-14 1.00069 0
1.73533e-15 1.00069 0
1.54379e-14 1.00073 0
1.74712e-14 1.00073 0
1.73533e-15 1.00069 0
-7.95937e-15 1.00069 0
1.74712e-14 1.00073 0
1.3048e-14 1.00073 0
-1.30129e-14 1.00073 0
-2.24825e-14 1.00073 0
5.49947e-15 1.00069 0
2.26478e-14 1.00069 0
-2.24825e-14 1.00073 0
-1.12429e-14 1.00073 0
2.26478e-14 1.00069 0
1.77559e-14 1.00069 0
-4.40166e-15 1.00069 0
-1.54804e-14 1.00069 0
-3.52606e-15 1.00067 0
1.38199e-14 1.00067 0
-1.54804e-14 1.00069 0
-8.51792e-15 1.00069 0
1.38199e-14 1.00067 0
1.68579e-14 1.00067 0
2.18129e-15 1.00067 0
-6.87239e-15 1.00067 0
6.46402e-15 1.00064 0
1.08482e-14 1.00064 0
-6.87239e-15 1.00067 0
-1.41247e-14 1.00067 0
1.08482e-14 1.00064 0
2.17001e-14 1.00064 0
-8.51792e-15 1.00069 0
-1.77408e-14 1.00069 0
1.68579e-14 1.00067 0
1.63727e-14 1.00067 0
-1.77408e-14 1.00069 0
-5.50554e-15 1.00069 0
1.63727e-14 1.00067 0
1.22767e-14 1.00067 0
-1.41247e-14 1.00067 0
-1.27016e-14 1.00067 0
2.17001e-14 1.00064 0
1.27342e-14 1.00064 0
-1.27016e-14 1.00067 0
-2.39507e-14 1.00067 0
1.27342e-14 1.00064 0
3.53444e-14 1.00064 0
-2.49573e-14 1.00064 0
-1.68308e-14 1.00064 0
2.28141e-14 1.00062 0
5.94591e-15 1.00062 0
-1.68308e-14 1.00064 0
-3.90609e-14 1.00064 0
5.94591e-15 1.00062 0
2.40196e-14 1.00062 0
-1.78944e-14 1.00062 0
-6.03803e-15 1.00062 0
1.6635e-14 1.0006 0
9.38101e-15 1.0006 0
-6.03803e-15 1.00062 0
-1.03541e-14 1.00062 0
9.38101e-15 1.0006 0
1.25801e-14 1.0006 0
-3.90609e-14 1.00064 0
-1.51725e-14 1.00064 0
2.40196e-14 1.00062 0
9.65233e-15 1.00062 0
-1.51725e-14 1.00064 0
-2.91381e-14 1.00064 0
9.65233e-15 1.00062 0
2.28919e-14 1.00062 0
-1.03541e-14 1.00062 0
-1.71135e-16 1.00062 0
1.25801e-14 1.0006 0
8.27522e-15 1.0006 0
-1.71135e-16 1.00062 0
-2.13169e-14 1.00062 0
8.27522e-15 1.0006 0
2.55954e-14 1.0006 0
-5.50554e-15 1.00069 0
-1.30996e-14 1.00069 0
1.22767e-14 1.00067 0
7.79618e-15 1.00067 0
-1.30996e-14 1.00069 0
-6.64414e-15 1.00069 0
7.79618e-15 1.00067 0
1.52073e-14 1.00067 0
-2.39507e-14 1.00067 0
-2.85006e-15 1.00067 0
3.53444e-14 1.00064 0
1.53479e-14 1.00064 0
-2.85006e-15 1.00067 0
-1.66652e-14 1.00067 0
1.53479e-14 1.00064 0
1.84224e-14 1.00064 0
-6.64414e-15 1.00069 0
-1.49324e-14 1.00069 0
1.52073e-14 1.00067 0
1.18386e-14 1.00067 0
-1.49324e-14 1.00069 0
-1.40282e-14 1.00069 0
1.18386e-14 1.00067 0
1.58346e-14 1.00067 0
-1.66652e-14 1.00067 0
-7.85596e-15 1.00067 0
1.84224e-14 1.00064 0
2.02809e-14 1.00064 0
-7.85596e-15 1.00067 0
-9.11181e-15 1.00067 0
2.02809e-14 1.00064 0
1.15615e-14 1.00064 0
-2.91381e-14 1.00064 0
-1.53414e-14 1.00064 0
2.28919e-14 1.00062 0
1.44916e-14 1.00062 0
-1.53414e-14 1.00064 0
-1.46892e-14 1.00064 0
1.44916e-14 1.00062 0
1.62161e-14 1.00062 0
-2.13169e-14 1.00062 0
-1.37679e-14 1.00062 0
2.55954e-14 1.0006 0
1.69276e-14 1.0006 0
-1.37679e-14 1.00062 0
-1.16383e-14 1.00062 0
1.69276e-14 1.0006 0
2.5673e-15 1.0006 0
-1.46892e-14 1.00064 0
-1.6444e-14 1.00064 0
1.62161e-14 1.00062 0
9.70413e-15 1.00062 0
-1.6444e-14 1.00064 0
-1.52512e-14 1.00064 0
9.70413e-15 1.00062 0
1.39682e-14 1.00062 0
-1.16383e-14 1.00062 0
-2.69364e-15 1.00062 0
2.5673e-15 1.0006 0
-2.88936e-15 1.0006 0
-2.69364e-15 1.00062 0
-1.00133e-14 1.00062 0
-2.88936e-15 1.0006 0
1.5445e-14 1.0006 0
0 1.0006 0
-2.94115e-14 1.0006 0
0 1.00057 0
-3.41377e-14 1.00057 0
-2.94115e-14 1.0006 0
-4.34907e-15 1.0006 0
-3.41377e-14 1.00057 0
6.00029e-16 1.00057 0
0 1.00057 0
3.29594e-14 1.00057 0
0 1.00055 0
1.83663e-14 1.00055 0
3.29594e-14 1.00057 0
-5.49947e-15 1.00057 0
1.83663e-14 1.00055 0
1.30224e-14 1.00055 0
-4.34907e-15 1.0006 0
-5.4546e-16 1.0006 0
6.00029e-16 1.00057 0
3.87738e-15 1.00057 0
-5.4546e-16 1.0006 0
-1.97656e-14 1.0006 0
3.87738e-15 1.00057 0
7.42956e-15 1.00057 0
-5.49947e-15 1.00057 0
2.32092e-15 1.00057 0
1.30224e-14 1.00055 0
1.23565e-16 1.00055 0
2.32092e-15 1.00057 0
-9.02986e-15 1.00057 0
1.23565e-16 1.00055 0
2.18514e-14 1.00055 0
0 1.00055 0
-1.31742e-14 1.00055 0
0 1.00053 0
-2.05165e-14 1.00053 0
-1.31742e-14 1.00055 0
-2.19664e-14 1.00055 0
-2.05165e-14 1.00053 0
-2.88799e-15 1.00053 0
0 1.00053 0
1.26568e-14 1.00053 0
0 1.00051 0
2.3897e-14 1.00051 0
1.26568e-14 1.00053 0
2.48714e-14 1.00053 0
2.3897e-14 1.00051 0
1.15105e-14 1.00051 0
-2.19664e-14 1.00055 0
-5.17144e-15 1.00055 0
-2.88799e-15 1.00053 0
9.21321e-15 1.00053 0
-5.17144e-15 1.00055 0
-1.12578e-14 1.00055 0
9.21321e-15 1.00053 0
1.33443e-14 1.00053 0
2.48714e-14 1.00053 0
-9.67107e-15 1.00053 0
1.15105e-14 1.00051 0
-5.34762e-16 1.00051 0
-9.67107e-15 1.00053 0
-3.56976e-15 1.00053 0
-5.34762e-16 1.00051 0
8.71508e-16 1.00051 0
-1.97656e-14 1.0006 0
-5.61887e-15 1.0006 0
7.42956e-15 1.00057 0
8.62367e-15 1.00057 0
-5.61887e-15 1.0006 0
-3.83927e-15 1.0006 0
8.62367e-15 1.00057 0
6.19554e-15 1.00057 0
-9.02986e-15 1.00057 0
-8.40721e-15 1.00057 0
2.18514e-14 1.00055 0
1.59074e-14 1.00055 0
-8.40721e-15 1.00057 0
-9.09593e-16 1.00057 0
1.59074e-14 1.00055 0
1.75781e-15 1.00055 0
-3.83927e-15 1.0006 0
-8.07458e-15 1.0006 0
6.19554e-15 1.00057 0
1.51976e-14 1.00057 0
-8.07458e-15 1.0006 0
-1.6041e-15 1.0006 0
1.51976e-14 1.00057 0
4.14515e-15 1.00057 0
-9.09593e-16 1.00057 0
-3.57263e-15 1.00057 0
1.75781e-15 1.00055 0
-3.11344e-16 1.00055 0
-3.57263e-15 1.00057 0
-6.5387e-15 1.00057 0
-3.11344e-16 1.00055 0
1.06226e-14 1.00055 0
-1.12578e-14 1.00055 0
-5.5972e-15 1.00055 0
1.33443e-14 1.00053 0
3.6639e-15 1.00053 0
-5.5972e-15 1.00055 0
-1.75679e-15 1.00055 0
3.6639e-15 1.00053 0
6.95487e-15 1.00053 0
-3.56976e-15 1.00053 0
-8.87815e-15 1.00053 0
8.71508e-16 1.00051 0
1.00402e-14 1.00051 0
-8.87815e-15 1.00053 0
-1.22701e-14 1.00053 0
1.00402e-14 1.00051 0
1.51411e-14 1.00051 0
-1.75679e-15 1.00055 0
-1.05442e-15 1.00055 0
6.95487e-15 1.00053 0
5.0895e-15 1.00053 0
-1.05442e-15 1.00055 0
-5.67578e-15 1.00055 0
5.0895e-15 1.00053 0
8.44369e-15 1.00053 0
-1.22701e-14 1.00053 0
-9.87176e-15 1.00053 0
1.51411e-14 1.00051 0
1.75204e-14 1.00051 0
-9.87176e-15 1.00053 0
-2.66656e-15 1.00053 0
1.75204e-14 1.00051 0
3.38634e-15 1.00051 0
0 1.00051 0
-1.82788e-14 1.00051 0
0 1.00049 0
-1.2118e-14 1.00049 0
-1.82788e-14 1.00051 0
-2.28066e-14 1.00051 0
-1.2118e-14 1.00049 0
-2.62411e-14 1.00049 0
0 1.00049 0
1.73507e-14 1.00049 0
0 1.00047 0
1.56309e-14 1.00047 0
1.73507e-14 1.00049 0
7.93135e-15 1.00049 0
1.56309e-14 1.00047 0
1.09838e-14 1.00047 0
-2.28066e-14 1.00051 0
1.05923e-14 1.00051 0
-2.62411e-14 1.00049 0
2.62025e-14 1.00049 0
1.05923e-14 1.00051 0
-1.25753e-14 1.00051 0
2.62025e-14 1.00049 0
2.5831e-14 1.00049 0
7.93135e-15 1.00049 0
-2.3264e-14 1.00049 0
1.09838e-14 1.00047 0
-1.21028e-14 1.00047 0
-2.3264e-14 1.00049 0
-1.25009e-14 1.00049 0
-1.21028e-14 1.00047 0
1.06391e-14 1.00047 0
0 1.00047 0
-2.06806e-14 1.00047 0
0 1.00044 0
-2.40446e-14 1.00044 0
-2.06806e-14 1.00047 0
1.06693e-14 1.00047 0
-2.40446e-14 1.00044 0
1.23077e-14 1.00044 0
0 1.00044 0
8.93428e-15 1.00044 0
0 1.00042 0
3.04105e-15 1.00042 0
8.93428e-15 1.00044 0
-1.11113e-14 1.00044 0
3.04105e-15 1.00042 0
-9.88214e-15 1.00042 0
1.06693e-14 1.00047 0
-5.88285e-15 1.00047 0
1.23077e-14 1.00044 0
8.58797e-16 1.00044 0
-5.88285e-15 1.00047 0
-2.63844e-14 1.00047 0
8.58797e-16 1.00044 0
-5.7032e-15 1.00044 0
-1.11113e-14 1.00044 0
6.66557e-16 1.00044 0
-9.88214e-15 1.00042 0
1.84316e-14 1.00042 0
6.66557e-16 1.00044 0
4.05825e-15 1.00044 0
1.84316e-14 1.00042 0
1.42421e-14 1.00042 0
-1.25753e-14 1.00051 0
-1.08902e-14 1.00051 0
2.5831e-14 1.00049 0
1.57952e-14 1.00049 0
-1.08902e-14 1.00051 0
-4.06019e-15 1.00051 0
1.57952e-14 1.00049 0
4.06029e-15 1.00049 0
-1.25009e-14 1.00049 0
-7.93443e-15 1.00049 0
1.06391e-14 1.00047 0
9.96728e-15 1.00047 0
-7.93443e-15 1.00049 0
-1.23718e-14 1.00049 0
9.96728e-15 1.00047 0
1.32364e-14 1.00047 0
-4.06019e-15 1.00051 0
-1.74584e-14 1.00051 0
4.06029e-15 1.00049 0
1.5332e-14 1.00049 0
-1.74584e-14 1.00051 0
-8.42758e-15 1.00051 0
1.5332e-14 1.00049 0
6.40335e-15 1.00049 0
-1.23718e-14 1.00049 0
-1.28382e-14 1.00049 0
1.32364e-14 1.00047 0
3.78991e-15 1.00047 0
-1.28382e-14 1.00049 0
-1.03094e-14 1.00049 0
3.78991e-15 1.00047 0
1.5487e-14 1.00047 0
-2.63844e-14 1.00047 0
-1.59118e-14 1.00047 0
-5.7032e-15 1.00044 0
-1.8349e-15 1.00044 0
-1.59118e-14 1.00047 0
-1.68671e-14 1.00047 0
-1.8349e-15 1.00044 0
1.56614e-14 1.00044 0
4.05825e-15 1.00044 0
3.73443e-15 1.00044 0
1.42421e-14 1.00042 0
1.35751e-14 1.00042 0
3.73443e-15 1.00044 0
-1.33219e-14 1.00044 0
1.35751e-14 1.00042 0
1.65085e-14 1.00042 0
-1.68671e-14 1.00047 0
-8.64546e-15 1.00047 0
1.56614e-14 1.00044 0
1.55483e-14 1.00044 0
-8.64546e-15 1.00047 0
-1.64175e-14 1.00047 0
1.55483e-14 1.00044 0
2.28147e-14 1.00044 0
-1.33219e-14 1.00044 0
-1.2776e-14 1.00044 0
1.65085e-14 1.00042 0
1.10506e-14 1.00042 0
-1.2776e-14 1.00044 0
-1.50337e-14 1.00044 0
1.10506e-14 1.00042 0
5.61975e-15 1.00042 0
-1.6041e-15 1.0006 0
-8.19923e-15 1.0006 0
4.14515e-15 1.00057 0
1.93549e-14 1.00057 0
-8.19923e-15 1.0006 0
-7.90534e-15 1.0006 0
1.93549e-14 1.00057 0
1.77146e-14 1.00057 0
-6.5387e-15 1.00057 0
-1.82712e-14 1.00057 0
1.06226e-14 1.00055 0
1.95759e-14 1.00055 0
-1.82712e-14 1.00057 0
-1.50969e-14 1.00057 0
1.95759e-14 1.00055 0
1.64136e-14 1.00055 0
-7.90534e-15 1.0006 0
1.02662e-15 1.0006 0
1.77146e-14 1.00057 0
7.64612e-16 1.00057 0
1.02662e-15 1.0006 0
-1.44723e-14 1.0006 0
7.64612e-16 1.00057 0
2.60253e-14 1.00057 0
-1.50969e-14 1.00057 0
-6.81339e-17 1.00057 0
1.64136e-14 1.00055 0
1.22878e-14 1.00055 0
-6.81339e-17 1.00057 0
-1.73079e-14 1.00057 0
1.22878e-14 1.00055 0
1.15724e-14 1.00055 0
-5.67578e-15 1.00055 0
-1.62006e-14 1.00055 0
8.44369e-15 1.00053 0
1.70922e-14 1.00053 0
-1.62006e-14 1.00055 0
-9.85234e-15 1.00055 0
1.70922e-14 1.00053 0
5.12505e-15 1.00053 0
-2.66656e-15 1.00053 0
-6.32559e-15 1.00053 0
3.38634e-15 1.00051 0
4.81039e-15 1.00051 0
-6.32559e-15 1.00053 0
-2.44295e-16 1.00053 0
4.81039e-15 1.00051 0
3.81226e-15 1.00051 0
-9.85234e-15 1.00055 0
-1.82844e-14 1.00055 0
5.12505e-15 1.00053 0
1.12972e-14 1.00053 0
-1.82844e-14 1.00055 0
-1.0091e-14 1.00055 0
1.12972e-14 1.00053 0
1.1091e-14 1.00053 0
-2.44295e-16 1.00053 0
-7.8754e-15 1.00053 0
3.81226e-15 1.00051 0
8.46307e-15 1.00051 0
-7.8754e-15 1.00053 0
-1.14114e-14 1.00053 0
8.46307e-15 1.00051 0
1.01823e-14 1.00051 0
-1.44723e-14 1.0006 0
-1.20293e-14 1.0006 0
2.60253e-14 1.00057 0
1.55412e-14 1.00057 0
-1.20293e-14 1.0006 0
9.88927e-15 1.0006 0
1.55412e-14 1.00057 0
2.39476e-15 1.00057 0
-1.73079e-14 1.00057 0
-3.90473e-15 1.00057 0
1.15724e-14 1.00055 0
8.45459e-15 1.00055 0
-3.90473e-15 1.00057 0
1.23508e-14 1.00057 0
8.45459e-15 1.00055 0
-7.84367e-15 1.00055 0
9.88927e-15 1.0006 0
5.6723e-15 1.0006 0
2.39476e-15 1.00057 0
1.13163e-14 1.00057 0
5.6723e-15 1.0006 0
-9.55984e-15 1.0006 0
1.13163e-14 1.00057 0
1.38917e-14 1.00057 0
1.23508e-14 1.00057 0
-4.70204e-15 1.00057 0
-7.84367e-15 1.00055 0
1.33822e-14 1.00055 0
-4.70204e-15 1.00057 0
-6.76772e-15 1.00057 0
1.33822e-14 1.00055 0
1.26438e-14 1.00055 0
-1.0091e-14 1.00055 0
-9.19701e-15 1.00055 0
1.1091e-14 1.00053 0
7.38682e-15 1.00053 0
-9.19701e-15 1.00055 0
-7.2302e-16 1.00055 0
7.38682e-15 1.00053 0
1.71883e-15 1.00053 0
-1.14114e-14 1.00053 0
-1.71323e-15 1.00053 0
1.01823e-14 1.00051 0
3.69206e-15 1.00051 0
-1.71323e-15 1.00053 0
-4.09404e-15 1.00053 0
3.69206e-15 1.00051 0
9.37645e-15 1.00051 0
-7.2302e-16 1.00055 0
-1.45905e-14 1.00055 0
1.71883e-15 1.00053 0
1.47987e-14 1.00053 0
-1.45905e-14 1.00055 0
-1.31399e-14 1.00055 0
1.47987e-14 1.00053 0
1.80814e-14 1.00053 0
-4.09404e-15 1.00053 0
-1.2307e-15 1.00053 0
9.37645e-15 1.00051 0
-2.07083e-15 1.00051 0
-1.2307e-15 1.00053 0
-2.27265e-15 1.00053 0
-2.07083e-15 1.00051 0
3.9897e-15 1.00051 0
-8.42758e-15 1.00051 0
-1.34247e-14 1.00051 0
6.40335e-15 1.00049 0
1.37769e-14 1.00049 0
-1.34247e-14 1.00051 0
-1.65377e-14 1.00051 0
1.37769e-14 1.00049 0
2.22538e-14 1.00049 0
-1.03094e-14 1.00049 0
-9.79439e-15 1.00049 0
1.5487e-14 1.00047 0
7.52938e-15 1.00047 0
-9.79439e-15 1.00049 0
-4.89279e-15 1.00049 0
7.52938e-15 1.00047 0
6.00699e-15 1.00047 0
-1.65377e-14 1.00051 0
-1.11861e-14 1.00051 0
2.22538e-14 1.00049 0
1.40854e-14 1.00049 0
-1.11861e-14 1.00051 0