# vtk DataFile Version 3.0
#This file was generated by the deal.II library on 2018/10/15 at 1:30:32
ASCII
DATASET UNSTRUCTURED_GRID

POINTS 20480 double
0 0 0
0.19635 0 0
0 0.310339 0
0.19635 0.310339 0
0.19635 0 0
0.392699 0 0
0.19635 0.310339 0
0.392699 0.310339 0
0 0.310339 0
0.19635 0.310339 0
0 0.622942 0
0.19635 0.622942 0
0.19635 0.310339 0
0.392699 0.310339 0
0.19635 0.622942 0
0.392699 0.622942 0
0.392699 0 0
0.589049 0 0
0.392699 0.310339 0
0.589049 0.310339 0
0.589049 0 0
0.785398 0 0
0.589049 0.310339 0
0.785398 0.310339 0
0.392699 0.310339 0
0.589049 0.310339 0
0.392699 0.622942 0
0.589049 0.622942 0
0.589049 0.310339 0
0.785398 0.310339 0
0.589049 0.622942 0
0.785398 0.622942 0
0 0.622942 0
0.19635 0.622942 0
0 0.935459 0
0.19635 0.935459 0
0.19635 0.622942 0
0.392699 0.622942 0
0.19635 0.935459 0
0.392699 0.935459 0
0 0.935459 0
0.19635 0.935459 0
0 1.24805 0
0.19635 1.24805 0
0.19635 0.935459 0
0.392699 0.935459 0
0.19635 1.24805 0
0.392699 1.24805 0
0.392699 0.622942 0
0.589049 0.622942 0
0.392699 0.935459 0
0.589049 0.935459 0
0.589049 0.622942 0
0.785398 0.622942 0
0.589049 0.935459 0
0.785398 0.935459 0
0.392699 0.935459 0
0.589049 0.935459 0
0.392699 1.24805 0
0.589049 1.24805 0
0.589049 0.935459 0
0.785398 0.935459 0
0.589049 1.24805 0
0.785398 1.24805 0
0.785398 0 0
0.981748 0 0
0.785398 0.310339 0
0.981748 0.310339 0
0.981748 0 0
1.1781 0 0
0.981748 0.310339 0
1.1781 0.310339 0
0.785398 0.310339 0
0.981748 0.310339 0
0.785398 0.622942 0
0.981748 0.622942 0
0.981748 0.310339 0
1.1781 0.310339 0
0.981748 0.622942 0
1.1781 0.622942 0
1.1781 0 0
1.37445 0 0
1.1781 0.310339 0
1.37445 0.310339 0
1.37445 0 0
1.5708 0 0
1.37445 0.310339 0
1.5708 0.310339 0
1.1781 0.310339 0
1.37445 0.310339 0
1.1781 0.622942 0
1.37445 0.622942 0
1.37445 0.310339 0
1.5708 0.310339 0
1.37445 0.622942 0
1.5708 0.622942 0
0.785398 0.622942 0
0.981748 0.622942 0
0.785398 0.935459 0
0.981748 0.935459 0
0.981748 0.622942 0
1.1781 0.622942 0
0.981748 0.935459 0
1.1781 0.935459 0
0.785398 0.935459 0
0.981748 0.935459 0
0.785398 1.24805 0
0.981748 1.24805 0
0.981748 0.935459 0
1.1781 0.935459 0
0.981748 1.24805 0
1.1781 1.24805 0
1.1781 0.622942 0
1.37445 0.622942 0
1.1781 0.935459 0
1.37445 0.935459 0
1.37445 0.622942 0
1.5708 0.622942 0
1.37445 0.935459 0
1.5708 0.935459 0
1.1781 0.935459 0
1.37445 0.935459 0
1.1781 1.24805 0
1.37445 1.24805 0
1.37445 0.935459 0
1.5708 0.935459 0
1.37445 1.24805 0
1.5708 1.24805 0
0 1.24805 0
0.19635 1.24805 0
0 1.56063 0
0.19635 1.56063 0
0.19635 1.24805 0
0.392699 1.24805 0
0.19635 1.56063 0
0.392699 1.56063 0
0 1.56063 0
0.19635 1.56063 0
0 1.87321 0
0.19635 1.87321 0
0.19635 1.56063 0
0.392699 1.56063 0
0.19635 1.87321 0
0.392699 1.87321 0
0.392699 1.24805 0
0.589049 1.24805 0
0.392699 1.56063 0
0.589049 1.56063 0
0.589049 1.24805 0
0.785398 1.24805 0
0.589049 1.56063 0
0.785398 1.56063 0
0.392699 1.56063 0
0.589049 1.56063 0
0.392699 1.87321 0
0.589049 1.87321 0
0.589049 1.56063 0
0.785398 1.56063 0
0.589049 1.87321 0
0.785398 1.87321 0
0 1.87321 0
0.19635 1.87321 0
0 2.18578 0
0.19635 2.18578 0
0.19635 1.87321 0
0.392699 1.87321 0
0.19635 2.18578 0
0.392699 2.18578 0
0 2.18578 0
0.19635 2.18578 0
0 2.49836 0
0.19635 2.49836 0
0.19635 2.18578 0
0.392699 2.18578 0
0.19635 2.49836 0
0.392699 2.49836 0
0.392699 1.87321 0
0.589049 1.87321 0
0.392699 2.18578 0
0.589049 2.18578 0
0.589049 1.87321 0
0.785398 1.87321 0
0.589049 2.18578 0
0.785398 2.18578 0
0.392699 2.18578 0
0.589049 2.18578 0
0.392699 2.49836 0
0.589049 2.49836 0
0.589049 2.18578 0
0.785398 2.18578 0
0.589049 2.49836 0
0.785398 2.49836 0
0.785398 1.24805 0
0.981748 1.24805 0
0.785398 1.56063 0
0.981748 1.56063 0
0.981748 1.24805 0
1.1781 1.24805 0
0.981748 1.56063 0
1.1781 1.56063 0
0.785398 1.56063 0
0.981748 1.56063 0
0.785398 1.87321 0
0.981748 1.87321 0
0.981748 1.56063 0
1.1781 1.56063 0
0.981748 1.87321 0
1.1781 1.87321 0
1.1781 1.24805 0
1.37445 1.24805 0
1.1781 1.56063 0
1.37445 1.56063 0
1.37445 1.24805 0
1.5708 1.24805 0
1.37445 1.56063 0
1.5708 1.56063 0
1.1781 1.56063 0
1.37445 1.56063 0
1.1781 1.87321 0
1.37445 1.87321 0
1.37445 1.56063 0
1.5708 1.56063 0
1.37445 1.87321 0
1.5708 1.87321 0
0.785398 1.87321 0
0.981748 1.87321 0
0.785398 2.18578 0
0.981748 2.18578 0
0.981748 1.87321 0
1.1781 1.87321 0
0.981748 2.18578 0
1.1781 2.18578 0
0.785398 2.18578 0
0.981748 2.18578 0
0.785398 2.49836 0
0.981748 2.49836 0
0.981748 2.18578 0
1.1781 2.18578 0
0.981748 2.49836 0
1.1781 2.49836 0
1.1781 1.87321 0
1.37445 1.87321 0
1.1781 2.18578 0
1.37445 2.18578 0
1.37445 1.87321 0
1.5708 1.87321 0
1.37445 2.18578 0
1.5708 2.18578 0
1.1781 2.18578 0
1.37445 2.18578 0
1.1781 2.49836 0
1.37445 2.49836 0
1.37445 2.18578 0
1.5708 2.18578 0
1.37445 2.49836 0
1.5708 2.49836 0
1.5708 0 0
1.76715 0 0
1.5708 0.310339 0
1.76715 0.310339 0
1.76715 0 0
1.9635 0 0
1.76715 0.310339 0
1.9635 0.310339 0
1.5708 0.310339 0
1.76715 0.310339 0
1.5708 0.622942 0
1.76715 0.622942 0
1.76715 0.310339 0
1.9635 0.310339 0
1.76715 0.622942 0
1.9635 0.622942 0
1.9635 0 0
2.15984 0 0
1.9635 0.310339 0
2.15984 0.310339 0
2.15984 0 0
2.35619 0 0
2.15984 0.310339 0
2.35619 0.310339 0
1.9635 0.310339 0
2.15984 0.310339 0
1.9635 0.622942 0
2.15984 0.622942 0
2.15984 0.310339 0
2.35619 0.310339 0
2.15984 0.622942 0
2.35619 0.622942 0
1.5708 0.622942 0
1.76715 0.622942 0
1.5708 0.935459 0
1.76715 0.935459 0
1.76715 0.622942 0
1.9635 0.622942 0
1.76715 0.935459 0
1.9635 0.935459 0
1.5708 0.935459 0
1.76715 0.935459 0
1.5708 1.24805 0
1.76715 1.24805 0
1.76715 0.935459 0
1.9635 0.935459 0
1.76715 1.24805 0
1.9635 1.24805 0
1.9635 0.622942 0
2.15984 0.622942 0
1.9635 0.935459 0
2.15984 0.935459 0
2.15984 0.622942 0
2.35619 0.622942 0
2.15984 0.935459 0
2.35619 0.935459 0
1.9635 0.935459 0
2.15984 0.935459 0
1.9635 1.24805 0
2.15984 1.24805 0
2.15984 0.935459 0
2.35619 0.935459 0
2.15984 1.24805 0
2.35619 1.24805 0
2.35619 0 0
2.55254 0 0
2.35619 0.310339 0
2.55254 0.310339 0
2.55254 0 0
2.74889 0 0
2.55254 0.310339 0
2.74889 0.310339 0
2.35619 0.310339 0
2.55254 0.310339 0
2.35619 0.622942 0
2.55254 0.622942 0
2.55254 0.310339 0
2.74889 0.310339 0
2.55254 0.622942 0
2.74889 0.622942 0
2.74889 0 0
2.94524 0 0
2.74889 0.310339 0
2.94524 0.310339 0
2.94524 0 0
3.14159 0 0
2.94524 0.310339 0
3.14159 0.310339 0
2.74889 0.310339 0
2.94524 0.310339 0
2.74889 0.622942 0
2.94524 0.622942 0
2.94524 0.310339 0
3.14159 0.310339 0
2.94524 0.622942 0
3.14159 0.622942 0
2.35619 0.622942 0
2.55254 0.622942 0
2.35619 0.935459 0
2.55254 0.935459 0
2.55254 0.622942 0
2.74889 0.622942 0
2.55254 0.935459 0
2.74889 0.935459 0
2.35619 0.935459 0
2.55254 0.935459 0
2.35619 1.24805 0
2.55254 1.24805 0
2.55254 0.935459 0
2.74889 0.935459 0
2.55254 1.24805 0
2.74889 1.24805 0
2.74889 0.622942 0
2.94524 0.622942 0
2.74889 0.935459 0
2.94524 0.935459 0
2.94524 0.622942 0
3.14159 0.622942 0
2.94524 0.935459 0
3.14159 0.935459 0
2.74889 0.935459 0
2.94524 0.935459 0
2.74889 1.24805 0
2.94524 1.24805 0
2.94524 0.935459 0
3.14159 0.935459 0
2.94524 1.24805 0
3.14159 1.24805 0
1.5708 1.24805 0
1.76715 1.24805 0
1.5708 1.56063 0
1.76715 1.56063 0
1.76715 1.24805 0
1.9635 1.24805 0
1.76715 1.56063 0
1.9635 1.56063 0
1.5708 1.56063 0
1.76715 1.56063 0
1.5708 1.87321 0
1.76715 1.87321 0
1.76715 1.56063 0
1.9635 1.56063 0
1.76715 1.87321 0
1.9635 1.87321 0
1.9635 1.24805 0
2.15984 1.24805 0
1.9635 1.56063 0
2.15984 1.56063 0
2.15984 1.24805 0
2.35619 1.24805 0
2.15984 1.56063 0
2.35619 1.56063 0
1.9635 1.56063 0
2.15984 1.56063 0
1.9635 1.87321 0
2.15984 1.87321 0
2.15984 1.56063 0
2.35619 1.56063 0
2.15984 1.87321 0
2.35619 1.87321 0
1.5708 1.87321 0
1.76715 1.87321 0
1.5708 2.18578 0
1.76715 2.18578 0
1.76715 1.87321 0
1.9635 1.87321 0
1.76715 2.18578 0
1.9635 2.18578 0
1.5708 2.18578 0
1.76715 2.18578 0
1.5708 2.49836 0
1.76715 2.49836 0
1.76715 2.18578 0
1.9635 2.18578 0
1.76715 2.49836 0
1.9635 2.49836 0
1.9635 1.87321 0
2.15984 1.87321 0
1.9635 2.18578 0
2.15984 2.18578 0
2.15984 1.87321 0
2.35619 1.87321 0
2.15984 2.18578 0
2.35619 2.18578 0
1.9635 2.18578 0
2.15984 2.18578 0
1.9635 2.49836 0
2.15984 2.49836 0
2.15984 2.18578 0
2.35619 2.18578 0
2.15984 2.49836 0
2.35619 2.49836 0
2.35619 1.24805 0
2.55254 1.24805 0
2.35619 1.56063 0
2.55254 1.56063 0
2.55254 1.24805 0
2.74889 1.24805 0
2.55254 1.56063 0
2.74889 1.56063 0
2.35619 1.56063 0
2.55254 1.56063 0
2.35619 1.87321 0
2.55254 1.87321 0
2.55254 1.56063 0
2.74889 1.56063 0
2.55254 1.87321 0
2.74889 1.87321 0
2.74889 1.24805 0
2.94524 1.24805 0
2.74889 1.56063 0
2.94524 1.56063 0
2.94524 1.24805 0
3.14159 1.24805 0
2.94524 1.56063 0
3.14159 1.56063 0
2.74889 1.56063 0
2.94524 1.56063 0
2.74889 1.87321 0
2.94524 1.87321 0
2.94524 1.56063 0
3.14159 1.56063 0
2.94524 1.87321 0
3.14159 1.87321 0
2.35619 1.87321 0
2.55254 1.87321 0
2.35619 2.18578 0
2.55254 2.18578 0
2.55254 1.87321 0
2.74889 1.87321 0
2.55254 2.18578 0
2.74889 2.18578 0
2.35619 2.18578 0
2.55254 2.18578 0
2.35619 2.49836 0
2.55254 2.49836 0
2.55254 2.18578 0
2.74889 2.18578 0
2.55254 2.49836 0
2.74889 2.49836 0
2.74889 1.87321 0
2.94524 1.87321 0
2.74889 2.18578 0
2.94524 2.18578 0
2.94524 1.87321 0
3.14159 1.87321 0
2.94524 2.18578 0
3.14159 2.18578 0
2.74889 2.18578 0
2.94524 2.18578 0
2.74889 2.49836 0
2.94524 2.49836 0
2.94524 2.18578 0
3.14159 2.18578 0
2.94524 2.49836 0
3.14159 2.49836 0
0 2.49836 0
0.19635 2.49836 0
0 2.81093 0
0.19635 2.81093 0
0.19635 2.49836 0
0.392699 2.49836 0
0.19635 2.81093 0
0.392699 2.81093 0
0 2.81093 0
0.19635 2.81093 0
0 3.12351 0
0.19635 3.12351 0
0.19635 2.81093 0
0.392699 2.81093 0
0.19635 3.12351 0
0.392699 3.12351 0
0.392699 2.49836 0
0.589049 2.49836 0
0.392699 2.81093 0
0.589049 2.81093 0
0.589049 2.49836 0
0.785398 2.49836 0
0.589049 2.81093 0
0.785398 2.81093 0
0.392699 2.81093 0
0.589049 2.81093 0
0.392699 3.12351 0
0.589049 3.12351 0
0.589049 2.81093 0
0.785398 2.81093 0
0.589049 3.12351 0
0.785398 3.12351 0
0 3.12351 0
0.19635 3.12351 0
0 3.43608 0
0.19635 3.43608 0
0.19635 3.12351 0
0.392699 3.12351 0
0.19635 3.43608 0
[...]
POINT_DATA 20480
VECTORS uf double
0 1 0
-3.53812e-15 1 0
0 1.00069 0
5.41416e-15 1.00069 0
-3.53812e-15 1 0
-1.36104e-14 1 0
5.41416e-15 1.00069 0
3.10027e-15 1.00069 0
0 1.00069 0
-1.57232e-14 1.00069 0
0 1.00049 0
2.48242e-14 1.00049 0
-1.57232e-14 1.00069 0
4.53938e-15 1.00069 0
2.48242e-14 1.00049 0
1.52071e-14 1.00049 0
-1.36104e-14 1 0
-6.29571e-15 1 0
3.10027e-15 1.00069 0
-1.31474e-15 1.00069 0
-6.29571e-15 1 0
-3.36846e-14 1 0
-1.31474e-15 1.00069 0
3.87216e-14 1.00069 0
4.53938e-15 1.00069 0
-9.11268e-15 1.00069 0
1.52071e-14 1.00049 0
1.89141e-14 1.00049 0
-9.11268e-15 1.00069 0
-2.83067e-14 1.00069 0
1.89141e-14 1.00049 0
2.23515e-14 1.00049 0
0 1.00049 0
-3.5394e-14 1.00049 0
0 1.00053 0
3.48197e-14 1.00053 0
-3.5394e-14 1.00049 0
-2.94961e-14 1.00049 0
3.48197e-14 1.00053 0
3.71667e-14 1.00053 0
0 1.00053 0
-2.21782e-14 1.00053 0
0 1.0005 0
2.04113e-14 1.0005 0
-2.21782e-14 1.00053 0
-3.8619e-14 1.00053 0
2.04113e-14 1.0005 0
3.59902e-14 1.0005 0
-2.94961e-14 1.00049 0
-2.5371e-14 1.00049 0
3.71667e-14 1.00053 0
3.58346e-14 1.00053 0
-2.5371e-14 1.00049 0
-1.86163e-14 1.00049 0
3.58346e-14 1.00053 0
3.45663e-14 1.00053 0
-3.8619e-14 1.00053 0
-2.10165e-14 1.00053 0
3.59902e-14 1.0005 0
2.19156e-14 1.0005 0
-2.10165e-14 1.00053 0
-2.7313e-14 1.00053 0
2.19156e-14 1.0005 0
3.20813e-14 1.0005 0
-3.36846e-14 1 0
-4.64271e-14 1 0
3.87216e-14 1.00069 0
4.64187e-14 1.00069 0
-4.64271e-14 1 0
-3.04456e-14 1 0
4.64187e-14 1.00069 0
2.68482e-14 1.00069 0
-2.83067e-14 1.00069 0
-3.57489e-14 1.00069 0
2.23515e-14 1.00049 0
4.03097e-14 1.00049 0
-3.57489e-14 1.00069 0
-4.76006e-14 1.00069 0
4.03097e-14 1.00049 0
6.80758e-14 1.00049 0
-3.04456e-14 1 0
-2.45833e-14 1 0
2.68482e-14 1.00069 0
2.48292e-14 1.00069 0
-2.45833e-14 1 0
-1.78201e-14 1 0
2.48292e-14 1.00069 0
2.51803e-14 1.00069 0
-4.76006e-14 1.00069 0
-3.34721e-14 1.00069 0
6.80758e-14 1.00049 0
4.18531e-14 1.00049 0
-3.34721e-14 1.00069 0
-2.60523e-14 1.00069 0
4.18531e-14 1.00049 0
9.90198e-15 1.00049 0
-1.86163e-14 1.00049 0
-2.27169e-14 1.00049 0
3.45663e-14 1.00053 0
3.26563e-14 1.00053 0
-2.27169e-14 1.00049 0
-3.97302e-14 1.00049 0
3.26563e-14 1.00053 0
3.53002e-14 1.00053 0
-2.7313e-14 1.00053 0
-2.47572e-14 1.00053 0
3.20813e-14 1.0005 0
2.20965e-14 1.0005 0
-2.47572e-14 1.00053 0
-3.15319e-14 1.00053 0
2.20965e-14 1.0005 0
3.96296e-14 1.0005 0
-3.97302e-14 1.00049 0
-3.96873e-14 1.00049 0
3.53002e-14 1.00053 0
5.72988e-14 1.00053 0
-3.96873e-14 1.00049 0
-1.62726e-15 1.00049 0
5.72988e-14 1.00053 0
2.88841e-14 1.00053 0
-3.15319e-14 1.00053 0
-4.4587e-14 1.00053 0
3.96296e-14 1.0005 0
4.22777e-14 1.0005 0
-4.4587e-14 1.00053 0
-3.17444e-14 1.00053 0
4.22777e-14 1.0005 0
3.25011e-14 1.0005 0
0 1.0005 0
-1.27202e-14 1.0005 0
0 1.00048 0
9.21798e-15 1.00048 0
-1.27202e-14 1.0005 0
-3.81545e-14 1.0005 0
9.21798e-15 1.00048 0
4.05189e-14 1.00048 0
0 1.00048 0
-2.30251e-14 1.00048 0
0 1.00046 0
2.73401e-14 1.00046 0
-2.30251e-14 1.00048 0
-3.78174e-14 1.00048 0
2.73401e-14 1.00046 0
3.78524e-14 1.00046 0
-3.81545e-14 1.0005 0
-3.40452e-14 1.0005 0
4.05189e-14 1.00048 0
4.44228e-14 1.00048 0
-3.40452e-14 1.0005 0
-3.58624e-14 1.0005 0
4.44228e-14 1.00048 0
3.3434e-14 1.00048 0
-3.78174e-14 1.00048 0
-5.95418e-14 1.00048 0
3.78524e-14 1.00046 0
5.4484e-14 1.00046 0
-5.95418e-14 1.00048 0
-3.83737e-14 1.00048 0
5.4484e-14 1.00046 0
4.3165e-14 1.00046 0
0 1.00046 0
-1.54052e-14 1.00046 0
0 1.00045 0
4.13345e-15 1.00045 0
-1.54052e-14 1.00046 0
-4.07279e-14 1.00046 0
4.13345e-15 1.00045 0
3.886e-14 1.00045 0
0 1.00045 0
-1.42508e-15 1.00045 0
0 1.00043 0
1.25607e-14 1.00043 0
-1.42508e-15 1.00045 0
-3.13722e-14 1.00045 0
1.25607e-14 1.00043 0
2.76523e-14 1.00043 0
-4.07279e-14 1.00046 0
-3.32238e-14 1.00046 0
3.886e-14 1.00045 0
2.41117e-14 1.00045 0
-3.32238e-14 1.00046 0
-7.20332e-14 1.00046 0
2.41117e-14 1.00045 0
8.21296e-14 1.00045 0
-3.13722e-14 1.00045 0
-2.60448e-14 1.00045 0
2.76523e-14 1.00043 0
2.88779e-14 1.00043 0
-2.60448e-14 1.00045 0
-6.92171e-14 1.00045 0
2.88779e-14 1.00043 0
5.93576e-14 1.00043 0
-3.58624e-14 1.0005 0
-7.28058e-15 1.0005 0
3.3434e-14 1.00048 0
9.1551e-15 1.00048 0
-7.28058e-15 1.0005 0
-3.60812e-14 1.0005 0
9.1551e-15 1.00048 0
3.50983e-14 1.00048 0
-3.83737e-14 1.00048 0
-2.22241e-14 1.00048 0
4.3165e-14 1.00046 0
2.83258e-14 1.00046 0
-2.22241e-14 1.00048 0
-2.90796e-14 1.00048 0
2.83258e-14 1.00046 0
2.57408e-14 1.00046 0
-3.60812e-14 1.0005 0
-3.74099e-14 1.0005 0
3.50983e-14 1.00048 0
4.32975e-14 1.00048 0
-3.74099e-14 1.0005 0
-9.06835e-15 1.0005 0
4.32975e-14 1.00048 0
1.46144e-14 1.00048 0
-2.90796e-14 1.00048 0
-3.40314e-14 1.00048 0
2.57408e-14 1.00046 0
2.35664e-14 1.00046 0
-3.40314e-14 1.00048 0
-2.95008e-14 1.00048 0
2.35664e-14 1.00046 0
2.98303e-14 1.00046 0
-7.20332e-14 1.00046 0
-4.69282e-14 1.00046 0
8.21296e-14 1.00045 0
5.13344e-14 1.00045 0
-4.69282e-14 1.00046 0
-3.21777e-14 1.00046 0
5.13344e-14 1.00045 0
4.02031e-14 1.00045 0
-6.92171e-14 1.00045 0
-4.77745e-14 1.00045 0
5.93576e-14 1.00043 0
4.2285e-14 1.00043 0
-4.77745e-14 1.00045 0
-4.82516e-14 1.00045 0
4.2285e-14 1.00043 0
4.55263e-14 1.00043 0
-3.21777e-14 1.00046 0
-2.53742e-14 1.00046 0
4.02031e-14 1.00045 0
2.53636e-14 1.00045 0
-2.53742e-14 1.00046 0
-4.25039e-14 1.00046 0
2.53636e-14 1.00045 0
3.90787e-14 1.00045 0
-4.82516e-14 1.00045 0
-3.27343e-14 1.00045 0
4.55263e-14 1.00043 0
4.24465e-14 1.00043 0
-3.27343e-14 1.00045 0
-3.2947e-14 1.00045 0
4.24465e-14 1.00043 0
3.81755e-14 1.00043 0
-1.78201e-14 1 0
-1.96811e-14 1 0
2.51803e-14 1.00069 0
3.32306e-14 1.00069 0
-1.96811e-14 1 0
-2.11978e-14 1 0
3.32306e-14 1.00069 0
3.32823e-14 1.00069 0
-2.60523e-14 1.00069 0
-4.97036e-14 1.00069 0
9.90198e-15 1.00049 0
5.61176e-14 1.00049 0
-4.97036e-14 1.00069 0
-3.39374e-14 1.00069 0
5.61176e-14 1.00049 0
3.29372e-14 1.00049 0
-2.11978e-14 1 0
-2.01957e-14 1 0
3.32823e-14 1.00069 0
2.53807e-14 1.00069 0
-2.01957e-14 1 0
-2.80703e-14 1 0
2.53807e-14 1.00069 0
3.21294e-14 1.00069 0
-3.39374e-14 1.00069 0
-2.99048e-14 1.00069 0
3.29372e-14 1.00049 0
4.61322e-14 1.00049 0
-2.99048e-14 1.00069 0
-2.83327e-14 1.00069 0
4.61322e-14 1.00049 0
2.15968e-14 1.00049 0
-1.62726e-15 1.00049 0
-5.265e-14 1.00049 0
2.88841e-14 1.00053 0
5.51586e-14 1.00053 0
-5.265e-14 1.00049 0
-3.90566e-14 1.00049 0
5.51586e-14 1.00053 0
4.63558e-14 1.00053 0
-3.17444e-14 1.00053 0
-4.75375e-14 1.00053 0
3.25011e-14 1.0005 0
5.012e-14 1.0005 0
-4.75375e-14 1.00053 0
-2.08029e-14 1.00053 0
5.012e-14 1.0005 0
2.50111e-14 1.0005 0
-3.90566e-14 1.00049 0
-4.52107e-14 1.00049 0
4.63558e-14 1.00053 0
4.05675e-14 1.00053 0
-4.52107e-14 1.00049 0
1.28251e-15 1.00049 0
4.05675e-14 1.00053 0
2.24324e-14 1.00053 0
-2.08029e-14 1.00053 0
-3.41457e-14 1.00053 0
2.50111e-14 1.0005 0
4.19318e-14 1.0005 0
-3.41457e-14 1.00053 0
-2.40166e-14 1.00053 0
4.19318e-14 1.0005 0
2.33478e-14 1.0005 0
-2.80703e-14 1 0
-2.91823e-14 1 0
3.21294e-14 1.00069 0
2.58103e-14 1.00069 0
-2.91823e-14 1 0
-2.81551e-14 1 0
2.58103e-14 1.00069 0
3.3855e-14 1.00069 0
-2.83327e-14 1.00069 0
-2.93712e-14 1.00069 0
2.15968e-14 1.00049 0
3.30418e-14 1.00049 0
-2.93712e-14 1.00069 0
-5.39968e-14 1.00069 0
3.30418e-14 1.00049 0
5.55437e-14 1.00049 0
-2.81551e-14 1 0
-3.41809e-14 1 0
3.3855e-14 1.00069 0
3.89725e-14 1.00069 0
-3.41809e-14 1 0
-4.15048e-14 1 0
3.89725e-14 1.00069 0
4.95564e-14 1.00069 0
-5.39968e-14 1.00069 0
-4.82075e-14 1.00069 0
5.55437e-14 1.00049 0
4.27865e-14 1.00049 0
-4.82075e-14 1.00069 0
-4.69575e-14 1.00069 0
4.27865e-14 1.00049 0
4.27878e-14 1.00049 0
1.28251e-15 1.00049 0
-4.77059e-15 1.00049 0
2.24324e-14 1.00053 0
2.34124e-14 1.00053 0
-4.77059e-15 1.00049 0
-4.11159e-14 1.00049 0
2.34124e-14 1.00053 0
6.1458e-14 1.00053 0
-2.40166e-14 1.00053 0
-2.54061e-14 1.00053 0
2.33478e-14 1.0005 0
2.41174e-14 1.0005 0
-2.54061e-14 1.00053 0
-4.97922e-14 1.00053 0
2.41174e-14 1.0005 0
3.97068e-14 1.0005 0
-4.11159e-14 1.00049 0
-2.74527e-14 1.00049 0
6.1458e-14 1.00053 0
4.45961e-14 1.00053 0
-2.74527e-14 1.00049 0
-2.80268e-14 1.00049 0
4.45961e-14 1.00053 0
4.72029e-14 1.00053 0
-4.97922e-14 1.00053 0
-4.25986e-14 1.00053 0
3.97068e-14 1.0005 0
6.35336e-14 1.0005 0
-4.25986e-14 1.00053 0
-4.69219e-14 1.00053 0
6.35336e-14 1.0005 0
5.50571e-14 1.0005 0
-9.06835e-15 1.0005 0
-3.34714e-14 1.0005 0
1.46144e-14 1.00048 0
3.75178e-14 1.00048 0
-3.34714e-14 1.0005 0
-3.82792e-14 1.0005 0
3.75178e-14 1.00048 0
4.26337e-14 1.00048 0
-2.95008e-14 1.00048 0
-3.77678e-14 1.00048 0
2.98303e-14 1.00046 0
3.56575e-14 1.00046 0
-3.77678e-14 1.00048 0
-3.64613e-14 1.00048 0
3.56575e-14 1.00046 0
4.06152e-14 1.00046 0
-3.82792e-14 1.0005 0
-3.87102e-14 1.0005 0
4.26337e-14 1.00048 0
3.84551e-14 1.00048 0
-3.87102e-14 1.0005 0
-2.36471e-14 1.0005 0
3.84551e-14 1.00048 0
3.06465e-14 1.00048 0
-3.64613e-14 1.00048 0
-4.12449e-14 1.00048 0
4.06152e-14 1.00046 0
5.2166e-14 1.00046 0
-4.12449e-14 1.00048 0
-3.68213e-14 1.00048 0
5.2166e-14 1.00046 0
4.8756e-14 1.00046 0
-4.25039e-14 1.00046 0
-5.75165e-14 1.00046 0
3.90787e-14 1.00045 0
6.32488e-14 1.00045 0
-5.75165e-14 1.00046 0
-4.96603e-14 1.00046 0
6.32488e-14 1.00045 0
5.22547e-14 1.00045 0
-3.2947e-14 1.00045 0
-5.68295e-14 1.00045 0
3.81755e-14 1.00043 0
5.58806e-14 1.00043 0
-5.68295e-14 1.00045 0
-5.13909e-14 1.00045 0
5.58806e-14 1.00043 0
4.91647e-14 1.00043 0
-4.96603e-14 1.00046 0
-6.31258e-14 1.00046 0
5.22547e-14 1.00045 0
6.3712e-14 1.00045 0
-6.31258e-14 1.00046 0
-5.92857e-14 1.00046 0
6.3712e-14 1.00045 0
5.82668e-14 1.00045 0
-5.13909e-14 1.00045 0
-4.38863e-14 1.00045 0
4.91647e-14 1.00043 0
3.39613e-14 1.00043 0
-4.38863e-14 1.00045 0
-5.37842e-14 1.00045 0
3.39613e-14 1.00043 0
5.0906e-14 1.00043 0
-2.36471e-14 1.0005 0
-6.9512e-15 1.0005 0
3.06465e-14 1.00048 0
8.40636e-15 1.00048 0
-6.9512e-15 1.0005 0
-2.14592e-14 1.0005 0
8.40636e-15 1.00048 0
3.66861e-14 1.00048 0
-3.68213e-14 1.00048 0
-2.02729e-14 1.00048 0
4.8756e-14 1.00046 0
3.99229e-14 1.00046 0
-2.02729e-14 1.00048 0
-3.49765e-14 1.00048 0
3.99229e-14 1.00046 0
4.22915e-14 1.00046 0
-2.14592e-14 1.0005 0
-5.37111e-14 1.0005 0
3.66861e-14 1.00048 0
4.81706e-14 1.00048 0
-5.37111e-14 1.0005 0
-3.45596e-14 1.0005 0
4.81706e-14 1.00048 0
4.03469e-14 1.00048 0
-3.49765e-14 1.00048 0
-2.95239e-14 1.00048 0
4.22915e-14 1.00046 0
3.75795e-14 1.00046 0
-2.95239e-14 1.00048 0
-4.60107e-14 1.00048 0
3.75795e-14 1.00046 0
5.47766e-14 1.00046 0
-5.92857e-14 1.00046 0
-4.99772e-14 1.00046 0
5.82668e-14 1.00045 0
5.04005e-14 1.00045 0
-4.99772e-14 1.00046 0
-4.15689e-14 1.00046 0
5.04005e-14 1.00045 0
3.71424e-14 1.00045 0
-5.37842e-14 1.00045 0
-3.96938e-14 1.00045 0
5.0906e-14 1.00043 0
3.19621e-14 1.00043 0
-3.96938e-14 1.00045 0
-3.72267e-14 1.00045 0
3.19621e-14 1.00043 0
3.69019e-14 1.00043 0
-4.15689e-14 1.00046 0
-3.27808e-14 1.00046 0
3.71424e-14 1.00045 0
3.03112e-14 1.00045 0
-3.27808e-14 1.00046 0
-4.17223e-14 1.00046 0
3.03112e-14 1.00045 0
3.33392e-14 1.00045 0
-3.72267e-14 1.00045 0
-3.6827e-14 1.00045 0
3.69019e-14 1.00043 0
3.26686e-14 1.00043 0
-3.6827e-14 1.00045 0
-1.96645e-14 1.00045 0
3.26686e-14 1.00043 0
2.53491e-14 1.00043 0
0 1.00043 0
-1.8863e-14 1.00043 0
0 1.00041 0
5.25235e-15 1.00041 0
-1.8863e-14 1.00043 0
-2.37572e-14 1.00043 0
5.25235e-15 1.00041 0
2.16954e-14 1.00041 0
0 1.00041 0
-5.46691e-15 1.00041 0
0 1.0004 0
1.5866e-14 1.0004 0
-5.46691e-15 1.00041 0
-1.73086e-14 1.00041 0
1.5866e-14 1.0004 0
1.01043e-14 1.0004 0
-2.37572e-14 1.00043 0
-2.06267e-14 1.00043 0
2.16954e-14 1.00041 0
1.82809e-14 1.00041 0
-2.06267e-14 1.00043 0
-4.72573e-14 1.00043 0
1.82809e-14 1.00041 0
3.77103e-14 1.00041 0
-1.73086e-14 1.00041 0
-2.23938e-14 1.00041 0
1.01043e-14 1.0004 0
2.43359e-14 1.0004 0
-2.23938e-14 1.00041 0
-3.34121e-14 1.00041 0
2.43359e-14 1.0004 0
3.56086e-14 1.0004 0
0 1.0004 0
-6.30959e-15 1.0004 0
0 1.00038 0
2.96037e-15 1.00038 0
-6.30959e-15 1.0004 0
-1.16644e-14 1.0004 0
2.96037e-15 1.00038 0
1.969e-14 1.00038 0
0 1.00038 0
-2.43187e-15 1.00038 0
0 1.00036 0
1.56588e-14 1.00036 0
-2.43187e-15 1.00038 0
7.43931e-16 1.00038 0
1.56588e-14 1.00036 0
2.84171e-16 1.00036 0
-1.16644e-14 1.0004 0
-3.10102e-14 1.0004 0
1.969e-14 1.00038 0
3.4602e-14 1.00038 0
-3.10102e-14 1.0004 0
-3.2573e-14 1.0004 0
3.4602e-14 1.00038 0
3.65651e-14 1.00038 0
7.43931e-16 1.00038 0
-2.10974e-14 1.00038 0
2.84171e-16 1.00036 0
2.33858e-14 1.00036 0
-2.10974e-14 1.00038 0
-2.85509e-14 1.00038 0
2.33858e-14 1.00036 0
3.55766e-14 1.00036 0
-4.72573e-14 1.00043 0
-3.22533e-14 1.00043 0
3.77103e-14 1.00041 0
3.21931e-14 1.00041 0
-3.22533e-14 1.00043 0
-3.94652e-14 1.00043 0
3.21931e-14 1.00041 0
3.7419e-14 1.00041 0
-3.34121e-14 1.00041 0
-2.91309e-14 1.00041 0
3.56086e-14 1.0004 0
3.33992e-14 1.0004 0
-2.91309e-14 1.00041 0
-3.25212e-14 1.00041 0
3.33992e-14 1.0004 0
3.20027e-14 1.0004 0
-3.94652e-14 1.00043 0
-3.33642e-14 1.00043 0
3.7419e-14 1.00041 0
2.07426e-14 1.00041 0
-3.33642e-14 1.00043 0
-4.11197e-14 1.00043 0
2.07426e-14 1.00041 0
4.53519e-14 1.00041 0
-3.25212e-14 1.00041 0
4.70396e-15 1.00041 0
3.20027e-14 1.0004 0
-1.6752e-16 1.0004 0
4.70396e-15 1.00041 0
-4.53183e-14 1.00041 0
-1.6752e-16 1.0004 0
5.1349e-14 1.0004 0
-3.2573e-14 1.0004 0
-2.67271e-14 1.0004 0
3.65651e-14 1.00038 0
2.28112e-14 1.00038 0
-2.67271e-14 1.0004 0
-2.23899e-14 1.0004 0
2.28112e-14 1.00038 0
2.30387e-14 1.00038 0
-2.85509e-14 1.00038 0
-2.9604e-14 1.00038 0
3.55766e-14 1.00036 0
3.60923e-14 1.00036 0
-2.9604e-14 1.00038 0
-3.25563e-14 1.00038 0
3.60923e-14 1.00036 0
3.78632e-14 1.00036 0
-2.23899e-14 1.0004 0
-2.15874e-14 1.0004 0
2.30387e-14 1.00038 0
2.80455e-14 1.00038 0
-2.15874e-14 1.0004 0
-4.84286e-14 1.0004 0
2.80455e-14 1.00038 0
4.04119e-14 1.00038 0
-3.25563e-14 1.00038 0
-3.43208e-14 1.00038 0
3.78632e-14 1.00036 0
3.72119e-14 1.00036 0
-3.43208e-14 1.00038 0
-2.78334e-14 1.00038 0
3.72119e-14 1.00036 0
3.30733e-14 1.00036 0
0 1.00036 0
-2.1401e-14 1.00036 0
0 1.00035 0
1.41573e-14 1.00035 0
-2.1401e-14 1.00036 0
-1.14238e-14 1.00036 0
1.41573e-14 1.00035 0
5.09031e-15 1.00035 0
0 1.00035 0
-1.32304e-14 1.00035 0
0 1.00033 0
4.91027e-15 1.00033 0
-1.32304e-14 1.00035 0
-6.00969e-15 1.00035 0
4.91027e-15 1.00033 0
9.95728e-15 1.00033 0
-1.14238e-14 1.00036 0
-3.56802e-14 1.00036 0
5.09031e-15 1.00035 0
3.15288e-14 1.00035 0
-3.56802e-14 1.00036 0
-6.81298e-14 1.00036 0
3.15288e-14 1.00035 0
7.0996e-14 1.00035 0
-6.00969e-15 1.00035 0
-2.68562e-14 1.00035 0
9.95728e-15 1.00033 0
3.09039e-14 1.00033 0
-2.68562e-14 1.00035 0
-5.4413e-14 1.00035 0
3.09039e-14 1.00033 0
5.03799e-14 1.00033 0
0 1.00033 0
3.04771e-15 1.00033 0
0 1.00032 0
-9.83448e-15 1.00032 0
3.04771e-15 1.00033 0
-6.48584e-15 1.00033 0
-9.83448e-15 1.00032 0
3.61843e-15 1.00032 0
0 1.00032 0
1.62191e-14 1.00032 0
0 1.0003 0
-8.8434e-15 1.0003 0
1.62191e-14 1.00032 0
-6.9403e-15 1.00032 0
-8.8434e-15 1.0003 0
7.79332e-15 1.0003 0
-6.48584e-15 1.00033 0
-3.02579e-14 1.00033 0
3.61843e-15 1.00032 0
3.18861e-14 1.00032 0
-3.02579e-14 1.00033 0
-5.7567e-14 1.00033 0
3.18861e-14 1.00032 0
5.56148e-14 1.00032 0
-6.9403e-15 1.00032 0
-3.39227e-14 1.00032 0
7.79332e-15 1.0003 0
3.69784e-14 1.0003 0
-3.39227e-14 1.00032 0
-4.03084e-14 1.00032 0
3.69784e-14 1.0003 0
4.2451e-14 1.0003 0
-6.81298e-14 1.00036 0
-3.90877e-14 1.00036 0
7.0996e-14 1.00035 0
4.03696e-14 1.00035 0
-3.90877e-14 1.00036 0
-3.20007e-14 1.00036 0
4.03696e-14 1.00035 0
3.24659e-14 1.00035 0
-5.4413e-14 1.00035 0
-4.19574e-14 1.00035 0
5.03799e-14 1.00033 0
3.58706e-14 1.00033 0
-4.19574e-14 1.00035 0
-4.13838e-14 1.00035 0
3.58706e-14 1.00033 0
4.32209e-14 1.00033 0
-3.20007e-14 1.00036 0
-3.98128e-14 1.00036 0
3.24659e-14 1.00035 0
4.82156e-14 1.00035 0
-3.98128e-14 1.00036 0
-4.00764e-14 1.00036 0
4.82156e-14 1.00035 0
4.49468e-14 1.00035 0
-4.13838e-14 1.00035 0
-3.93654e-14 1.00035 0
4.32209e-14 1.00033 0
3.7538e-14 1.00033 0
-3.93654e-14 1.00035 0
-4.50508e-14 1.00035 0
3.7538e-14 1.00033 0
4.74269e-14 1.00033 0
-5.7567e-14 1.00033 0
-2.72611e-14 1.00033 0
5.56148e-14 1.00032 0
3.3653e-14 1.00032 0
-2.72611e-14 1.00033 0
-3.09712e-14 1.00033 0
3.3653e-14 1.00032 0
3.05202e-14 1.00032 0
-4.03084e-14 1.00032 0
-3.74705e-14 1.00032 0
4.2451e-14 1.0003 0
4.49183e-14 1.0003 0
-3.74705e-14 1.00032 0
-3.38606e-14 1.00032 0
4.49183e-14 1.0003 0
3.79158e-14 1.0003 0
-3.09712e-14 1.00033 0
-3.63337e-14 1.00033 0
3.05202e-14 1.00032 0
3.55336e-14 1.00032 0
-3.63337e-14 1.00033 0
-4.9771e-14 1.00033 0
3.55336e-14 1.00032 0
4.82947e-14 1.00032 0
-3.38606e-14 1.00032 0
-3.83991e-14 1.00032 0
3.79158e-14 1.0003 0
4.04891e-14 1.0003 0
-3.83991e-14 1.00032 0
-4.08297e-14 1.00032 0
4.04891e-14 1.0003 0
4.09709e-14 1.0003 0
-4.11197e-14 1.00043 0
-5.54415e-14 1.00043 0
4.53519e-14 1.00041 0
5.64828e-14 1.00041 0
-5.54415e-14 1.00043 0
-5.07117e-14 1.00043 0
5.64828e-14 1.00041 0
5.05932e-14 1.00041 0
-4.53183e-14 1.00041 0
-5.0012e-14 1.00041 0
5.1349e-14 1.0004 0
5.71903e-14 1.0004 0
-5.0012e-14 1.00041 0
-4.22005e-14 1.00041 0
5.71903e-14 1.0004 0
5.30202e-14 1.0004 0
-5.07117e-14 1.00043 0
-3.9756e-14 1.00043 0
5.05932e-14 1.00041 0
5.3146e-14 1.00041 0
-3.9756e-14 1.00043 0
-4.71964e-14 1.00043 0
5.3146e-14 1.00041 0
5.23846e-14 1.00041 0
-4.22005e-14 1.00041 0
-5.23294e-14 1.00041 0
5.30202e-14 1.0004 0
5.29121e-14 1.0004 0
-5.23294e-14 1.00041 0
-4.68151e-14 1.00041 0
5.29121e-14 1.0004 0
5.18394e-14 1.0004 0
-4.84286e-14 1.0004 0
-4.8858e-14 1.0004 0
4.04119e-14 1.00038 0
4.45147e-14 1.00038 0
-4.8858e-14 1.0004 0
-5.24256e-14 1.0004 0
4.45147e-14 1.00038 0
4.44946e-14 1.00038 0
-2.78334e-14 1.00038 0
-3.20402e-14 1.00038 0
3.30733e-14 1.00036 0
3.84157e-14 1.00036 0
-3.20402e-14 1.00038 0
-2.35348e-14 1.00038 0
3.84157e-14 1.00036 0
3.30091e-14 1.00036 0
-5.24256e-14 1.0004 0
-5.13747e-14 1.0004 0
4.44946e-14 1.00038 0
4.88858e-14 1.00038 0
-5.13747e-14 1.0004 0
-4.4356e-14 1.0004 0
4.88858e-14 1.00038 0
3.36902e-14 1.00038 0
-2.35348e-14 1.00038 0
-3.2913e-14 1.00038 0
3.30091e-14 1.00036 0
4.16996e-14 1.00036 0
-3.2913e-14 1.00038 0
-2.00604e-14 1.00038 0
4.16996e-14 1.00036 0
2.64707e-14 1.00036 0
-4.71964e-14 1.00043 0
-1.89539e-14 1.00043 0
5.23846e-14 1.00041 0
2.01939e-14 1.00041 0
-1.89539e-14 1.00043 0
-2.9674e-14 1.00043 0
2.01939e-14 1.00041 0
3.10097e-14 1.00041 0
-4.68151e-14 1.00041 0
-1.29147e-14 1.00041 0
5.18394e-14 1.0004 0
2.21186e-14 1.0004 0
-1.29147e-14 1.00041 0
-3.08739e-15 1.00041 0
2.21186e-14 1.0004 0
5.44678e-15 1.0004 0
-2.9674e-14 1.00043 0
-2.29387e-14 1.00043 0
3.10097e-14 1.00041 0
2.94848e-14 1.00041 0
-2.29387e-14 1.00043 0
-2.88775e-14 1.00043 0
2.94848e-14 1.00041 0
3.43947e-14 1.00041 0
-3.08739e-15 1.00041 0
-1.12701e-14 1.00041 0
5.44678e-15 1.0004 0
1.49766e-14 1.0004 0
-1.12701e-14 1.00041 0
-3.72364e-14 1.00041 0
1.49766e-14 1.0004 0
3.84994e-14 1.0004 0
-4.4356e-14 1.0004 0
-3.6909e-14 1.0004 0
3.36902e-14 1.00038 0
3.48063e-14 1.00038 0
-3.6909e-14 1.0004 0
-3.38752e-14 1.0004 0
3.48063e-14 1.00038 0
3.88598e-14 1.00038 0
-2.00604e-14 1.00038 0
-2.41195e-14 1.00038 0
2.64707e-14 1.00036 0
2.70173e-14 1.00036 0
-2.41195e-14 1.00038 0
-3.29044e-14 1.00038 0
2.70173e-14 1.00036 0
3.12025e-14 1.00036 0
-3.38752e-14 1.0004 0
-3.26029e-14 1.0004 0
3.88598e-14 1.00038 0
3.1061e-14 1.00038 0
-3.26029e-14 1.0004 0
-4.32557e-14 1.0004 0
3.1061e-14 1.00038 0
3.67177e-14 1.00038 0
-3.29044e-14 1.00038 0
-1.81711e-14 1.00038 0
3.12025e-14 1.00036 0
1.75343e-14 1.00036 0
-1.81711e-14 1.00038 0
-1.83438e-14 1.00038 0
1.75343e-14 1.00036 0
2.20236e-14 1.00036 0
-4.00764e-14 1.00036 0
-5.00891e-14 1.00036 0
4.49468e-14 1.00035 0
5.79224e-14 1.00035 0
-5.00891e-14 1.00036 0
-4.95374e-14 1.00036 0
5.79224e-14 1.00035 0
4.96584e-14 1.00035 0
-4.50508e-14 1.00035 0
-5.0396e-14 1.00035 0
4.74269e-14 1.00033 0
4.1328e-14 1.00033 0
-5.0396e-14 1.00035 0
-3.36579e-14 1.00035 0
4.1328e-14 1.00033 0
3.63018e-14 1.00033 0
-4.95374e-14 1.00036 0
-5.23787e-14 1.00036 0
4.96584e-14 1.00035 0
5.02818e-14 1.00035 0
-5.23787e-14 1.00036 0
-2.6903e-14 1.00036 0
5.02818e-14 1.00035 0
3.2568e-14 1.00035 0
-3.36579e-14 1.00035 0
-3.97105e-14 1.00035 0