# vtk DataFile Version 3.0
#This file was generated by the deal.II library on 2018/10/16 at 0:35:29
ASCII
DATASET UNSTRUCTURED_GRID

POINTS 20480 double
0 0 0
0.19635 0 0
0 0.286514 0
0.19635 0.286514 0
0.19635 0 0
0.392699 0 0
0.19635 0.286514 0
0.392699 0.286514 0
0 0.286514 0
0.19635 0.286514 0
0 0.599112 0
0.19635 0.599112 0
0.19635 0.286514 0
0.392699 0.286514 0
0.19635 0.599112 0
0.392699 0.599112 0
0.392699 0 0
0.589049 0 0
0.392699 0.286514 0
0.589049 0.286514 0
0.589049 0 0
0.785398 0 0
0.589049 0.286514 0
0.785398 0.286514 0
0.392699 0.286514 0
0.589049 0.286514 0
0.392699 0.599112 0
0.589049 0.599112 0
0.589049 0.286514 0
0.785398 0.286514 0
0.589049 0.599112 0
0.785398 0.599112 0
0 0.599112 0
0.19635 0.599112 0
0 0.911574 0
0.19635 0.911574 0
0.19635 0.599112 0
0.392699 0.599112 0
0.19635 0.911574 0
0.392699 0.911574 0
0 0.911574 0
0.19635 0.911574 0
0 1.22538 0
0.19635 1.22538 0
0.19635 0.911574 0
0.392699 0.911574 0
0.19635 1.22538 0
0.392699 1.22538 0
0.392699 0.599112 0
0.589049 0.599112 0
0.392699 0.911574 0
0.589049 0.911574 0
0.589049 0.599112 0
0.785398 0.599112 0
0.589049 0.911574 0
0.785398 0.911574 0
0.392699 0.911574 0
0.589049 0.911574 0
0.392699 1.22538 0
0.589049 1.22538 0
0.589049 0.911574 0
0.785398 0.911574 0
0.589049 1.22538 0
0.785398 1.22538 0
0.785398 0 0
0.981748 0 0
0.785398 0.286514 0
0.981748 0.286514 0
0.981748 0 0
1.1781 0 0
0.981748 0.286514 0
1.1781 0.286514 0
0.785398 0.286514 0
0.981748 0.286514 0
0.785398 0.599112 0
0.981748 0.599112 0
0.981748 0.286514 0
1.1781 0.286514 0
0.981748 0.599112 0
1.1781 0.599112 0
1.1781 0 0
1.37445 0 0
1.1781 0.286514 0
1.37445 0.286514 0
1.37445 0 0
1.5708 0 0
1.37445 0.286514 0
1.5708 0.286514 0
1.1781 0.286514 0
1.37445 0.286514 0
1.1781 0.599112 0
1.37445 0.599112 0
1.37445 0.286514 0
1.5708 0.286514 0
1.37445 0.599112 0
1.5708 0.599112 0
0.785398 0.599112 0
0.981748 0.599112 0
0.785398 0.911574 0
0.981748 0.911574 0
0.981748 0.599112 0
1.1781 0.599112 0
0.981748 0.911574 0
1.1781 0.911574 0
0.785398 0.911574 0
0.981748 0.911574 0
0.785398 1.22538 0
0.981748 1.22538 0
0.981748 0.911574 0
1.1781 0.911574 0
0.981748 1.22538 0
1.1781 1.22538 0
1.1781 0.599112 0
1.37445 0.599112 0
1.1781 0.911574 0
1.37445 0.911574 0
1.37445 0.599112 0
1.5708 0.599112 0
1.37445 0.911574 0
1.5708 0.911574 0
1.1781 0.911574 0
1.37445 0.911574 0
1.1781 1.22538 0
1.37445 1.22538 0
1.37445 0.911574 0
1.5708 0.911574 0
1.37445 1.22538 0
1.5708 1.22538 0
0 1.22538 0
0.19635 1.22538 0
0 1.53884 0
0.19635 1.53884 0
0.19635 1.22538 0
0.392699 1.22538 0
0.19635 1.53884 0
0.392699 1.53884 0
0 1.53884 0
0.19635 1.53884 0
0 1.85242 0
0.19635 1.85242 0
0.19635 1.53884 0
0.392699 1.53884 0
0.19635 1.85242 0
0.392699 1.85242 0
0.392699 1.22538 0
0.589049 1.22538 0
0.392699 1.53884 0
0.589049 1.53884 0
0.589049 1.22538 0
0.785398 1.22538 0
0.589049 1.53884 0
0.785398 1.53884 0
0.392699 1.53884 0
0.589049 1.53884 0
0.392699 1.85242 0
0.589049 1.85242 0
0.589049 1.53884 0
0.785398 1.53884 0
0.589049 1.85242 0
0.785398 1.85242 0
0 1.85242 0
0.19635 1.85242 0
0 2.16593 0
0.19635 2.16593 0
0.19635 1.85242 0
0.392699 1.85242 0
0.19635 2.16593 0
0.392699 2.16593 0
0 2.16593 0
0.19635 2.16593 0
0 2.47943 0
0.19635 2.47943 0
0.19635 2.16593 0
0.392699 2.16593 0
0.19635 2.47943 0
0.392699 2.47943 0
0.392699 1.85242 0
0.589049 1.85242 0
0.392699 2.16593 0
0.589049 2.16593 0
0.589049 1.85242 0
0.785398 1.85242 0
0.589049 2.16593 0
0.785398 2.16593 0
0.392699 2.16593 0
0.589049 2.16593 0
0.392699 2.47943 0
0.589049 2.47943 0
0.589049 2.16593 0
0.785398 2.16593 0
0.589049 2.47943 0
0.785398 2.47943 0
0.785398 1.22538 0
0.981748 1.22538 0
0.785398 1.53884 0
0.981748 1.53884 0
0.981748 1.22538 0
1.1781 1.22538 0
0.981748 1.53884 0
1.1781 1.53884 0
0.785398 1.53884 0
0.981748 1.53884 0
0.785398 1.85242 0
0.981748 1.85242 0
0.981748 1.53884 0
1.1781 1.53884 0
0.981748 1.85242 0
1.1781 1.85242 0
1.1781 1.22538 0
1.37445 1.22538 0
1.1781 1.53884 0
1.37445 1.53884 0
1.37445 1.22538 0
1.5708 1.22538 0
1.37445 1.53884 0
1.5708 1.53884 0
1.1781 1.53884 0
1.37445 1.53884 0
1.1781 1.85242 0
1.37445 1.85242 0
1.37445 1.53884 0
1.5708 1.53884 0
1.37445 1.85242 0
1.5708 1.85242 0
0.785398 1.85242 0
0.981748 1.85242 0
0.785398 2.16593 0
0.981748 2.16593 0
0.981748 1.85242 0
1.1781 1.85242 0
0.981748 2.16593 0
1.1781 2.16593 0
0.785398 2.16593 0
0.981748 2.16593 0
0.785398 2.47943 0
0.981748 2.47943 0
0.981748 2.16593 0
1.1781 2.16593 0
0.981748 2.47943 0
1.1781 2.47943 0
1.1781 1.85242 0
1.37445 1.85242 0
1.1781 2.16593 0
1.37445 2.16593 0
1.37445 1.85242 0
1.5708 1.85242 0
1.37445 2.16593 0
1.5708 2.16593 0
1.1781 2.16593 0
1.37445 2.16593 0
1.1781 2.47943 0
1.37445 2.47943 0
1.37445 2.16593 0
1.5708 2.16593 0
1.37445 2.47943 0
1.5708 2.47943 0
1.5708 0 0
1.76715 0 0
1.5708 0.286514 0
1.76715 0.286514 0
1.76715 0 0
1.9635 0 0
1.76715 0.286514 0
1.9635 0.286514 0
1.5708 0.286514 0
1.76715 0.286514 0
1.5708 0.599112 0
1.76715 0.599112 0
1.76715 0.286514 0
1.9635 0.286514 0
1.76715 0.599112 0
1.9635 0.599112 0
1.9635 0 0
2.15984 0 0
1.9635 0.286514 0
2.15984 0.286514 0
2.15984 0 0
2.35619 0 0
2.15984 0.286514 0
2.35619 0.286514 0
1.9635 0.286514 0
2.15984 0.286514 0
1.9635 0.599112 0
2.15984 0.599112 0
2.15984 0.286514 0
2.35619 0.286514 0
2.15984 0.599112 0
2.35619 0.599112 0
1.5708 0.599112 0
1.76715 0.599112 0
1.5708 0.911574 0
1.76715 0.911574 0
1.76715 0.599112 0
1.9635 0.599112 0
1.76715 0.911574 0
1.9635 0.911574 0
1.5708 0.911574 0
1.76715 0.911574 0
1.5708 1.22538 0
1.76715 1.22538 0
1.76715 0.911574 0
1.9635 0.911574 0
1.76715 1.22538 0
1.9635 1.22538 0
1.9635 0.599112 0
2.15984 0.599112 0
1.9635 0.911574 0
2.15984 0.911574 0
2.15984 0.599112 0
2.35619 0.599112 0
2.15984 0.911574 0
2.35619 0.911574 0
1.9635 0.911574 0
2.15984 0.911574 0
1.9635 1.22538 0
2.15984 1.22538 0
2.15984 0.911574 0
2.35619 0.911574 0
2.15984 1.22538 0
2.35619 1.22538 0
2.35619 0 0
2.55254 0 0
2.35619 0.286514 0
2.55254 0.286514 0
2.55254 0 0
2.74889 0 0
2.55254 0.286514 0
2.74889 0.286514 0
2.35619 0.286514 0
2.55254 0.286514 0
2.35619 0.599112 0
2.55254 0.599112 0
2.55254 0.286514 0
2.74889 0.286514 0
2.55254 0.599112 0
2.74889 0.599112 0
2.74889 0 0
2.94524 0 0
2.74889 0.286514 0
2.94524 0.286514 0
2.94524 0 0
3.14159 0 0
2.94524 0.286514 0
3.14159 0.286514 0
2.74889 0.286514 0
2.94524 0.286514 0
2.74889 0.599112 0
2.94524 0.599112 0
2.94524 0.286514 0
3.14159 0.286514 0
2.94524 0.599112 0
3.14159 0.599112 0
2.35619 0.599112 0
2.55254 0.599112 0
2.35619 0.911574 0
2.55254 0.911574 0
2.55254 0.599112 0
2.74889 0.599112 0
2.55254 0.911574 0
2.74889 0.911574 0
2.35619 0.911574 0
2.55254 0.911574 0
2.35619 1.22538 0
2.55254 1.22538 0
2.55254 0.911574 0
2.74889 0.911574 0
2.55254 1.22538 0
2.74889 1.22538 0
2.74889 0.599112 0
2.94524 0.599112 0
2.74889 0.911574 0
2.94524 0.911574 0
2.94524 0.599112 0
3.14159 0.599112 0
2.94524 0.911574 0
3.14159 0.911574 0
2.74889 0.911574 0
2.94524 0.911574 0
2.74889 1.22538 0
2.94524 1.22538 0
2.94524 0.911574 0
3.14159 0.911574 0
2.94524 1.22538 0
3.14159 1.22538 0
1.5708 1.22538 0
1.76715 1.22538 0
1.5708 1.53884 0
1.76715 1.53884 0
1.76715 1.22538 0
1.9635 1.22538 0
1.76715 1.53884 0
1.9635 1.53884 0
1.5708 1.53884 0
1.76715 1.53884 0
1.5708 1.85242 0
1.76715 1.85242 0
1.76715 1.53884 0
1.9635 1.53884 0
1.76715 1.85242 0
1.9635 1.85242 0
1.9635 1.22538 0
2.15984 1.22538 0
1.9635 1.53884 0
2.15984 1.53884 0
2.15984 1.22538 0
2.35619 1.22538 0
2.15984 1.53884 0
2.35619 1.53884 0
1.9635 1.53884 0
2.15984 1.53884 0
1.9635 1.85242 0
2.15984 1.85242 0
2.15984 1.53884 0
2.35619 1.53884 0
2.15984 1.85242 0
2.35619 1.85242 0
1.5708 1.85242 0
1.76715 1.85242 0
1.5708 2.16593 0
1.76715 2.16593 0
1.76715 1.85242 0
1.9635 1.85242 0
1.76715 2.16593 0
1.9635 2.16593 0
1.5708 2.16593 0
1.76715 2.16593 0
1.5708 2.47943 0
1.76715 2.47943 0
1.76715 2.16593 0
1.9635 2.16593 0
1.76715 2.47943 0
1.9635 2.47943 0
1.9635 1.85242 0
2.15984 1.85242 0
1.9635 2.16593 0
2.15984 2.16593 0
2.15984 1.85242 0
2.35619 1.85242 0
2.15984 2.16593 0
2.35619 2.16593 0
1.9635 2.16593 0
2.15984 2.16593 0
1.9635 2.47943 0
2.15984 2.47943 0
2.15984 2.16593 0
2.35619 2.16593 0
2.15984 2.47943 0
2.35619 2.47943 0
2.35619 1.22538 0
2.55254 1.22538 0
2.35619 1.53884 0
2.55254 1.53884 0
2.55254 1.22538 0
2.74889 1.22538 0
2.55254 1.53884 0
2.74889 1.53884 0
2.35619 1.53884 0
2.55254 1.53884 0
2.35619 1.85242 0
2.55254 1.85242 0
2.55254 1.53884 0
2.74889 1.53884 0
2.55254 1.85242 0
2.74889 1.85242 0
2.74889 1.22538 0
2.94524 1.22538 0
2.74889 1.53884 0
2.94524 1.53884 0
2.94524 1.22538 0
3.14159 1.22538 0
2.94524 1.53884 0
3.14159 1.53884 0
2.74889 1.53884 0
2.94524 1.53884 0
2.74889 1.85242 0
2.94524 1.85242 0
2.94524 1.53884 0
3.14159 1.53884 0
2.94524 1.85242 0
3.14159 1.85242 0
2.35619 1.85242 0
2.55254 1.85242 0
2.35619 2.16593 0
2.55254 2.16593 0
2.55254 1.85242 0
2.74889 1.85242 0
2.55254 2.16593 0
2.74889 2.16593 0
2.35619 2.16593 0
2.55254 2.16593 0
2.35619 2.47943 0
2.55254 2.47943 0
2.55254 2.16593 0
2.74889 2.16593 0
2.55254 2.47943 0
2.74889 2.47943 0
2.74889 1.85242 0
2.94524 1.85242 0
2.74889 2.16593 0
2.94524 2.16593 0
2.94524 1.85242 0
3.14159 1.85242 0
2.94524 2.16593 0
3.14159 2.16593 0
2.74889 2.16593 0
2.94524 2.16593 0
2.74889 2.47943 0
2.94524 2.47943 0
2.94524 2.16593 0
3.14159 2.16593 0
2.94524 2.47943 0
3.14159 2.47943 0
0 2.47943 0
0.19635 2.47943 0
0 2.79291 0
0.19635 2.79291 0
0.19635 2.47943 0
0.392699 2.47943 0
0.19635 2.79291 0
0.392699 2.79291 0
0 2.79291 0
0.19635 2.79291 0
0 3.10637 0
0.19635 3.10637 0
0.19635 2.79291 0
0.392699 2.79291 0
0.19635 3.10637 0
0.392699 3.10637 0
0.392699 2.47943 0
0.589049 2.47943 0
0.392699 2.79291 0
0.589049 2.79291 0
0.589049 2.47943 0
0.785398 2.47943 0
0.589049 2.79291 0
0.785398 2.79291 0
0.392699 2.79291 0
0.589049 2.79291 0
0.392699 3.10637 0
0.589049 3.10637 0
0.589049 2.79291 0
0.785398 2.79291 0
0.589049 3.10637 0
0.785398 3.10637 0
0 3.10637 0
0.19635 3.10637 0
0 3.41981 0
0.19635 3.41981 0
0.19635 3.10637 0
0.392699 3.10637 0
0.19635 3.41981 0
[...]
POINT_DATA 20480
VECTORS velocity double
0 0 0
0 0 0
0 -0.00366378 0
-1.23788e-15 -0.00366378 0
0 0 0
0 0 0
-1.23788e-15 -0.00366378 0
2.64156e-15 -0.00366378 0
0 -0.00366378 0
-1.23788e-15 -0.00366378 0
0 -0.00382233 0
-1.88363e-15 -0.00382233 0
-1.23788e-15 -0.00366378 0
2.64156e-15 -0.00366378 0
-1.88363e-15 -0.00382233 0
-1.2428e-15 -0.00382233 0
0 0 0
0 0 0
2.64156e-15 -0.00366378 0
9.16582e-16 -0.00366378 0
0 0 0
0 0 0
9.16582e-16 -0.00366378 0
4.37446e-16 -0.00366378 0
2.64156e-15 -0.00366378 0
9.16582e-16 -0.00366378 0
-1.2428e-15 -0.00382233 0
4.61162e-16 -0.00382233 0
9.16582e-16 -0.00366378 0
4.37446e-16 -0.00366378 0
4.61162e-16 -0.00382233 0
-4.2173e-17 -0.00382233 0
0 -0.00382233 0
-1.88363e-15 -0.00382233 0
0 -0.00387405 0
1.30982e-15 -0.00387405 0
-1.88363e-15 -0.00382233 0
-1.2428e-15 -0.00382233 0
1.30982e-15 -0.00387405 0
2.53056e-16 -0.00387405 0
0 -0.00387405 0
1.30982e-15 -0.00387405 0
0 -0.00366632 0
-3.52421e-15 -0.00366632 0
1.30982e-15 -0.00387405 0
2.53056e-16 -0.00387405 0
-3.52421e-15 -0.00366632 0
-2.99454e-15 -0.00366632 0
-1.2428e-15 -0.00382233 0
4.61162e-16 -0.00382233 0
2.53056e-16 -0.00387405 0
4.00948e-15 -0.00387405 0
4.61162e-16 -0.00382233 0
-4.2173e-17 -0.00382233 0
4.00948e-15 -0.00387405 0
-4.47408e-15 -0.00387405 0
2.53056e-16 -0.00387405 0
4.00948e-15 -0.00387405 0
-2.99454e-15 -0.00366632 0
-4.26997e-15 -0.00366632 0
4.00948e-15 -0.00387405 0
-4.47408e-15 -0.00387405 0
-4.26997e-15 -0.00366632 0
-4.29641e-16 -0.00366632 0
0 0 0
0 0 0
4.37446e-16 -0.00366378 0
7.41343e-16 -0.00366378 0
0 0 0
0 0 0
7.41343e-16 -0.00366378 0
-2.41187e-15 -0.00366378 0
4.37446e-16 -0.00366378 0
7.41343e-16 -0.00366378 0
-4.2173e-17 -0.00382233 0
-1.70091e-16 -0.00382233 0
7.41343e-16 -0.00366378 0
-2.41187e-15 -0.00366378 0
-1.70091e-16 -0.00382233 0
1.60124e-15 -0.00382233 0
0 0 0
0 0 0
-2.41187e-15 -0.00366378 0
2.9694e-17 -0.00366378 0
0 0 0
0 0 0
2.9694e-17 -0.00366378 0
-2.96409e-15 -0.00366378 0
-2.41187e-15 -0.00366378 0
2.9694e-17 -0.00366378 0
1.60124e-15 -0.00382233 0
-2.01678e-15 -0.00382233 0
2.9694e-17 -0.00366378 0
-2.96409e-15 -0.00366378 0
-2.01678e-15 -0.00382233 0
-3.08364e-15 -0.00382233 0
-4.2173e-17 -0.00382233 0
-1.70091e-16 -0.00382233 0
-4.47408e-15 -0.00387405 0
7.08984e-16 -0.00387405 0
-1.70091e-16 -0.00382233 0
1.60124e-15 -0.00382233 0
7.08984e-16 -0.00387405 0
-7.10554e-16 -0.00387405 0
-4.47408e-15 -0.00387405 0
7.08984e-16 -0.00387405 0
-4.29641e-16 -0.00366632 0
-5.76972e-17 -0.00366632 0
7.08984e-16 -0.00387405 0
-7.10554e-16 -0.00387405 0
-5.76972e-17 -0.00366632 0
-1.62691e-15 -0.00366632 0
1.60124e-15 -0.00382233 0
-2.01678e-15 -0.00382233 0
-7.10554e-16 -0.00387405 0
-1.19156e-15 -0.00387405 0
-2.01678e-15 -0.00382233 0
-3.08364e-15 -0.00382233 0
-1.19156e-15 -0.00387405 0
-1.14846e-15 -0.00387405 0
-7.10554e-16 -0.00387405 0
-1.19156e-15 -0.00387405 0
-1.62691e-15 -0.00366632 0
9.35728e-16 -0.00366632 0
-1.19156e-15 -0.00387405 0
-1.14846e-15 -0.00387405 0
9.35728e-16 -0.00366632 0
-3.99801e-15 -0.00366632 0
0 -0.00366632 0
-3.52421e-15 -0.00366632 0
0 -0.00352848 0
1.86151e-17 -0.00352848 0
-3.52421e-15 -0.00366632 0
-2.99454e-15 -0.00366632 0
1.86151e-17 -0.00352848 0
6.03218e-16 -0.00352848 0
0 -0.00352848 0
1.86151e-17 -0.00352848 0
0 -0.00336134 0
-2.63302e-15 -0.00336134 0
1.86151e-17 -0.00352848 0
6.03218e-16 -0.00352848 0
-2.63302e-15 -0.00336134 0
-6.95473e-16 -0.00336134 0
-2.99454e-15 -0.00366632 0
-4.26997e-15 -0.00366632 0
6.03218e-16 -0.00352848 0
1.20768e-15 -0.00352848 0
-4.26997e-15 -0.00366632 0
-4.29641e-16 -0.00366632 0
1.20768e-15 -0.00352848 0
-3.39841e-15 -0.00352848 0
6.03218e-16 -0.00352848 0
1.20768e-15 -0.00352848 0
-6.95473e-16 -0.00336134 0
1.41441e-15 -0.00336134 0
1.20768e-15 -0.00352848 0
-3.39841e-15 -0.00352848 0
1.41441e-15 -0.00336134 0
1.16705e-15 -0.00336134 0
0 -0.00336134 0
-2.63302e-15 -0.00336134 0
0 -0.00320955 0
-2.89589e-15 -0.00320955 0
-2.63302e-15 -0.00336134 0
-6.95473e-16 -0.00336134 0
-2.89589e-15 -0.00320955 0
-4.54143e-16 -0.00320955 0
0 -0.00320955 0
-2.89589e-15 -0.00320955 0
0 -0.00305673 0
-1.84331e-15 -0.00305673 0
-2.89589e-15 -0.00320955 0
-4.54143e-16 -0.00320955 0
-1.84331e-15 -0.00305673 0
-4.14616e-15 -0.00305673 0
-6.95473e-16 -0.00336134 0
1.41441e-15 -0.00336134 0
-4.54143e-16 -0.00320955 0
1.36531e-15 -0.00320955 0
1.41441e-15 -0.00336134 0
1.16705e-15 -0.00336134 0
1.36531e-15 -0.00320955 0
-5.23847e-15 -0.00320955 0
-4.54143e-16 -0.00320955 0
1.36531e-15 -0.00320955 0
-4.14616e-15 -0.00305673 0
-6.065e-15 -0.00305673 0
1.36531e-15 -0.00320955 0
-5.23847e-15 -0.00320955 0
-6.065e-15 -0.00305673 0
-2.86115e-15 -0.00305673 0
-4.29641e-16 -0.00366632 0
-5.76972e-17 -0.00366632 0
-3.39841e-15 -0.00352848 0
8.95088e-17 -0.00352848 0
-5.76972e-17 -0.00366632 0
-1.62691e-15 -0.00366632 0
8.95088e-17 -0.00352848 0
1.76062e-15 -0.00352848 0
-3.39841e-15 -0.00352848 0
8.95088e-17 -0.00352848 0
1.16705e-15 -0.00336134 0
2.70416e-15 -0.00336134 0
8.95088e-17 -0.00352848 0
1.76062e-15 -0.00352848 0
2.70416e-15 -0.00336134 0
-5.76852e-15 -0.00336134 0
-1.62691e-15 -0.00366632 0
9.35728e-16 -0.00366632 0
1.76062e-15 -0.00352848 0
3.88992e-15 -0.00352848 0
9.35728e-16 -0.00366632 0
-3.99801e-15 -0.00366632 0
3.88992e-15 -0.00352848 0
5.58525e-15 -0.00352848 0
1.76062e-15 -0.00352848 0
3.88992e-15 -0.00352848 0
-5.76852e-15 -0.00336134 0
-9.3412e-15 -0.00336134 0
3.88992e-15 -0.00352848 0
5.58525e-15 -0.00352848 0
-9.3412e-15 -0.00336134 0
-3.15567e-15 -0.00336134 0
1.16705e-15 -0.00336134 0
2.70416e-15 -0.00336134 0
-5.23847e-15 -0.00320955 0
-5.18085e-15 -0.00320955 0
2.70416e-15 -0.00336134 0
-5.76852e-15 -0.00336134 0
-5.18085e-15 -0.00320955 0
-1.03108e-15 -0.00320955 0
-5.23847e-15 -0.00320955 0
-5.18085e-15 -0.00320955 0
-2.86115e-15 -0.00305673 0
2.05043e-16 -0.00305673 0
-5.18085e-15 -0.00320955 0
-1.03108e-15 -0.00320955 0
2.05043e-16 -0.00305673 0
-3.53379e-15 -0.00305673 0
-5.76852e-15 -0.00336134 0
-9.3412e-15 -0.00336134 0
-1.03108e-15 -0.00320955 0
-1.04979e-15 -0.00320955 0
-9.3412e-15 -0.00336134 0
-3.15567e-15 -0.00336134 0
-1.04979e-15 -0.00320955 0
2.76689e-16 -0.00320955 0
-1.03108e-15 -0.00320955 0
-1.04979e-15 -0.00320955 0
-3.53379e-15 -0.00305673 0
-4.6806e-15 -0.00305673 0
-1.04979e-15 -0.00320955 0
2.76689e-16 -0.00320955 0
-4.6806e-15 -0.00305673 0
4.2604e-16 -0.00305673 0
0 0 0
0 0 0
-2.96409e-15 -0.00366378 0
-4.22507e-15 -0.00366378 0
0 0 0
0 0 0
-4.22507e-15 -0.00366378 0
3.95225e-15 -0.00366378 0
-2.96409e-15 -0.00366378 0
-4.22507e-15 -0.00366378 0
-3.08364e-15 -0.00382233 0
-2.05037e-15 -0.00382233 0
-4.22507e-15 -0.00366378 0
3.95225e-15 -0.00366378 0
-2.05037e-15 -0.00382233 0
-4.2435e-15 -0.00382233 0
0 0 0
0 0 0
3.95225e-15 -0.00366378 0
-6.26009e-16 -0.00366378 0
0 0 0
0 0 0
-6.26009e-16 -0.00366378 0
-5.00383e-15 -0.00366378 0
3.95225e-15 -0.00366378 0
-6.26009e-16 -0.00366378 0
-4.2435e-15 -0.00382233 0
-2.9993e-16 -0.00382233 0
-6.26009e-16 -0.00366378 0
-5.00383e-15 -0.00366378 0
-2.9993e-16 -0.00382233 0
2.46686e-15 -0.00382233 0
-3.08364e-15 -0.00382233 0
-2.05037e-15 -0.00382233 0
-1.14846e-15 -0.00387405 0
-7.83765e-16 -0.00387405 0
-2.05037e-15 -0.00382233 0
-4.2435e-15 -0.00382233 0
-7.83765e-16 -0.00387405 0
-9.13221e-16 -0.00387405 0
-1.14846e-15 -0.00387405 0
-7.83765e-16 -0.00387405 0
-3.99801e-15 -0.00366632 0
-2.67876e-15 -0.00366632 0
-7.83765e-16 -0.00387405 0
-9.13221e-16 -0.00387405 0
-2.67876e-15 -0.00366632 0
-5.59497e-15 -0.00366632 0
-4.2435e-15 -0.00382233 0
-2.9993e-16 -0.00382233 0
-9.13221e-16 -0.00387405 0
-1.36351e-15 -0.00387405 0
-2.9993e-16 -0.00382233 0
2.46686e-15 -0.00382233 0
-1.36351e-15 -0.00387405 0
-1.32581e-15 -0.00387405 0
-9.13221e-16 -0.00387405 0
-1.36351e-15 -0.00387405 0
-5.59497e-15 -0.00366632 0
-4.54802e-15 -0.00366632 0
-1.36351e-15 -0.00387405 0
-1.32581e-15 -0.00387405 0
-4.54802e-15 -0.00366632 0
5.49088e-17 -0.00366632 0
0 0 0
0 0 0
-5.00383e-15 -0.00366378 0
-1.21253e-16 -0.00366378 0
0 0 0
0 0 0
-1.21253e-16 -0.00366378 0
1.72605e-15 -0.00366378 0
-5.00383e-15 -0.00366378 0
-1.21253e-16 -0.00366378 0
2.46686e-15 -0.00382233 0
-3.58687e-15 -0.00382233 0
-1.21253e-16 -0.00366378 0
1.72605e-15 -0.00366378 0
-3.58687e-15 -0.00382233 0
-4.11094e-15 -0.00382233 0
0 0 0
0 0 0
1.72605e-15 -0.00366378 0
4.28918e-16 -0.00366378 0
0 0 0
0 0 0
4.28918e-16 -0.00366378 0
2.02075e-15 -0.00366378 0
1.72605e-15 -0.00366378 0
4.28918e-16 -0.00366378 0
-4.11094e-15 -0.00382233 0
-1.21431e-17 -0.00382233 0
4.28918e-16 -0.00366378 0
2.02075e-15 -0.00366378 0
-1.21431e-17 -0.00382233 0
-6.67008e-16 -0.00382233 0
2.46686e-15 -0.00382233 0
-3.58687e-15 -0.00382233 0
-1.32581e-15 -0.00387405 0
9.91886e-18 -0.00387405 0
-3.58687e-15 -0.00382233 0
-4.11094e-15 -0.00382233 0
9.91886e-18 -0.00387405 0
-1.62881e-15 -0.00387405 0
-1.32581e-15 -0.00387405 0
9.91886e-18 -0.00387405 0
5.49088e-17 -0.00366632 0
-4.49166e-15 -0.00366632 0
9.91886e-18 -0.00387405 0
-1.62881e-15 -0.00387405 0
-4.49166e-15 -0.00366632 0
-4.44608e-15 -0.00366632 0
-4.11094e-15 -0.00382233 0
-1.21431e-17 -0.00382233 0
-1.62881e-15 -0.00387405 0
-3.45432e-15 -0.00387405 0
-1.21431e-17 -0.00382233 0
-6.67008e-16 -0.00382233 0
-3.45432e-15 -0.00387405 0
1.87867e-15 -0.00387405 0
-1.62881e-15 -0.00387405 0
-3.45432e-15 -0.00387405 0
-4.44608e-15 -0.00366632 0
-5.15328e-15 -0.00366632 0
-3.45432e-15 -0.00387405 0
1.87867e-15 -0.00387405 0
-5.15328e-15 -0.00366632 0
-2.70965e-15 -0.00366632 0
-3.99801e-15 -0.00366632 0
-2.67876e-15 -0.00366632 0
5.58525e-15 -0.00352848 0
2.71673e-15 -0.00352848 0
-2.67876e-15 -0.00366632 0
-5.59497e-15 -0.00366632 0
2.71673e-15 -0.00352848 0
2.8055e-15 -0.00352848 0
5.58525e-15 -0.00352848 0
2.71673e-15 -0.00352848 0
-3.15567e-15 -0.00336134 0
-1.61372e-16 -0.00336134 0
2.71673e-15 -0.00352848 0
2.8055e-15 -0.00352848 0
-1.61372e-16 -0.00336134 0
-3.09919e-16 -0.00336134 0
-5.59497e-15 -0.00366632 0
-4.54802e-15 -0.00366632 0
2.8055e-15 -0.00352848 0
-1.67282e-15 -0.00352848 0
-4.54802e-15 -0.00366632 0
5.49088e-17 -0.00366632 0
-1.67282e-15 -0.00352848 0
-8.57681e-16 -0.00352848 0
2.8055e-15 -0.00352848 0
-1.67282e-15 -0.00352848 0
-3.09919e-16 -0.00336134 0
-5.49659e-15 -0.00336134 0
-1.67282e-15 -0.00352848 0
-8.57681e-16 -0.00352848 0
-5.49659e-15 -0.00336134 0
1.81511e-16 -0.00336134 0
-3.15567e-15 -0.00336134 0
-1.61372e-16 -0.00336134 0
2.76689e-16 -0.00320955 0
-7.80133e-15 -0.00320955 0
-1.61372e-16 -0.00336134 0
-3.09919e-16 -0.00336134 0
-7.80133e-15 -0.00320955 0
-5.66934e-16 -0.00320955 0
2.76689e-16 -0.00320955 0
-7.80133e-15 -0.00320955 0
4.2604e-16 -0.00305673 0
1.18893e-14 -0.00305673 0
-7.80133e-15 -0.00320955 0
-5.66934e-16 -0.00320955 0
1.18893e-14 -0.00305673 0
9.25304e-16 -0.00305673 0
-3.09919e-16 -0.00336134 0
-5.49659e-15 -0.00336134 0
-5.66934e-16 -0.00320955 0
1.41386e-15 -0.00320955 0
-5.49659e-15 -0.00336134 0
1.81511e-16 -0.00336134 0
1.41386e-15 -0.00320955 0
-9.75216e-15 -0.00320955 0
-5.66934e-16 -0.00320955 0
1.41386e-15 -0.00320955 0
9.25304e-16 -0.00305673 0
-1.46974e-16 -0.00305673 0
1.41386e-15 -0.00320955 0
-9.75216e-15 -0.00320955 0
-1.46974e-16 -0.00305673 0
5.47753e-15 -0.00305673 0
5.49088e-17 -0.00366632 0
-4.49166e-15 -0.00366632 0
-8.57681e-16 -0.00352848 0
-2.05404e-15 -0.00352848 0
-4.49166e-15 -0.00366632 0
-4.44608e-15 -0.00366632 0
-2.05404e-15 -0.00352848 0
-2.8778e-15 -0.00352848 0
-8.57681e-16 -0.00352848 0
-2.05404e-15 -0.00352848 0
1.81511e-16 -0.00336134 0
-2.66792e-15 -0.00336134 0
-2.05404e-15 -0.00352848 0
-2.8778e-15 -0.00352848 0
-2.66792e-15 -0.00336134 0
-5.70263e-15 -0.00336134 0
-4.44608e-15 -0.00366632 0
-5.15328e-15 -0.00366632 0
-2.8778e-15 -0.00352848 0
-5.31567e-15 -0.00352848 0
-5.15328e-15 -0.00366632 0
-2.70965e-15 -0.00366632 0
-5.31567e-15 -0.00352848 0
-5.58719e-15 -0.00352848 0
-2.8778e-15 -0.00352848 0
-5.31567e-15 -0.00352848 0
-5.70263e-15 -0.00336134 0
-8.4081e-16 -0.00336134 0
-5.31567e-15 -0.00352848 0
-5.58719e-15 -0.00352848 0
-8.4081e-16 -0.00336134 0
-5.42771e-15 -0.00336134 0
1.81511e-16 -0.00336134 0
-2.66792e-15 -0.00336134 0
-9.75216e-15 -0.00320955 0
4.71601e-16 -0.00320955 0
-2.66792e-15 -0.00336134 0
-5.70263e-15 -0.00336134 0
4.71601e-16 -0.00320955 0
-3.47099e-15 -0.00320955 0
-9.75216e-15 -0.00320955 0
4.71601e-16 -0.00320955 0
5.47753e-15 -0.00305673 0
8.02814e-16 -0.00305673 0
4.71601e-16 -0.00320955 0
-3.47099e-15 -0.00320955 0
8.02814e-16 -0.00305673 0
2.98224e-15 -0.00305673 0
-5.70263e-15 -0.00336134 0
-8.4081e-16 -0.00336134 0
-3.47099e-15 -0.00320955 0
3.65441e-15 -0.00320955 0
-8.4081e-16 -0.00336134 0
-5.42771e-15 -0.00336134 0
3.65441e-15 -0.00320955 0
-1.44171e-15 -0.00320955 0
-3.47099e-15 -0.00320955 0
3.65441e-15 -0.00320955 0
2.98224e-15 -0.00305673 0
5.03832e-15 -0.00305673 0
3.65441e-15 -0.00320955 0
-1.44171e-15 -0.00320955 0
5.03832e-15 -0.00305673 0
-1.27844e-15 -0.00305673 0
0 -0.00305673 0
-1.84331e-15 -0.00305673 0
0 -0.002909 0
-8.74335e-15 -0.002909 0
-1.84331e-15 -0.00305673 0
-4.14616e-15 -0.00305673 0
-8.74335e-15 -0.002909 0
1.01442e-15 -0.002909 0
0 -0.002909 0
-8.74335e-15 -0.002909 0
0 -0.00276412 0
1.39029e-15 -0.00276412 0
-8.74335e-15 -0.002909 0
1.01442e-15 -0.002909 0
1.39029e-15 -0.00276412 0
4.00348e-15 -0.00276412 0
-4.14616e-15 -0.00305673 0
-6.065e-15 -0.00305673 0
1.01442e-15 -0.002909 0
-4.06021e-16 -0.002909 0
-6.065e-15 -0.00305673 0
-2.86115e-15 -0.00305673 0
-4.06021e-16 -0.002909 0
-4.96223e-15 -0.002909 0
1.01442e-15 -0.002909 0
-4.06021e-16 -0.002909 0
4.00348e-15 -0.00276412 0
-9.86287e-16 -0.00276412 0
-4.06021e-16 -0.002909 0
-4.96223e-15 -0.002909 0
-9.86287e-16 -0.00276412 0
1.00487e-14 -0.00276412 0
0 -0.00276412 0
1.39029e-15 -0.00276412 0
0 -0.00262283 0
-2.65917e-15 -0.00262283 0
1.39029e-15 -0.00276412 0
4.00348e-15 -0.00276412 0
-2.65917e-15 -0.00262283 0
2.46907e-15 -0.00262283 0
0 -0.00262283 0
-2.65917e-15 -0.00262283 0
0 -0.0024848 0
3.55892e-15 -0.0024848 0
-2.65917e-15 -0.00262283 0
2.46907e-15 -0.00262283 0
3.55892e-15 -0.0024848 0
4.9897e-15 -0.0024848 0
4.00348e-15 -0.00276412 0
-9.86287e-16 -0.00276412 0
2.46907e-15 -0.00262283 0
1.12162e-14 -0.00262283 0
-9.86287e-16 -0.00276412 0
1.00487e-14 -0.00276412 0
1.12162e-14 -0.00262283 0
9.49341e-15 -0.00262283 0
2.46907e-15 -0.00262283 0
1.12162e-14 -0.00262283 0
4.9897e-15 -0.0024848 0
-9.52119e-15 -0.0024848 0
1.12162e-14 -0.00262283 0
9.49341e-15 -0.00262283 0
-9.52119e-15 -0.0024848 0
-6.30429e-15 -0.0024848 0
-2.86115e-15 -0.00305673 0
2.05043e-16 -0.00305673 0
-4.96223e-15 -0.002909 0
-4.01714e-16 -0.002909 0
2.05043e-16 -0.00305673 0
-3.53379e-15 -0.00305673 0
-4.01714e-16 -0.002909 0
1.52115e-15 -0.002909 0
-4.96223e-15 -0.002909 0
-4.01714e-16 -0.002909 0
1.00487e-14 -0.00276412 0
2.26658e-15 -0.00276412 0
-4.01714e-16 -0.002909 0
1.52115e-15 -0.002909 0
2.26658e-15 -0.00276412 0
4.52627e-15 -0.00276412 0
-3.53379e-15 -0.00305673 0
-4.6806e-15 -0.00305673 0
1.52115e-15 -0.002909 0
-4.29375e-15 -0.002909 0
-4.6806e-15 -0.00305673 0
4.2604e-16 -0.00305673 0
-4.29375e-15 -0.002909 0
2.13737e-15 -0.002909 0
1.52115e-15 -0.002909 0
-4.29375e-15 -0.002909 0
4.52627e-15 -0.00276412 0
2.15073e-16 -0.00276412 0
-4.29375e-15 -0.002909 0
2.13737e-15 -0.002909 0
2.15073e-16 -0.00276412 0
3.65999e-15 -0.00276412 0
1.00487e-14 -0.00276412 0
2.26658e-15 -0.00276412 0
9.49341e-15 -0.00262283 0
1.2729e-14 -0.00262283 0
2.26658e-15 -0.00276412 0
4.52627e-15 -0.00276412 0
1.2729e-14 -0.00262283 0
6.94826e-15 -0.00262283 0
9.49341e-15 -0.00262283 0
1.2729e-14 -0.00262283 0
-6.30429e-15 -0.0024848 0
2.18185e-15 -0.0024848 0
1.2729e-14 -0.00262283 0
6.94826e-15 -0.00262283 0
2.18185e-15 -0.0024848 0
-3.50242e-15 -0.0024848 0
4.52627e-15 -0.00276412 0
2.15073e-16 -0.00276412 0
6.94826e-15 -0.00262283 0
6.266e-15 -0.00262283 0
2.15073e-16 -0.00276412 0
3.65999e-15 -0.00276412 0
6.266e-15 -0.00262283 0
6.45126e-15 -0.00262283 0
6.94826e-15 -0.00262283 0
6.266e-15 -0.00262283 0
-3.50242e-15 -0.0024848 0
-1.90273e-15 -0.0024848 0
6.266e-15 -0.00262283 0
6.45126e-15 -0.00262283 0
-1.90273e-15 -0.0024848 0
-6.31599e-15 -0.0024848 0
0 -0.0024848 0
3.55892e-15 -0.0024848 0
0 -0.00235008 0
-4.45615e-15 -0.00235008 0
3.55892e-15 -0.0024848 0
4.9897e-15 -0.0024848 0
-4.45615e-15 -0.00235008 0
-2.82289e-15 -0.00235008 0
0 -0.00235008 0
-4.45615e-15 -0.00235008 0
0 -0.00221857 0
6.97371e-15 -0.00221857 0
-4.45615e-15 -0.00235008 0
-2.82289e-15 -0.00235008 0
6.97371e-15 -0.00221857 0
1.01704e-15 -0.00221857 0
4.9897e-15 -0.0024848 0
-9.52119e-15 -0.0024848 0
-2.82289e-15 -0.00235008 0
2.66587e-15 -0.00235008 0
-9.52119e-15 -0.0024848 0
-6.30429e-15 -0.0024848 0
2.66587e-15 -0.00235008 0
2.63503e-15 -0.00235008 0
-2.82289e-15 -0.00235008 0
2.66587e-15 -0.00235008 0
1.01704e-15 -0.00221857 0
-4.75827e-15 -0.00221857 0
2.66587e-15 -0.00235008 0
2.63503e-15 -0.00235008 0
-4.75827e-15 -0.00221857 0
2.2362e-15 -0.00221857 0
0 -0.00221857 0
6.97371e-15 -0.00221857 0
0 -0.0020902 0
-1.47788e-15 -0.0020902 0
6.97371e-15 -0.00221857 0
1.01704e-15 -0.00221857 0
-1.47788e-15 -0.0020902 0
-2.82583e-16 -0.0020902 0
0 -0.0020902 0
-1.47788e-15 -0.0020902 0
0 -0.00196495 0
1.00284e-15 -0.00196495 0
-1.47788e-15 -0.0020902 0
-2.82583e-16 -0.0020902 0
1.00284e-15 -0.00196495 0
3.08052e-15 -0.00196495 0
1.01704e-15 -0.00221857 0
-4.75827e-15 -0.00221857 0
-2.82583e-16 -0.0020902 0
-6.09297e-16 -0.0020902 0
-4.75827e-15 -0.00221857 0
2.2362e-15 -0.00221857 0
-6.09297e-16 -0.0020902 0
7.14598e-15 -0.0020902 0
-2.82583e-16 -0.0020902 0
-6.09297e-16 -0.0020902 0
3.08052e-15 -0.00196495 0
-2.55618e-15 -0.00196495 0
-6.09297e-16 -0.0020902 0
7.14598e-15 -0.0020902 0
-2.55618e-15 -0.00196495 0
1.27994e-14 -0.00196495 0
-6.30429e-15 -0.0024848 0
2.18185e-15 -0.0024848 0
2.63503e-15 -0.00235008 0
-7.70059e-15 -0.00235008 0
2.18185e-15 -0.0024848 0
-3.50242e-15 -0.0024848 0
-7.70059e-15 -0.00235008 0
-2.59784e-15 -0.00235008 0
2.63503e-15 -0.00235008 0
-7.70059e-15 -0.00235008 0
2.2362e-15 -0.00221857 0
-3.44795e-15 -0.00221857 0
-7.70059e-15 -0.00235008 0
-2.59784e-15 -0.00235008 0
-3.44795e-15 -0.00221857 0
-1.58822e-15 -0.00221857 0
-3.50242e-15 -0.0024848 0
-1.90273e-15 -0.0024848 0
-2.59784e-15 -0.00235008 0
2.27007e-15 -0.00235008 0
-1.90273e-15 -0.0024848 0
-6.31599e-15 -0.0024848 0
2.27007e-15 -0.00235008 0
4.64803e-15 -0.00235008 0
-2.59784e-15 -0.00235008 0
2.27007e-15 -0.00235008 0
-1.58822e-15 -0.00221857 0
2.31146e-15 -0.00221857 0
2.27007e-15 -0.00235008 0
4.64803e-15 -0.00235008 0
2.31146e-15 -0.00221857 0
6.7491e-16 -0.00221857 0
2.2362e-15 -0.00221857 0
-3.44795e-15 -0.00221857 0
7.14598e-15 -0.0020902 0
-2.5677e-15 -0.0020902 0
-3.44795e-15 -0.00221857 0
-1.58822e-15 -0.00221857 0
-2.5677e-15 -0.0020902 0
-4.21507e-15 -0.0020902 0
7.14598e-15 -0.0020902 0
-2.5677e-15 -0.0020902 0
1.27994e-14 -0.00196495 0
1.25071e-14 -0.00196495 0
-2.5677e-15 -0.0020902 0
-4.21507e-15 -0.0020902 0
1.25071e-14 -0.00196495 0
8.55393e-15 -0.00196495 0
-1.58822e-15 -0.00221857 0
2.31146e-15 -0.00221857 0
-4.21507e-15 -0.0020902 0
9.51846e-15 -0.0020902 0
2.31146e-15 -0.00221857 0
6.7491e-16 -0.00221857 0
9.51846e-15 -0.0020902 0
5.81567e-15 -0.0020902 0
-4.21507e-15 -0.0020902 0
9.51846e-15 -0.0020902 0
8.55393e-15 -0.00196495 0
4.15245e-15 -0.00196495 0
9.51846e-15 -0.0020902 0
5.81567e-15 -0.0020902 0
4.15245e-15 -0.00196495 0
-5.16591e-15 -0.00196495 0
4.2604e-16 -0.00305673 0
1.18893e-14 -0.00305673 0
2.13737e-15 -0.002909 0
2.04944e-15 -0.002909 0
1.18893e-14 -0.00305673 0
9.25304e-16 -0.00305673 0
2.04944e-15 -0.002909 0
2.85487e-15 -0.002909 0
2.13737e-15 -0.002909 0
2.04944e-15 -0.002909 0
3.65999e-15 -0.00276412 0
3.28662e-16 -0.00276412 0
2.04944e-15 -0.002909 0
2.85487e-15 -0.002909 0
3.28662e-16 -0.00276412 0
-2.49272e-15 -0.00276412 0
9.25304e-16 -0.00305673 0
-1.46974e-16 -0.00305673 0
2.85487e-15 -0.002909 0
4.65107e-15 -0.002909 0
-1.46974e-16 -0.00305673 0
5.47753e-15 -0.00305673 0
4.65107e-15 -0.002909 0
-9.97191e-16 -0.002909 0
2.85487e-15 -0.002909 0
4.65107e-15 -0.002909 0
-2.49272e-15 -0.00276412 0
4.97052e-15 -0.00276412 0
4.65107e-15 -0.002909 0