# vtk DataFile Version 3.0
#This file was generated by the deal.II library on 2018/10/15 at 6:04:58
ASCII
DATASET UNSTRUCTURED_GRID

POINTS 20480 double
0 0 0
0.19635 0 0
0 0.30584 0
0.19635 0.30584 0
0.19635 0 0
0.392699 0 0
0.19635 0.30584 0
0.392699 0.30584 0
0 0.30584 0
0.19635 0.30584 0
0 0.618599 0
0.19635 0.618599 0
0.19635 0.30584 0
0.392699 0.30584 0
0.19635 0.618599 0
0.392699 0.618599 0
0.392699 0 0
0.589049 0 0
0.392699 0.30584 0
0.589049 0.30584 0
0.589049 0 0
0.785398 0 0
0.589049 0.30584 0
0.785398 0.30584 0
0.392699 0.30584 0
0.589049 0.30584 0
0.392699 0.618599 0
0.589049 0.618599 0
0.589049 0.30584 0
0.785398 0.30584 0
0.589049 0.618599 0
0.785398 0.618599 0
0 0.618599 0
0.19635 0.618599 0
0 0.931144 0
0.19635 0.931144 0
0.19635 0.618599 0
0.392699 0.618599 0
0.19635 0.931144 0
0.392699 0.931144 0
0 0.931144 0
0.19635 0.931144 0
0 1.24394 0
0.19635 1.24394 0
0.19635 0.931144 0
0.392699 0.931144 0
0.19635 1.24394 0
0.392699 1.24394 0
0.392699 0.618599 0
0.589049 0.618599 0
0.392699 0.931144 0
0.589049 0.931144 0
0.589049 0.618599 0
0.785398 0.618599 0
0.589049 0.931144 0
0.785398 0.931144 0
0.392699 0.931144 0
0.589049 0.931144 0
0.392699 1.24394 0
0.589049 1.24394 0
0.589049 0.931144 0
0.785398 0.931144 0
0.589049 1.24394 0
0.785398 1.24394 0
0.785398 0 0
0.981748 0 0
0.785398 0.30584 0
0.981748 0.30584 0
0.981748 0 0
1.1781 0 0
0.981748 0.30584 0
1.1781 0.30584 0
0.785398 0.30584 0
0.981748 0.30584 0
0.785398 0.618599 0
0.981748 0.618599 0
0.981748 0.30584 0
1.1781 0.30584 0
0.981748 0.618599 0
1.1781 0.618599 0
1.1781 0 0
1.37445 0 0
1.1781 0.30584 0
1.37445 0.30584 0
1.37445 0 0
1.5708 0 0
1.37445 0.30584 0
1.5708 0.30584 0
1.1781 0.30584 0
1.37445 0.30584 0
1.1781 0.618599 0
1.37445 0.618599 0
1.37445 0.30584 0
1.5708 0.30584 0
1.37445 0.618599 0
1.5708 0.618599 0
0.785398 0.618599 0
0.981748 0.618599 0
0.785398 0.931144 0
0.981748 0.931144 0
0.981748 0.618599 0
1.1781 0.618599 0
0.981748 0.931144 0
1.1781 0.931144 0
0.785398 0.931144 0
0.981748 0.931144 0
0.785398 1.24394 0
0.981748 1.24394 0
0.981748 0.931144 0
1.1781 0.931144 0
0.981748 1.24394 0
1.1781 1.24394 0
1.1781 0.618599 0
1.37445 0.618599 0
1.1781 0.931144 0
1.37445 0.931144 0
1.37445 0.618599 0
1.5708 0.618599 0
1.37445 0.931144 0
1.5708 0.931144 0
1.1781 0.931144 0
1.37445 0.931144 0
1.1781 1.24394 0
1.37445 1.24394 0
1.37445 0.931144 0
1.5708 0.931144 0
1.37445 1.24394 0
1.5708 1.24394 0
0 1.24394 0
0.19635 1.24394 0
0 1.55668 0
0.19635 1.55668 0
0.19635 1.24394 0
0.392699 1.24394 0
0.19635 1.55668 0
0.392699 1.55668 0
0 1.55668 0
0.19635 1.55668 0
0 1.86944 0
0.19635 1.86944 0
0.19635 1.55668 0
0.392699 1.55668 0
0.19635 1.86944 0
0.392699 1.86944 0
0.392699 1.24394 0
0.589049 1.24394 0
0.392699 1.55668 0
0.589049 1.55668 0
0.589049 1.24394 0
0.785398 1.24394 0
0.589049 1.55668 0
0.785398 1.55668 0
0.392699 1.55668 0
0.589049 1.55668 0
0.392699 1.86944 0
0.589049 1.86944 0
0.589049 1.55668 0
0.785398 1.55668 0
0.589049 1.86944 0
0.785398 1.86944 0
0 1.86944 0
0.19635 1.86944 0
0 2.18218 0
0.19635 2.18218 0
0.19635 1.86944 0
0.392699 1.86944 0
0.19635 2.18218 0
0.392699 2.18218 0
0 2.18218 0
0.19635 2.18218 0
0 2.49492 0
0.19635 2.49492 0
0.19635 2.18218 0
0.392699 2.18218 0
0.19635 2.49492 0
0.392699 2.49492 0
0.392699 1.86944 0
0.589049 1.86944 0
0.392699 2.18218 0
0.589049 2.18218 0
0.589049 1.86944 0
0.785398 1.86944 0
0.589049 2.18218 0
0.785398 2.18218 0
0.392699 2.18218 0
0.589049 2.18218 0
0.392699 2.49492 0
0.589049 2.49492 0
0.589049 2.18218 0
0.785398 2.18218 0
0.589049 2.49492 0
0.785398 2.49492 0
0.785398 1.24394 0
0.981748 1.24394 0
0.785398 1.55668 0
0.981748 1.55668 0
0.981748 1.24394 0
1.1781 1.24394 0
0.981748 1.55668 0
1.1781 1.55668 0
0.785398 1.55668 0
0.981748 1.55668 0
0.785398 1.86944 0
0.981748 1.86944 0
0.981748 1.55668 0
1.1781 1.55668 0
0.981748 1.86944 0
1.1781 1.86944 0
1.1781 1.24394 0
1.37445 1.24394 0
1.1781 1.55668 0
1.37445 1.55668 0
1.37445 1.24394 0
1.5708 1.24394 0
1.37445 1.55668 0
1.5708 1.55668 0
1.1781 1.55668 0
1.37445 1.55668 0
1.1781 1.86944 0
1.37445 1.86944 0
1.37445 1.55668 0
1.5708 1.55668 0
1.37445 1.86944 0
1.5708 1.86944 0
0.785398 1.86944 0
0.981748 1.86944 0
0.785398 2.18218 0
0.981748 2.18218 0
0.981748 1.86944 0
1.1781 1.86944 0
0.981748 2.18218 0
1.1781 2.18218 0
0.785398 2.18218 0
0.981748 2.18218 0
0.785398 2.49492 0
0.981748 2.49492 0
0.981748 2.18218 0
1.1781 2.18218 0
0.981748 2.49492 0
1.1781 2.49492 0
1.1781 1.86944 0
1.37445 1.86944 0
1.1781 2.18218 0
1.37445 2.18218 0
1.37445 1.86944 0
1.5708 1.86944 0
1.37445 2.18218 0
1.5708 2.18218 0
1.1781 2.18218 0
1.37445 2.18218 0
1.1781 2.49492 0
1.37445 2.49492 0
1.37445 2.18218 0
1.5708 2.18218 0
1.37445 2.49492 0
1.5708 2.49492 0
1.5708 0 0
1.76715 0 0
1.5708 0.30584 0
1.76715 0.30584 0
1.76715 0 0
1.9635 0 0
1.76715 0.30584 0
1.9635 0.30584 0
1.5708 0.30584 0
1.76715 0.30584 0
1.5708 0.618599 0
1.76715 0.618599 0
1.76715 0.30584 0
1.9635 0.30584 0
1.76715 0.618599 0
1.9635 0.618599 0
1.9635 0 0
2.15984 0 0
1.9635 0.30584 0
2.15984 0.30584 0
2.15984 0 0
2.35619 0 0
2.15984 0.30584 0
2.35619 0.30584 0
1.9635 0.30584 0
2.15984 0.30584 0
1.9635 0.618599 0
2.15984 0.618599 0
2.15984 0.30584 0
2.35619 0.30584 0
2.15984 0.618599 0
2.35619 0.618599 0
1.5708 0.618599 0
1.76715 0.618599 0
1.5708 0.931144 0
1.76715 0.931144 0
1.76715 0.618599 0
1.9635 0.618599 0
1.76715 0.931144 0
1.9635 0.931144 0
1.5708 0.931144 0
1.76715 0.931144 0
1.5708 1.24394 0
1.76715 1.24394 0
1.76715 0.931144 0
1.9635 0.931144 0
1.76715 1.24394 0
1.9635 1.24394 0
1.9635 0.618599 0
2.15984 0.618599 0
1.9635 0.931144 0
2.15984 0.931144 0
2.15984 0.618599 0
2.35619 0.618599 0
2.15984 0.931144 0
2.35619 0.931144 0
1.9635 0.931144 0
2.15984 0.931144 0
1.9635 1.24394 0
2.15984 1.24394 0
2.15984 0.931144 0
2.35619 0.931144 0
2.15984 1.24394 0
2.35619 1.24394 0
2.35619 0 0
2.55254 0 0
2.35619 0.30584 0
2.55254 0.30584 0
2.55254 0 0
2.74889 0 0
2.55254 0.30584 0
2.74889 0.30584 0
2.35619 0.30584 0
2.55254 0.30584 0
2.35619 0.618599 0
2.55254 0.618599 0
2.55254 0.30584 0
2.74889 0.30584 0
2.55254 0.618599 0
2.74889 0.618599 0
2.74889 0 0
2.94524 0 0
2.74889 0.30584 0
2.94524 0.30584 0
2.94524 0 0
3.14159 0 0
2.94524 0.30584 0
3.14159 0.30584 0
2.74889 0.30584 0
2.94524 0.30584 0
2.74889 0.618599 0
2.94524 0.618599 0
2.94524 0.30584 0
3.14159 0.30584 0
2.94524 0.618599 0
3.14159 0.618599 0
2.35619 0.618599 0
2.55254 0.618599 0
2.35619 0.931144 0
2.55254 0.931144 0
2.55254 0.618599 0
2.74889 0.618599 0
2.55254 0.931144 0
2.74889 0.931144 0
2.35619 0.931144 0
2.55254 0.931144 0
2.35619 1.24394 0
2.55254 1.24394 0
2.55254 0.931144 0
2.74889 0.931144 0
2.55254 1.24394 0
2.74889 1.24394 0
2.74889 0.618599 0
2.94524 0.618599 0
2.74889 0.931144 0
2.94524 0.931144 0
2.94524 0.618599 0
3.14159 0.618599 0
2.94524 0.931144 0
3.14159 0.931144 0
2.74889 0.931144 0
2.94524 0.931144 0
2.74889 1.24394 0
2.94524 1.24394 0
2.94524 0.931144 0
3.14159 0.931144 0
2.94524 1.24394 0
3.14159 1.24394 0
1.5708 1.24394 0
1.76715 1.24394 0
1.5708 1.55668 0
1.76715 1.55668 0
1.76715 1.24394 0
1.9635 1.24394 0
1.76715 1.55668 0
1.9635 1.55668 0
1.5708 1.55668 0
1.76715 1.55668 0
1.5708 1.86944 0
1.76715 1.86944 0
1.76715 1.55668 0
1.9635 1.55668 0
1.76715 1.86944 0
1.9635 1.86944 0
1.9635 1.24394 0
2.15984 1.24394 0
1.9635 1.55668 0
2.15984 1.55668 0
2.15984 1.24394 0
2.35619 1.24394 0
2.15984 1.55668 0
2.35619 1.55668 0
1.9635 1.55668 0
2.15984 1.55668 0
1.9635 1.86944 0
2.15984 1.86944 0
2.15984 1.55668 0
2.35619 1.55668 0
2.15984 1.86944 0
2.35619 1.86944 0
1.5708 1.86944 0
1.76715 1.86944 0
1.5708 2.18218 0
1.76715 2.18218 0
1.76715 1.86944 0
1.9635 1.86944 0
1.76715 2.18218 0
1.9635 2.18218 0
1.5708 2.18218 0
1.76715 2.18218 0
1.5708 2.49492 0
1.76715 2.49492 0
1.76715 2.18218 0
1.9635 2.18218 0
1.76715 2.49492 0
1.9635 2.49492 0
1.9635 1.86944 0
2.15984 1.86944 0
1.9635 2.18218 0
2.15984 2.18218 0
2.15984 1.86944 0
2.35619 1.86944 0
2.15984 2.18218 0
2.35619 2.18218 0
1.9635 2.18218 0
2.15984 2.18218 0
1.9635 2.49492 0
2.15984 2.49492 0
2.15984 2.18218 0
2.35619 2.18218 0
2.15984 2.49492 0
2.35619 2.49492 0
2.35619 1.24394 0
2.55254 1.24394 0
2.35619 1.55668 0
2.55254 1.55668 0
2.55254 1.24394 0
2.74889 1.24394 0
2.55254 1.55668 0
2.74889 1.55668 0
2.35619 1.55668 0
2.55254 1.55668 0
2.35619 1.86944 0
2.55254 1.86944 0
2.55254 1.55668 0
2.74889 1.55668 0
2.55254 1.86944 0
2.74889 1.86944 0
2.74889 1.24394 0
2.94524 1.24394 0
2.74889 1.55668 0
2.94524 1.55668 0
2.94524 1.24394 0
3.14159 1.24394 0
2.94524 1.55668 0
3.14159 1.55668 0
2.74889 1.55668 0
2.94524 1.55668 0
2.74889 1.86944 0
2.94524 1.86944 0
2.94524 1.55668 0
3.14159 1.55668 0
2.94524 1.86944 0
3.14159 1.86944 0
2.35619 1.86944 0
2.55254 1.86944 0
2.35619 2.18218 0
2.55254 2.18218 0
2.55254 1.86944 0
2.74889 1.86944 0
2.55254 2.18218 0
2.74889 2.18218 0
2.35619 2.18218 0
2.55254 2.18218 0
2.35619 2.49492 0
2.55254 2.49492 0
2.55254 2.18218 0
2.74889 2.18218 0
2.55254 2.49492 0
2.74889 2.49492 0
2.74889 1.86944 0
2.94524 1.86944 0
2.74889 2.18218 0
2.94524 2.18218 0
2.94524 1.86944 0
3.14159 1.86944 0
2.94524 2.18218 0
3.14159 2.18218 0
2.74889 2.18218 0
2.94524 2.18218 0
2.74889 2.49492 0
2.94524 2.49492 0
2.94524 2.18218 0
3.14159 2.18218 0
2.94524 2.49492 0
3.14159 2.49492 0
0 2.49492 0
0.19635 2.49492 0
0 2.80766 0
0.19635 2.80766 0
0.19635 2.49492 0
0.392699 2.49492 0
0.19635 2.80766 0
0.392699 2.80766 0
0 2.80766 0
0.19635 2.80766 0
0 3.12039 0
0.19635 3.12039 0
0.19635 2.80766 0
0.392699 2.80766 0
0.19635 3.12039 0
0.392699 3.12039 0
0.392699 2.49492 0
0.589049 2.49492 0
0.392699 2.80766 0
0.589049 2.80766 0
0.589049 2.49492 0
0.785398 2.49492 0
0.589049 2.80766 0
0.785398 2.80766 0
0.392699 2.80766 0
0.589049 2.80766 0
0.392699 3.12039 0
0.589049 3.12039 0
0.589049 2.80766 0
0.785398 2.80766 0
0.589049 3.12039 0
0.785398 3.12039 0
0 3.12039 0
0.19635 3.12039 0
0 3.43311 0
0.19635 3.43311 0
0.19635 3.12039 0
0.392699 3.12039 0
0.19635 3.43311 0
0.392699 3.43311 0
0 3.43311 0
0.19635 3.43311 0
0 3.74584 0
[...]
POINT_DATA 20480
VECTORS uf double
0 1 0
3.39261e-15 1 0
0 1.00085 0
-3.45379e-15 1.00085 0
3.39261e-15 1 0
1.06413e-14 1 0
-3.45379e-15 1.00085 0
-1.43013e-14 1.00085 0
0 1.00085 0
-1.15058e-14 1.00085 0
0 1.00062 0
1.91565e-14 1.00062 0
-1.15058e-14 1.00085 0
4.31525e-15 1.00085 0
1.91565e-14 1.00062 0
4.79123e-15 1.00062 0
1.06413e-14 1 0
-8.73847e-15 1 0
-1.43013e-14 1.00085 0
6.65486e-15 1.00085 0
-8.73847e-15 1 0
-1.18762e-14 1 0
6.65486e-15 1.00085 0
3.61469e-15 1.00085 0
4.31525e-15 1.00085 0
-1.02995e-14 1.00085 0
4.79123e-15 1.00062 0
1.00602e-14 1.00062 0
-1.02995e-14 1.00085 0
1.85168e-16 1.00085 0
1.00602e-14 1.00062 0
1.62988e-16 1.00062 0
0 1.00062 0
-1.86309e-14 1.00062 0
0 1.00066 0
1.72649e-14 1.00066 0
-1.86309e-14 1.00062 0
-1.7896e-14 1.00062 0
1.72649e-14 1.00066 0
9.70315e-15 1.00066 0
0 1.00066 0
-1.36682e-14 1.00066 0
0 1.00062 0
-2.04038e-15 1.00062 0
-1.36682e-14 1.00066 0
-1.23139e-14 1.00066 0
-2.04038e-15 1.00062 0
1.60519e-14 1.00062 0
-1.7896e-14 1.00062 0
-1.26999e-14 1.00062 0
9.70315e-15 1.00066 0
1.57184e-14 1.00066 0
-1.26999e-14 1.00062 0
-4.25885e-15 1.00062 0
1.57184e-14 1.00066 0
1.74317e-14 1.00066 0
-1.23139e-14 1.00066 0
-7.6286e-15 1.00066 0
1.60519e-14 1.00062 0
4.29504e-15 1.00062 0
-7.6286e-15 1.00066 0
-9.92303e-15 1.00066 0
4.29504e-15 1.00062 0
9.61315e-15 1.00062 0
-1.18762e-14 1 0
-2.13367e-14 1 0
3.61469e-15 1.00085 0
2.37242e-14 1.00085 0
-2.13367e-14 1 0
-6.96681e-15 1 0
2.37242e-14 1.00085 0
1.08998e-14 1.00085 0
1.85168e-16 1.00085 0
-2.72382e-14 1.00085 0
1.62988e-16 1.00062 0
3.21631e-14 1.00062 0
-2.72382e-14 1.00085 0
-2.44372e-14 1.00085 0
3.21631e-14 1.00062 0
2.06252e-14 1.00062 0
-6.96681e-15 1 0
-1.57557e-14 1 0
1.08998e-14 1.00085 0
9.11297e-15 1.00085 0
-1.57557e-14 1 0
-3.87656e-16 1 0
9.11297e-15 1.00085 0
1.62874e-15 1.00085 0
-2.44372e-14 1.00085 0
-1.27603e-14 1.00085 0
2.06252e-14 1.00062 0
3.81635e-14 1.00062 0
-1.27603e-14 1.00085 0
-1.47783e-14 1.00085 0
3.81635e-14 1.00062 0
2.01494e-14 1.00062 0
-4.25885e-15 1.00062 0
-1.75419e-14 1.00062 0
1.74317e-14 1.00066 0
1.30853e-14 1.00066 0
-1.75419e-14 1.00062 0
-3.58251e-16 1.00062 0
1.30853e-14 1.00066 0
1.06327e-14 1.00066 0
-9.92303e-15 1.00066 0
2.02635e-15 1.00066 0
9.61315e-15 1.00062 0
-1.26212e-14 1.00062 0
2.02635e-15 1.00066 0
-2.47866e-14 1.00066 0
-1.26212e-14 1.00062 0
2.40472e-14 1.00062 0
-3.58251e-16 1.00062 0
-3.94864e-14 1.00062 0
1.06327e-14 1.00066 0
3.12287e-14 1.00066 0
-3.94864e-14 1.00062 0
-1.75956e-14 1.00062 0
3.12287e-14 1.00066 0
1.56503e-14 1.00066 0
-2.47866e-14 1.00066 0
-3.42787e-15 1.00066 0
2.40472e-14 1.00062 0
1.89382e-15 1.00062 0
-3.42787e-15 1.00066 0
-1.45014e-14 1.00066 0
1.89382e-15 1.00062 0
2.7839e-14 1.00062 0
0 1.00062 0
5.25147e-15 1.00062 0
0 1.0006 0
4.46248e-15 1.0006 0
5.25147e-15 1.00062 0
-5.38173e-15 1.00062 0
4.46248e-15 1.0006 0
5.67672e-15 1.0006 0
0 1.0006 0
-1.4728e-14 1.0006 0
0 1.00058 0
1.62088e-14 1.00058 0
-1.4728e-14 1.0006 0
-1.14577e-14 1.0006 0
1.62088e-14 1.00058 0
3.60199e-14 1.00058 0
-5.38173e-15 1.00062 0
-1.51632e-14 1.00062 0
5.67672e-15 1.0006 0
2.68949e-14 1.0006 0
-1.51632e-14 1.00062 0
-1.46697e-14 1.00062 0
2.68949e-14 1.0006 0
1.26143e-14 1.0006 0
-1.14577e-14 1.0006 0
-2.14988e-14 1.0006 0
3.60199e-14 1.00058 0
2.13286e-14 1.00058 0
-2.14988e-14 1.0006 0
-7.60452e-15 1.0006 0
2.13286e-14 1.00058 0
1.12716e-14 1.00058 0
0 1.00058 0
-1.27958e-15 1.00058 0
0 1.00056 0
-3.06884e-16 1.00056 0
-1.27958e-15 1.00058 0
-3.20141e-14 1.00058 0
-3.06884e-16 1.00056 0
-1.20803e-14 1.00056 0
0 1.00056 0
5.57879e-15 1.00056 0
0 1.00054 0
1.31216e-14 1.00054 0
5.57879e-15 1.00056 0
1.20965e-15 1.00056 0
1.31216e-14 1.00054 0
2.00835e-14 1.00054 0
-3.20141e-14 1.00058 0
-7.37469e-15 1.00058 0
-1.20803e-14 1.00056 0
5.0745e-15 1.00056 0
-7.37469e-15 1.00058 0
-1.08552e-14 1.00058 0
5.0745e-15 1.00056 0
1.8762e-14 1.00056 0
1.20965e-15 1.00056 0
-1.76835e-14 1.00056 0
2.00835e-14 1.00054 0
2.18802e-14 1.00054 0
-1.76835e-14 1.00056 0
-3.0234e-14 1.00056 0
2.18802e-14 1.00054 0
2.18055e-14 1.00054 0
-1.46697e-14 1.00062 0
5.02755e-15 1.00062 0
1.26143e-14 1.0006 0
2.18155e-15 1.0006 0
5.02755e-15 1.00062 0
-6.13531e-15 1.00062 0
2.18155e-15 1.0006 0
4.13373e-15 1.0006 0
-7.60452e-15 1.0006 0
3.64386e-15 1.0006 0
1.12716e-14 1.00058 0
7.52768e-15 1.00058 0
3.64386e-15 1.0006 0
-5.19597e-15 1.0006 0
7.52768e-15 1.00058 0
6.28581e-15 1.00058 0
-6.13531e-15 1.00062 0
-6.60039e-15 1.00062 0
4.13373e-15 1.0006 0
7.70757e-15 1.0006 0
-6.60039e-15 1.00062 0
-2.16784e-14 1.00062 0
7.70757e-15 1.0006 0
1.739e-14 1.0006 0
-5.19597e-15 1.0006 0
-5.5362e-15 1.0006 0
6.28581e-15 1.00058 0
1.00345e-14 1.00058 0
-5.5362e-15 1.0006 0
-1.91676e-14 1.0006 0
1.00345e-14 1.00058 0
1.90793e-14 1.00058 0
-1.08552e-14 1.00058 0
-2.22089e-14 1.00058 0
1.8762e-14 1.00056 0
2.78305e-14 1.00056 0
-2.22089e-14 1.00058 0
-1.29088e-14 1.00058 0
2.78305e-14 1.00056 0
2.52622e-14 1.00056 0
-3.0234e-14 1.00056 0
-2.58274e-14 1.00056 0
2.18055e-14 1.00054 0
1.62159e-14 1.00054 0
-2.58274e-14 1.00056 0
-3.09699e-14 1.00056 0
1.62159e-14 1.00054 0
1.78659e-14 1.00054 0
-1.29088e-14 1.00058 0
-7.77607e-15 1.00058 0
2.52622e-14 1.00056 0
1.04093e-14 1.00056 0
-7.77607e-15 1.00058 0
-1.8201e-14 1.00058 0
1.04093e-14 1.00056 0
3.03174e-14 1.00056 0
-3.09699e-14 1.00056 0
-1.72268e-14 1.00056 0
1.78659e-14 1.00054 0
1.62866e-14 1.00054 0
-1.72268e-14 1.00056 0
-2.88209e-14 1.00056 0
1.62866e-14 1.00054 0
2.30744e-14 1.00054 0
-3.87656e-16 1 0
-1.55069e-15 1 0
1.62874e-15 1.00085 0
1.02166e-15 1.00085 0
-1.55069e-15 1 0
-7.28359e-15 1 0
1.02166e-15 1.00085 0
8.27652e-15 1.00085 0
-1.47783e-14 1.00085 0
-8.96016e-15 1.00085 0
2.01494e-14 1.00062 0
1.74947e-14 1.00062 0
-8.96016e-15 1.00085 0
-1.44731e-14 1.00085 0
1.74947e-14 1.00062 0
2.06982e-14 1.00062 0
-7.28359e-15 1 0
-1.10895e-14 1 0
8.27652e-15 1.00085 0
9.65163e-15 1.00085 0
-1.10895e-14 1 0
-6.37142e-15 1 0
9.65163e-15 1.00085 0
1.10235e-14 1.00085 0
-1.44731e-14 1.00085 0
-1.99268e-15 1.00085 0
2.06982e-14 1.00062 0
9.9118e-15 1.00062 0
-1.99268e-15 1.00085 0
-8.14567e-16 1.00085 0
9.9118e-15 1.00062 0
3.55863e-15 1.00062 0
-1.75956e-14 1.00062 0
-8.60412e-15 1.00062 0
1.56503e-14 1.00066 0
6.51297e-15 1.00066 0
-8.60412e-15 1.00062 0
-1.88518e-14 1.00062 0
6.51297e-15 1.00066 0
1.9812e-14 1.00066 0
-1.45014e-14 1.00066 0
-9.22455e-15 1.00066 0
2.7839e-14 1.00062 0
1.70748e-14 1.00062 0
-9.22455e-15 1.00066 0
-6.5473e-15 1.00066 0
1.70748e-14 1.00062 0
2.4621e-14 1.00062 0
-1.88518e-14 1.00062 0
-1.29373e-14 1.00062 0
1.9812e-14 1.00066 0
1.48142e-14 1.00066 0
-1.29373e-14 1.00062 0
-1.11772e-15 1.00062 0
1.48142e-14 1.00066 0
3.33727e-15 1.00066 0
-6.5473e-15 1.00066 0
-1.93819e-14 1.00066 0
2.4621e-14 1.00062 0
2.90575e-14 1.00062 0
-1.93819e-14 1.00066 0
-6.263e-15 1.00066 0
2.90575e-14 1.00062 0
1.2422e-14 1.00062 0
-6.37142e-15 1 0
-3.95485e-15 1 0
1.10235e-14 1.00085 0
1.64538e-14 1.00085 0
-3.95485e-15 1 0
4.19632e-15 1 0
1.64538e-14 1.00085 0
1.15435e-15 1.00085 0
-8.14567e-16 1.00085 0
-1.77722e-14 1.00085 0
3.55863e-15 1.00062 0
1.19668e-14 1.00062 0
-1.77722e-14 1.00085 0
-1.96426e-15 1.00085 0
1.19668e-14 1.00062 0
9.23556e-15 1.00062 0
4.19632e-15 1 0
-1.49914e-15 1 0
1.15435e-15 1.00085 0
3.80842e-15 1.00085 0
-1.49914e-15 1 0
-1.31477e-14 1 0
3.80842e-15 1.00085 0
3.6752e-14 1.00085 0
-1.96426e-15 1.00085 0
2.34123e-15 1.00085 0
9.23556e-15 1.00062 0
1.31121e-14 1.00062 0
2.34123e-15 1.00085 0
-2.60778e-14 1.00085 0
1.31121e-14 1.00062 0
2.4728e-14 1.00062 0
-1.11772e-15 1.00062 0
4.14498e-15 1.00062 0
3.33727e-15 1.00066 0
2.14609e-16 1.00066 0
4.14498e-15 1.00062 0
-1.31449e-14 1.00062 0
2.14609e-16 1.00066 0
2.3123e-14 1.00066 0
-6.263e-15 1.00066 0
-8.4071e-15 1.00066 0
1.2422e-14 1.00062 0
1.47503e-14 1.00062 0
-8.4071e-15 1.00066 0
-2.40186e-14 1.00066 0
1.47503e-14 1.00062 0
1.53363e-14 1.00062 0
-1.31449e-14 1.00062 0
-1.44819e-14 1.00062 0
2.3123e-14 1.00066 0
1.10781e-14 1.00066 0
-1.44819e-14 1.00062 0
-2.01457e-14 1.00062 0
1.10781e-14 1.00066 0
1.90748e-14 1.00066 0
-2.40186e-14 1.00066 0
-5.14321e-15 1.00066 0
1.53363e-14 1.00062 0
9.6145e-15 1.00062 0
-5.14321e-15 1.00066 0
-1.77879e-14 1.00066 0
9.6145e-15 1.00062 0
1.76528e-14 1.00062 0
-2.16784e-14 1.00062 0
-1.40486e-14 1.00062 0
1.739e-14 1.0006 0
9.05441e-15 1.0006 0
-1.40486e-14 1.00062 0
-3.3166e-14 1.00062 0
9.05441e-15 1.0006 0
1.94389e-14 1.0006 0
-1.91676e-14 1.0006 0
-3.73841e-15 1.0006 0
1.90793e-14 1.00058 0
1.528e-14 1.00058 0
-3.73841e-15 1.0006 0
-9.81424e-15 1.0006 0
1.528e-14 1.00058 0
1.44597e-14 1.00058 0
-3.3166e-14 1.00062 0
-1.51559e-14 1.00062 0
1.94389e-14 1.0006 0
1.77354e-14 1.0006 0
-1.51559e-14 1.00062 0
-5.07632e-16 1.00062 0
1.77354e-14 1.0006 0
4.20765e-15 1.0006 0
-9.81424e-15 1.0006 0
-2.28529e-14 1.0006 0
1.44597e-14 1.00058 0
2.97049e-14 1.00058 0
-2.28529e-14 1.0006 0
-8.76693e-15 1.0006 0
2.97049e-14 1.00058 0
1.72709e-14 1.00058 0
-1.8201e-14 1.00058 0
-3.10848e-14 1.00058 0
3.03174e-14 1.00056 0
2.58225e-14 1.00056 0
-3.10848e-14 1.00058 0
-2.22061e-14 1.00058 0
2.58225e-14 1.00056 0
2.99619e-14 1.00056 0
-2.88209e-14 1.00056 0
-2.19245e-14 1.00056 0
2.30744e-14 1.00054 0
2.07626e-14 1.00054 0
-2.19245e-14 1.00056 0
-3.0447e-14 1.00056 0
2.07626e-14 1.00054 0
2.15204e-14 1.00054 0
-2.22061e-14 1.00058 0
-3.72547e-14 1.00058 0
2.99619e-14 1.00056 0
3.05155e-14 1.00056 0
-3.72547e-14 1.00058 0
-3.12537e-14 1.00058 0
3.05155e-14 1.00056 0
2.84148e-14 1.00056 0
-3.0447e-14 1.00056 0
-1.86728e-14 1.00056 0
2.15204e-14 1.00054 0
2.24404e-14 1.00054 0
-1.86728e-14 1.00056 0
-2.125e-14 1.00056 0
2.24404e-14 1.00054 0
3.39062e-14 1.00054 0
-5.07632e-16 1.00062 0
-1.13795e-14 1.00062 0
4.20765e-15 1.0006 0
1.47751e-14 1.0006 0
-1.13795e-14 1.00062 0
8.005e-16 1.00062 0
1.47751e-14 1.0006 0
2.17956e-15 1.0006 0
-8.76693e-15 1.0006 0
-5.42249e-16 1.0006 0
1.72709e-14 1.00058 0
2.37581e-15 1.00058 0
-5.42249e-16 1.0006 0
-9.39573e-15 1.0006 0
2.37581e-15 1.00058 0
2.40617e-14 1.00058 0
8.005e-16 1.00062 0
-1.00804e-14 1.00062 0
2.17956e-15 1.0006 0
1.61641e-14 1.0006 0
-1.00804e-14 1.00062 0
-2.84756e-15 1.00062 0
1.61641e-14 1.0006 0
8.22691e-15 1.0006 0
-9.39573e-15 1.0006 0
-1.74073e-14 1.0006 0
2.40617e-14 1.00058 0
2.24384e-14 1.00058 0
-1.74073e-14 1.0006 0
-1.57338e-14 1.0006 0
2.24384e-14 1.00058 0
2.51308e-14 1.00058 0
-3.12537e-14 1.00058 0
-1.08116e-14 1.00058 0
2.84148e-14 1.00056 0
1.17847e-14 1.00056 0
-1.08116e-14 1.00058 0
-2.70201e-14 1.00058 0
1.17847e-14 1.00056 0
2.81437e-14 1.00056 0
-2.125e-14 1.00056 0
-8.20404e-15 1.00056 0
3.39062e-14 1.00054 0
1.05352e-14 1.00054 0
-8.20404e-15 1.00056 0
-1.78657e-14 1.00056 0
1.05352e-14 1.00054 0
1.31493e-14 1.00054 0
-2.70201e-14 1.00058 0
-1.09908e-14 1.00058 0
2.81437e-14 1.00056 0
4.70297e-15 1.00056 0
-1.09908e-14 1.00058 0
-1.90811e-14 1.00058 0
4.70297e-15 1.00056 0
5.73897e-15 1.00056 0
-1.78657e-14 1.00056 0
-6.53691e-15 1.00056 0
1.31493e-14 1.00054 0
2.01822e-14 1.00054 0
-6.53691e-15 1.00056 0
-8.81399e-16 1.00056 0
2.01822e-14 1.00054 0
9.99035e-15 1.00054 0
0 1.00054 0
-2.27855e-14 1.00054 0
0 1.00052 0
-1.70076e-15 1.00052 0
-2.27855e-14 1.00054 0
-5.39081e-15 1.00054 0
-1.70076e-15 1.00052 0
6.82262e-15 1.00052 0
0 1.00052 0
6.03869e-16 1.00052 0
0 1.0005 0
2.42836e-14 1.0005 0
6.03869e-16 1.00052 0
-3.2299e-15 1.00052 0
2.42836e-14 1.0005 0
1.1936e-14 1.0005 0
-5.39081e-15 1.00054 0
-2.02672e-15 1.00054 0
6.82262e-15 1.00052 0
-6.53157e-15 1.00052 0
-2.02672e-15 1.00054 0
-1.86728e-14 1.00054 0
-6.53157e-15 1.00052 0
2.20041e-14 1.00052 0
-3.2299e-15 1.00052 0
-3.76248e-15 1.00052 0
1.1936e-14 1.0005 0
1.40956e-14 1.0005 0
-3.76248e-15 1.00052 0
-1.88705e-14 1.00052 0
1.40956e-14 1.0005 0
2.51115e-14 1.0005 0
0 1.0005 0
-1.79275e-14 1.0005 0
0 1.00048 0
-2.51068e-15 1.00048 0
-1.79275e-14 1.0005 0
-1.97385e-14 1.0005 0
-2.51068e-15 1.00048 0
7.65995e-15 1.00048 0
0 1.00048 0
-1.64498e-15 1.00048 0
0 1.00046 0
1.61752e-14 1.00046 0
-1.64498e-15 1.00048 0
5.19959e-15 1.00048 0
1.61752e-14 1.00046 0
7.62482e-15 1.00046 0
-1.97385e-14 1.0005 0
-1.93231e-14 1.0005 0
7.65995e-15 1.00048 0
1.74977e-14 1.00048 0
-1.93231e-14 1.0005 0
-2.40755e-14 1.0005 0
1.74977e-14 1.00048 0
2.3917e-14 1.00048 0
5.19959e-15 1.00048 0
-9.78054e-15 1.00048 0
7.62482e-15 1.00046 0
3.65365e-15 1.00046 0
-9.78054e-15 1.00048 0
-1.24127e-14 1.00048 0
3.65365e-15 1.00046 0
9.96214e-15 1.00046 0
-1.86728e-14 1.00054 0
-4.85031e-15 1.00054 0
2.20041e-14 1.00052 0
2.94137e-15 1.00052 0
-4.85031e-15 1.00054 0
-2.34776e-14 1.00054 0
2.94137e-15 1.00052 0
3.61582e-14 1.00052 0
-1.88705e-14 1.00052 0
-3.2883e-15 1.00052 0
2.51115e-14 1.0005 0
2.18242e-14 1.0005 0
-3.2883e-15 1.00052 0
-2.64792e-14 1.00052 0
2.18242e-14 1.0005 0
2.49943e-14 1.0005 0
-2.34776e-14 1.00054 0
-1.35941e-14 1.00054 0
3.61582e-14 1.00052 0
8.25182e-15 1.00052 0
-1.35941e-14 1.00054 0
-2.60802e-14 1.00054 0
8.25182e-15 1.00052 0
2.21264e-14 1.00052 0
-2.64792e-14 1.00052 0
1.33472e-15 1.00052 0
2.49943e-14 1.0005 0
9.7883e-15 1.0005 0
1.33472e-15 1.00052 0
-1.36949e-14 1.00052 0
9.7883e-15 1.0005 0
2.78057e-14 1.0005 0
-2.40755e-14 1.0005 0
-1.75593e-14 1.0005 0
2.3917e-14 1.00048 0
1.31458e-14 1.00048 0
-1.75593e-14 1.0005 0
-1.65224e-14 1.0005 0
1.31458e-14 1.00048 0
1.51196e-14 1.00048 0
-1.24127e-14 1.00048 0
-1.84127e-14 1.00048 0
9.96214e-15 1.00046 0
1.54796e-14 1.00046 0
-1.84127e-14 1.00048 0
-2.43497e-14 1.00048 0
1.54796e-14 1.00046 0
1.77932e-14 1.00046 0
-1.65224e-14 1.0005 0
-9.581e-15 1.0005 0
1.51196e-14 1.00048 0
7.89733e-15 1.00048 0
-9.581e-15 1.0005 0
-3.03373e-14 1.0005 0
7.89733e-15 1.00048 0
2.62482e-14 1.00048 0
-2.43497e-14 1.00048 0
-2.03029e-14 1.00048 0
1.77932e-14 1.00046 0
2.28111e-14 1.00046 0
-2.03029e-14 1.00048 0
-1.42266e-14 1.00048 0
2.28111e-14 1.00046 0
8.22703e-15 1.00046 0
0 1.00046 0
-1.3642e-14 1.00046 0
0 1.00044 0
4.74936e-15 1.00044 0
-1.3642e-14 1.00046 0
-1.65789e-14 1.00046 0
4.74936e-15 1.00044 0
-6.64218e-17 1.00044 0
0 1.00044 0
6.00397e-15 1.00044 0
0 1.00042 0
1.35889e-14 1.00042 0
6.00397e-15 1.00044 0
5.75598e-15 1.00044 0
1.35889e-14 1.00042 0
9.13173e-15 1.00042 0
-1.65789e-14 1.00046 0
-1.59574e-14 1.00046 0
-6.64218e-17 1.00044 0
2.39757e-14 1.00044 0
-1.59574e-14 1.00046 0
-3.08343e-14 1.00046 0
2.39757e-14 1.00044 0
3.97234e-14 1.00044 0
5.75598e-15 1.00044 0
-1.06062e-14 1.00044 0
9.13173e-15 1.00042 0
9.46688e-15 1.00042 0
-1.06062e-14 1.00044 0
-2.88354e-14 1.00044 0
9.46688e-15 1.00042 0
2.41892e-14 1.00042 0
0 1.00042 0
-1.10021e-14 1.00042 0
0 1.0004 0
-1.33279e-14 1.0004 0
-1.10021e-14 1.00042 0
4.99663e-15 1.00042 0
-1.33279e-14 1.0004 0
-1.93483e-16 1.0004 0
0 1.0004 0
-2.90537e-15 1.0004 0
0 1.00038 0
-5.90023e-15 1.00038 0
-2.90537e-15 1.0004 0
-1.89469e-14 1.0004 0
-5.90023e-15 1.00038 0
1.14163e-15 1.00038 0
4.99663e-15 1.00042 0
-1.04553e-14 1.00042 0
-1.93483e-16 1.0004 0
8.80015e-16 1.0004 0
-1.04553e-14 1.00042 0
-2.84315e-14 1.00042 0
8.80015e-16 1.0004 0
1.90694e-14 1.0004 0
-1.89469e-14 1.0004 0
-5.52221e-15 1.0004 0
1.14163e-15 1.00038 0
1.66624e-14 1.00038 0
-5.52221e-15 1.0004 0
-1.49469e-14 1.0004 0
1.66624e-14 1.00038 0
1.79308e-14 1.00038 0
-3.08343e-14 1.00046 0
-1.86884e-14 1.00046 0
3.97234e-14 1.00044 0
1.917e-14 1.00044 0
-1.86884e-14 1.00046 0
-1.11251e-14 1.00046 0
1.917e-14 1.00044 0
1.38357e-14 1.00044 0
-2.88354e-14 1.00044 0
-1.74928e-14 1.00044 0
2.41892e-14 1.00042 0
1.78285e-14 1.00042 0
-1.74928e-14 1.00044 0
-1.27271e-14 1.00044 0
1.78285e-14 1.00042 0
9.32315e-15 1.00042 0
-1.11251e-14 1.00046 0
-2.07199e-14 1.00046 0
1.38357e-14 1.00044 0
1.9672e-14 1.00044 0
-2.07199e-14 1.00046 0
-1.58987e-14 1.00046 0
1.9672e-14 1.00044 0
1.73444e-14 1.00044 0
-1.27271e-14 1.00044 0
-1.64751e-14 1.00044 0
9.32315e-15 1.00042 0
1.7824e-14 1.00042 0
-1.64751e-14 1.00044 0
-1.5164e-14 1.00044 0
1.7824e-14 1.00042 0
1.30997e-14 1.00042 0
-2.84315e-14 1.00042 0
-2.04561e-14 1.00042 0
1.90694e-14 1.0004 0
2.3042e-14 1.0004 0
-2.04561e-14 1.00042 0
-7.8429e-15 1.00042 0
2.3042e-14 1.0004 0
1.40978e-14 1.0004 0
-1.49469e-14 1.0004 0
-1.57259e-14 1.0004 0
1.79308e-14 1.00038 0
1.73838e-14 1.00038 0
-1.57259e-14 1.0004 0
-1.11479e-14 1.0004 0
1.73838e-14 1.00038 0
1.85568e-14 1.00038 0
-7.8429e-15 1.00042 0
-1.21721e-14 1.00042 0
1.40978e-14 1.0004 0
1.53847e-14 1.0004 0
-1.21721e-14 1.00042 0
-1.33677e-14 1.00042 0
1.53847e-14 1.0004 0
1.87178e-14 1.0004 0
-1.11479e-14 1.0004 0
-1.18867e-14 1.0004 0
1.85568e-14 1.00038 0
9.67726e-15 1.00038 0
-1.18867e-14 1.0004 0
-8.01483e-15 1.0004 0
9.67726e-15 1.00038 0
1.06027e-14 1.00038 0
-2.60802e-14 1.00054 0
-1.50389e-14 1.00054 0
2.21264e-14 1.00052 0
1.7267e-14 1.00052 0
-1.50389e-14 1.00054 0
-2.22735e-14 1.00054 0
1.7267e-14 1.00052 0
2.81462e-14 1.00052 0
-1.36949e-14 1.00052 0
-1.18676e-14 1.00052 0
2.78057e-14 1.0005 0
2.05817e-14 1.0005 0
-1.18676e-14 1.00052 0
-2.23579e-14 1.00052 0
2.05817e-14 1.0005 0
2.81851e-14 1.0005 0
-2.22735e-14 1.00054 0
-2.36835e-14 1.00054 0
2.81462e-14 1.00052 0
2.28653e-14 1.00052 0
-2.36835e-14 1.00054 0
-3.33253e-14 1.00054 0
2.28653e-14 1.00052 0
2.75193e-14 1.00052 0
-2.23579e-14 1.00052 0
-1.17407e-14 1.00052 0
2.81851e-14 1.0005 0
1.65551e-14 1.0005 0
-1.17407e-14 1.00052 0
-2.53634e-14 1.00052 0
1.65551e-14 1.0005 0
3.42839e-14 1.0005 0
-3.03373e-14 1.0005 0
-1.85922e-14 1.0005 0
2.62482e-14 1.00048 0
2.11912e-14 1.00048 0
-1.85922e-14 1.0005 0
-1.19326e-14 1.0005 0
2.11912e-14 1.00048 0
1.03837e-14 1.00048 0
-1.42266e-14 1.00048 0
-1.19934e-14 1.00048 0
8.22703e-15 1.00046 0
8.82957e-15 1.00046 0
-1.19934e-14 1.00048 0
-1.29377e-14 1.00048 0
8.82957e-15 1.00046 0
1.94336e-14 1.00046 0
-1.19326e-14 1.0005 0
-2.16173e-14 1.0005 0
1.03837e-14 1.00048 0
2.11315e-14 1.00048 0
-2.16173e-14 1.0005 0
-3.5855e-14 1.0005 0
2.11315e-14 1.00048 0
3.34029e-14 1.00048 0
-1.29377e-14 1.00048 0
-1.2407e-14 1.00048 0
1.94336e-14 1.00046 0
2.00606e-14 1.00046 0
-1.2407e-14 1.00048 0
-2.05972e-14 1.00048 0
2.00606e-14 1.00046 0
1.74757e-14 1.00046 0
-3.33253e-14 1.00054 0
-3.4508e-18 1.00054 0
2.75193e-14 1.00052 0
9.68402e-16 1.00052 0
-3.4508e-18 1.00054 0
3.79642e-15 1.00054 0
9.68402e-16 1.00052 0
-9.85571e-15 1.00052 0
-2.53634e-14 1.00052 0
-2.26849e-15 1.00052 0
3.42839e-14 1.0005 0
1.71411e-14 1.0005 0
-2.26849e-15 1.00052 0
1.55058e-14 1.00052 0
1.71411e-14 1.0005 0
3.4075e-15 1.0005 0
3.79642e-15 1.00054 0
-2.29755e-14 1.00054 0
-9.85571e-15 1.00052 0
2.38634e-14 1.00052 0
-2.29755e-14 1.00054 0
3.05452e-16 1.00054 0
2.38634e-14 1.00052 0
2.32672e-15 1.00052 0
1.55058e-14 1.00052 0
-6.42524e-15 1.00052 0
3.4075e-15 1.0005 0
1.25862e-14 1.0005 0
-6.42524e-15 1.00052 0
-4.2284e-15 1.00052 0
1.25862e-14 1.0005 0
1.94702e-14 1.0005 0
-3.5855e-14 1.0005 0
-1.98672e-14 1.0005 0
3.34029e-14 1.00048 0
1.51835e-14 1.00048 0
-1.98672e-14 1.0005 0
-1.28602e-14 1.0005 0
1.51835e-14 1.00048 0
1.39503e-14 1.00048 0
-2.05972e-14 1.00048 0
-1.01685e-14 1.00048 0
1.74757e-14 1.00046 0
1.38721e-14 1.00046 0
-1.01685e-14 1.00048 0
-1.56216e-14 1.00048 0
1.38721e-14 1.00046 0
1.68484e-14 1.00046 0
-1.28602e-14 1.0005 0
-1.50183e-14 1.0005 0
1.39503e-14 1.00048 0
1.74265e-14 1.00048 0
-1.50183e-14 1.0005 0
-2.53069e-14 1.0005 0
1.74265e-14 1.00048 0
1.96066e-14 1.00048 0
-1.56216e-14 1.00048 0
-1.32716e-14 1.00048 0
1.68484e-14 1.00046 0
1.32835e-14 1.00046 0
-1.32716e-14 1.00048 0
-6.09564e-15 1.00048 0
1.32835e-14 1.00046 0
1.84808e-14 1.00046 0
-1.58987e-14 1.00046 0
-2.25317e-14 1.00046 0
1.73444e-14 1.00044 0
2.82402e-14 1.00044 0
-2.25317e-14 1.00046 0
-3.33126e-14 1.00046 0
2.82402e-14 1.00044 0
3.29297e-14 1.00044 0
-1.5164e-14 1.00044 0
-1.38216e-14 1.00044 0
1.30997e-14 1.00042 0
1.04771e-14 1.00042 0
-1.38216e-14 1.00044 0
-1.87496e-14 1.00044 0
1.04771e-14 1.00042 0
1.77916e-14 1.00042 0
-3.33126e-14 1.00046 0
-3.20969e-14 1.00046 0
3.29297e-14 1.00044 0
2.6887e-14 1.00044 0
-3.20969e-14 1.00046 0
-7.19946e-15 1.00046 0
2.6887e-14 1.00044 0
7.98641e-15 1.00044 0
-1.87496e-14 1.00044 0
-1.62217e-14 1.00044 0
1.77916e-14 1.00042 0