# vtk DataFile Version 3.0
#This file was generated by the deal.II library on 2018/10/15 at 2:49:44
ASCII
DATASET UNSTRUCTURED_GRID

POINTS 20480 double
0 0 0
0.19635 0 0
0 0.308925 0
0.19635 0.308925 0
0.19635 0 0
0.392699 0 0
0.19635 0.308925 0
0.392699 0.308925 0
0 0.308925 0
0.19635 0.308925 0
0 0.621585 0
0.19635 0.621585 0
0.19635 0.308925 0
0.392699 0.308925 0
0.19635 0.621585 0
0.392699 0.621585 0
0.392699 0 0
0.589049 0 0
0.392699 0.308925 0
0.589049 0.308925 0
0.589049 0 0
0.785398 0 0
0.589049 0.308925 0
0.785398 0.308925 0
0.392699 0.308925 0
0.589049 0.308925 0
0.392699 0.621585 0
0.589049 0.621585 0
0.589049 0.308925 0
0.785398 0.308925 0
0.589049 0.621585 0
0.785398 0.621585 0
0 0.621585 0
0.19635 0.621585 0
0 0.934113 0
0.19635 0.934113 0
0.19635 0.621585 0
0.392699 0.621585 0
0.19635 0.934113 0
0.392699 0.934113 0
0 0.934113 0
0.19635 0.934113 0
0 1.24677 0
0.19635 1.24677 0
0.19635 0.934113 0
0.392699 0.934113 0
0.19635 1.24677 0
0.392699 1.24677 0
0.392699 0.621585 0
0.589049 0.621585 0
0.392699 0.934113 0
0.589049 0.934113 0
0.589049 0.621585 0
0.785398 0.621585 0
0.589049 0.934113 0
0.785398 0.934113 0
0.392699 0.934113 0
0.589049 0.934113 0
0.392699 1.24677 0
0.589049 1.24677 0
0.589049 0.934113 0
0.785398 0.934113 0
0.589049 1.24677 0
0.785398 1.24677 0
0.785398 0 0
0.981748 0 0
0.785398 0.308925 0
0.981748 0.308925 0
0.981748 0 0
1.1781 0 0
0.981748 0.308925 0
1.1781 0.308925 0
0.785398 0.308925 0
0.981748 0.308925 0
0.785398 0.621585 0
0.981748 0.621585 0
0.981748 0.308925 0
1.1781 0.308925 0
0.981748 0.621585 0
1.1781 0.621585 0
1.1781 0 0
1.37445 0 0
1.1781 0.308925 0
1.37445 0.308925 0
1.37445 0 0
1.5708 0 0
1.37445 0.308925 0
1.5708 0.308925 0
1.1781 0.308925 0
1.37445 0.308925 0
1.1781 0.621585 0
1.37445 0.621585 0
1.37445 0.308925 0
1.5708 0.308925 0
1.37445 0.621585 0
1.5708 0.621585 0
0.785398 0.621585 0
0.981748 0.621585 0
0.785398 0.934113 0
0.981748 0.934113 0
0.981748 0.621585 0
1.1781 0.621585 0
0.981748 0.934113 0
1.1781 0.934113 0
0.785398 0.934113 0
0.981748 0.934113 0
0.785398 1.24677 0
0.981748 1.24677 0
0.981748 0.934113 0
1.1781 0.934113 0
0.981748 1.24677 0
1.1781 1.24677 0
1.1781 0.621585 0
1.37445 0.621585 0
1.1781 0.934113 0
1.37445 0.934113 0
1.37445 0.621585 0
1.5708 0.621585 0
1.37445 0.934113 0
1.5708 0.934113 0
1.1781 0.934113 0
1.37445 0.934113 0
1.1781 1.24677 0
1.37445 1.24677 0
1.37445 0.934113 0
1.5708 0.934113 0
1.37445 1.24677 0
1.5708 1.24677 0
0 1.24677 0
0.19635 1.24677 0
0 1.5594 0
0.19635 1.5594 0
0.19635 1.24677 0
0.392699 1.24677 0
0.19635 1.5594 0
0.392699 1.5594 0
0 1.5594 0
0.19635 1.5594 0
0 1.87203 0
0.19635 1.87203 0
0.19635 1.5594 0
0.392699 1.5594 0
0.19635 1.87203 0
0.392699 1.87203 0
0.392699 1.24677 0
0.589049 1.24677 0
0.392699 1.5594 0
0.589049 1.5594 0
0.589049 1.24677 0
0.785398 1.24677 0
0.589049 1.5594 0
0.785398 1.5594 0
0.392699 1.5594 0
0.589049 1.5594 0
0.392699 1.87203 0
0.589049 1.87203 0
0.589049 1.5594 0
0.785398 1.5594 0
0.589049 1.87203 0
0.785398 1.87203 0
0 1.87203 0
0.19635 1.87203 0
0 2.18466 0
0.19635 2.18466 0
0.19635 1.87203 0
0.392699 1.87203 0
0.19635 2.18466 0
0.392699 2.18466 0
0 2.18466 0
0.19635 2.18466 0
0 2.49728 0
0.19635 2.49728 0
0.19635 2.18466 0
0.392699 2.18466 0
0.19635 2.49728 0
0.392699 2.49728 0
0.392699 1.87203 0
0.589049 1.87203 0
0.392699 2.18466 0
0.589049 2.18466 0
0.589049 1.87203 0
0.785398 1.87203 0
0.589049 2.18466 0
0.785398 2.18466 0
0.392699 2.18466 0
0.589049 2.18466 0
0.392699 2.49728 0
0.589049 2.49728 0
0.589049 2.18466 0
0.785398 2.18466 0
0.589049 2.49728 0
0.785398 2.49728 0
0.785398 1.24677 0
0.981748 1.24677 0
0.785398 1.5594 0
0.981748 1.5594 0
0.981748 1.24677 0
1.1781 1.24677 0
0.981748 1.5594 0
1.1781 1.5594 0
0.785398 1.5594 0
0.981748 1.5594 0
0.785398 1.87203 0
0.981748 1.87203 0
0.981748 1.5594 0
1.1781 1.5594 0
0.981748 1.87203 0
1.1781 1.87203 0
1.1781 1.24677 0
1.37445 1.24677 0
1.1781 1.5594 0
1.37445 1.5594 0
1.37445 1.24677 0
1.5708 1.24677 0
1.37445 1.5594 0
1.5708 1.5594 0
1.1781 1.5594 0
1.37445 1.5594 0
1.1781 1.87203 0
1.37445 1.87203 0
1.37445 1.5594 0
1.5708 1.5594 0
1.37445 1.87203 0
1.5708 1.87203 0
0.785398 1.87203 0
0.981748 1.87203 0
0.785398 2.18466 0
0.981748 2.18466 0
0.981748 1.87203 0
1.1781 1.87203 0
0.981748 2.18466 0
1.1781 2.18466 0
0.785398 2.18466 0
0.981748 2.18466 0
0.785398 2.49728 0
0.981748 2.49728 0
0.981748 2.18466 0
1.1781 2.18466 0
0.981748 2.49728 0
1.1781 2.49728 0
1.1781 1.87203 0
1.37445 1.87203 0
1.1781 2.18466 0
1.37445 2.18466 0
1.37445 1.87203 0
1.5708 1.87203 0
1.37445 2.18466 0
1.5708 2.18466 0
1.1781 2.18466 0
1.37445 2.18466 0
1.1781 2.49728 0
1.37445 2.49728 0
1.37445 2.18466 0
1.5708 2.18466 0
1.37445 2.49728 0
1.5708 2.49728 0
1.5708 0 0
1.76715 0 0
1.5708 0.308925 0
1.76715 0.308925 0
1.76715 0 0
1.9635 0 0
1.76715 0.308925 0
1.9635 0.308925 0
1.5708 0.308925 0
1.76715 0.308925 0
1.5708 0.621585 0
1.76715 0.621585 0
1.76715 0.308925 0
1.9635 0.308925 0
1.76715 0.621585 0
1.9635 0.621585 0
1.9635 0 0
2.15984 0 0
1.9635 0.308925 0
2.15984 0.308925 0
2.15984 0 0
2.35619 0 0
2.15984 0.308925 0
2.35619 0.308925 0
1.9635 0.308925 0
2.15984 0.308925 0
1.9635 0.621585 0
2.15984 0.621585 0
2.15984 0.308925 0
2.35619 0.308925 0
2.15984 0.621585 0
2.35619 0.621585 0
1.5708 0.621585 0
1.76715 0.621585 0
1.5708 0.934113 0
1.76715 0.934113 0
1.76715 0.621585 0
1.9635 0.621585 0
1.76715 0.934113 0
1.9635 0.934113 0
1.5708 0.934113 0
1.76715 0.934113 0
1.5708 1.24677 0
1.76715 1.24677 0
1.76715 0.934113 0
1.9635 0.934113 0
1.76715 1.24677 0
1.9635 1.24677 0
1.9635 0.621585 0
2.15984 0.621585 0
1.9635 0.934113 0
2.15984 0.934113 0
2.15984 0.621585 0
2.35619 0.621585 0
2.15984 0.934113 0
2.35619 0.934113 0
1.9635 0.934113 0
2.15984 0.934113 0
1.9635 1.24677 0
2.15984 1.24677 0
2.15984 0.934113 0
2.35619 0.934113 0
2.15984 1.24677 0
2.35619 1.24677 0
2.35619 0 0
2.55254 0 0
2.35619 0.308925 0
2.55254 0.308925 0
2.55254 0 0
2.74889 0 0
2.55254 0.308925 0
2.74889 0.308925 0
2.35619 0.308925 0
2.55254 0.308925 0
2.35619 0.621585 0
2.55254 0.621585 0
2.55254 0.308925 0
2.74889 0.308925 0
2.55254 0.621585 0
2.74889 0.621585 0
2.74889 0 0
2.94524 0 0
2.74889 0.308925 0
2.94524 0.308925 0
2.94524 0 0
3.14159 0 0
2.94524 0.308925 0
3.14159 0.308925 0
2.74889 0.308925 0
2.94524 0.308925 0
2.74889 0.621585 0
2.94524 0.621585 0
2.94524 0.308925 0
3.14159 0.308925 0
2.94524 0.621585 0
3.14159 0.621585 0
2.35619 0.621585 0
2.55254 0.621585 0
2.35619 0.934113 0
2.55254 0.934113 0
2.55254 0.621585 0
2.74889 0.621585 0
2.55254 0.934113 0
2.74889 0.934113 0
2.35619 0.934113 0
2.55254 0.934113 0
2.35619 1.24677 0
2.55254 1.24677 0
2.55254 0.934113 0
2.74889 0.934113 0
2.55254 1.24677 0
2.74889 1.24677 0
2.74889 0.621585 0
2.94524 0.621585 0
2.74889 0.934113 0
2.94524 0.934113 0
2.94524 0.621585 0
3.14159 0.621585 0
2.94524 0.934113 0
3.14159 0.934113 0
2.74889 0.934113 0
2.94524 0.934113 0
2.74889 1.24677 0
2.94524 1.24677 0
2.94524 0.934113 0
3.14159 0.934113 0
2.94524 1.24677 0
3.14159 1.24677 0
1.5708 1.24677 0
1.76715 1.24677 0
1.5708 1.5594 0
1.76715 1.5594 0
1.76715 1.24677 0
1.9635 1.24677 0
1.76715 1.5594 0
1.9635 1.5594 0
1.5708 1.5594 0
1.76715 1.5594 0
1.5708 1.87203 0
1.76715 1.87203 0
1.76715 1.5594 0
1.9635 1.5594 0
1.76715 1.87203 0
1.9635 1.87203 0
1.9635 1.24677 0
2.15984 1.24677 0
1.9635 1.5594 0
2.15984 1.5594 0
2.15984 1.24677 0
2.35619 1.24677 0
2.15984 1.5594 0
2.35619 1.5594 0
1.9635 1.5594 0
2.15984 1.5594 0
1.9635 1.87203 0
2.15984 1.87203 0
2.15984 1.5594 0
2.35619 1.5594 0
2.15984 1.87203 0
2.35619 1.87203 0
1.5708 1.87203 0
1.76715 1.87203 0
1.5708 2.18466 0
1.76715 2.18466 0
1.76715 1.87203 0
1.9635 1.87203 0
1.76715 2.18466 0
1.9635 2.18466 0
1.5708 2.18466 0
1.76715 2.18466 0
1.5708 2.49728 0
1.76715 2.49728 0
1.76715 2.18466 0
1.9635 2.18466 0
1.76715 2.49728 0
1.9635 2.49728 0
1.9635 1.87203 0
2.15984 1.87203 0
1.9635 2.18466 0
2.15984 2.18466 0
2.15984 1.87203 0
2.35619 1.87203 0
2.15984 2.18466 0
2.35619 2.18466 0
1.9635 2.18466 0
2.15984 2.18466 0
1.9635 2.49728 0
2.15984 2.49728 0
2.15984 2.18466 0
2.35619 2.18466 0
2.15984 2.49728 0
2.35619 2.49728 0
2.35619 1.24677 0
2.55254 1.24677 0
2.35619 1.5594 0
2.55254 1.5594 0
2.55254 1.24677 0
2.74889 1.24677 0
2.55254 1.5594 0
2.74889 1.5594 0
2.35619 1.5594 0
2.55254 1.5594 0
2.35619 1.87203 0
2.55254 1.87203 0
2.55254 1.5594 0
2.74889 1.5594 0
2.55254 1.87203 0
2.74889 1.87203 0
2.74889 1.24677 0
2.94524 1.24677 0
2.74889 1.5594 0
2.94524 1.5594 0
2.94524 1.24677 0
3.14159 1.24677 0
2.94524 1.5594 0
3.14159 1.5594 0
2.74889 1.5594 0
2.94524 1.5594 0
2.74889 1.87203 0
2.94524 1.87203 0
2.94524 1.5594 0
3.14159 1.5594 0
2.94524 1.87203 0
3.14159 1.87203 0
2.35619 1.87203 0
2.55254 1.87203 0
2.35619 2.18466 0
2.55254 2.18466 0
2.55254 1.87203 0
2.74889 1.87203 0
2.55254 2.18466 0
2.74889 2.18466 0
2.35619 2.18466 0
2.55254 2.18466 0
2.35619 2.49728 0
2.55254 2.49728 0
2.55254 2.18466 0
2.74889 2.18466 0
2.55254 2.49728 0
2.74889 2.49728 0
2.74889 1.87203 0
2.94524 1.87203 0
2.74889 2.18466 0
2.94524 2.18466 0
2.94524 1.87203 0
3.14159 1.87203 0
2.94524 2.18466 0
3.14159 2.18466 0
2.74889 2.18466 0
2.94524 2.18466 0
2.74889 2.49728 0
2.94524 2.49728 0
2.94524 2.18466 0
3.14159 2.18466 0
2.94524 2.49728 0
3.14159 2.49728 0
0 2.49728 0
0.19635 2.49728 0
0 2.80991 0
0.19635 2.80991 0
0.19635 2.49728 0
0.392699 2.49728 0
0.19635 2.80991 0
0.392699 2.80991 0
0 2.80991 0
0.19635 2.80991 0
0 3.12253 0
0.19635 3.12253 0
0.19635 2.80991 0
0.392699 2.80991 0
0.19635 3.12253 0
0.392699 3.12253 0
0.392699 2.49728 0
0.589049 2.49728 0
0.392699 2.80991 0
0.589049 2.80991 0
0.589049 2.49728 0
0.785398 2.49728 0
0.589049 2.80991 0
0.785398 2.80991 0
0.392699 2.80991 0
0.589049 2.80991 0
0.392699 3.12253 0
0.589049 3.12253 0
0.589049 2.80991 0
0.785398 2.80991 0
0.589049 3.12253 0
0.785398 3.12253 0
0 3.12253 0
0.19635 3.12253 0
0 3.43515 0
0.19635 3.43515 0
0.19635 3.12253 0
0.392699 3.12253 0
0.19635 3.43515 0
0.392699 3.43515 0
0 3.43515 0
0.19635 3.43515 0
0 3.74777 0
[...]
POINT_DATA 20480
VECTORS uf double
0 1 0
-1.45553e-15 1 0
0 1.00076 0
-8.74873e-16 1.00076 0
-1.45553e-15 1 0
-1.03129e-14 1 0
-8.74873e-16 1.00076 0
5.64625e-15 1.00076 0
0 1.00076 0
-3.53179e-15 1.00076 0
0 1.00055 0
7.42588e-15 1.00055 0
-3.53179e-15 1.00076 0
-3.68038e-15 1.00076 0
7.42588e-15 1.00055 0
4.30505e-15 1.00055 0
-1.03129e-14 1 0
-1.05263e-14 1 0
5.64625e-15 1.00076 0
5.09889e-16 1.00076 0
-1.05263e-14 1 0
-2.06082e-14 1 0
5.09889e-16 1.00076 0
9.58755e-15 1.00076 0
-3.68038e-15 1.00076 0
-1.09285e-14 1.00076 0
4.30505e-15 1.00055 0
2.07937e-14 1.00055 0
-1.09285e-14 1.00076 0
-9.91952e-15 1.00076 0
2.07937e-14 1.00055 0
3.11533e-14 1.00055 0
0 1.00055 0
-1.99765e-14 1.00055 0
0 1.00058 0
2.52461e-14 1.00058 0
-1.99765e-14 1.00055 0
-1.41637e-14 1.00055 0
2.52461e-14 1.00058 0
2.25799e-14 1.00058 0
0 1.00058 0
-1.17627e-14 1.00058 0
0 1.00055 0
6.25295e-15 1.00055 0
-1.17627e-14 1.00058 0
-2.12633e-14 1.00058 0
6.25295e-15 1.00055 0
1.40474e-14 1.00055 0
-1.41637e-14 1.00055 0
-2.30071e-14 1.00055 0
2.25799e-14 1.00058 0
3.50002e-14 1.00058 0
-2.30071e-14 1.00055 0
-1.99169e-14 1.00055 0
3.50002e-14 1.00058 0
1.69408e-14 1.00058 0
-2.12633e-14 1.00058 0
-2.2789e-14 1.00058 0
1.40474e-14 1.00055 0
1.2577e-14 1.00055 0
-2.2789e-14 1.00058 0
-8.27521e-15 1.00058 0
1.2577e-14 1.00055 0
6.89244e-15 1.00055 0
-2.06082e-14 1 0
-3.20398e-14 1 0
9.58755e-15 1.00076 0
2.23393e-14 1.00076 0
-3.20398e-14 1 0
-2.75927e-14 1 0
2.23393e-14 1.00076 0
2.73312e-14 1.00076 0
-9.91952e-15 1.00076 0
-1.43046e-14 1.00076 0
3.11533e-14 1.00055 0
3.02536e-14 1.00055 0
-1.43046e-14 1.00076 0
-2.89799e-14 1.00076 0
3.02536e-14 1.00055 0
3.78201e-14 1.00055 0
-2.75927e-14 1 0
-1.55255e-14 1 0
2.73312e-14 1.00076 0
2.3703e-14 1.00076 0
-1.55255e-14 1 0
-4.99988e-15 1 0
2.3703e-14 1.00076 0
1.2265e-14 1.00076 0
-2.89799e-14 1.00076 0
-2.54134e-14 1.00076 0
3.78201e-14 1.00055 0
3.08727e-14 1.00055 0
-2.54134e-14 1.00076 0
-1.26707e-14 1.00076 0
3.08727e-14 1.00055 0
1.09882e-14 1.00055 0
-1.99169e-14 1.00055 0
-5.85419e-15 1.00055 0
1.69408e-14 1.00058 0
3.07013e-15 1.00058 0
-5.85419e-15 1.00055 0
-2.07667e-14 1.00055 0
3.07013e-15 1.00058 0
2.34573e-14 1.00058 0
-8.27521e-15 1.00058 0
-7.33645e-15 1.00058 0
6.89244e-15 1.00055 0
1.19349e-14 1.00055 0
-7.33645e-15 1.00058 0
-2.71172e-14 1.00058 0
1.19349e-14 1.00055 0
2.55407e-14 1.00055 0
-2.07667e-14 1.00055 0
-2.62332e-14 1.00055 0
2.34573e-14 1.00058 0
2.26847e-14 1.00058 0
-2.62332e-14 1.00055 0
-1.67924e-14 1.00055 0
2.26847e-14 1.00058 0
2.06233e-14 1.00058 0
-2.71172e-14 1.00058 0
-2.18143e-14 1.00058 0
2.55407e-14 1.00055 0
2.43181e-14 1.00055 0
-2.18143e-14 1.00058 0
-1.86875e-14 1.00058 0
2.43181e-14 1.00055 0
1.66402e-14 1.00055 0
0 1.00055 0
-3.23296e-15 1.00055 0
0 1.00053 0
9.33358e-15 1.00053 0
-3.23296e-15 1.00055 0
-1.22391e-14 1.00055 0
9.33358e-15 1.00053 0
2.24346e-14 1.00053 0
0 1.00053 0
-2.51941e-14 1.00053 0
0 1.00051 0
2.05432e-14 1.00051 0
-2.51941e-14 1.00053 0
-1.66571e-14 1.00053 0
2.05432e-14 1.00051 0
2.14091e-14 1.00051 0
-1.22391e-14 1.00055 0
-1.91758e-14 1.00055 0
2.24346e-14 1.00053 0
3.23477e-14 1.00053 0
-1.91758e-14 1.00055 0
-1.73304e-14 1.00055 0
3.23477e-14 1.00053 0
1.92522e-14 1.00053 0
-1.66571e-14 1.00053 0
-3.51251e-14 1.00053 0
2.14091e-14 1.00051 0
2.98143e-14 1.00051 0
-3.51251e-14 1.00053 0
-2.03362e-14 1.00053 0
2.98143e-14 1.00051 0
2.49329e-14 1.00051 0
0 1.00051 0
-4.67707e-15 1.00051 0
0 1.00049 0
-3.28016e-15 1.00049 0
-4.67707e-15 1.00051 0
-2.56274e-14 1.00051 0
-3.28016e-15 1.00049 0
1.52626e-14 1.00049 0
0 1.00049 0
1.94535e-14 1.00049 0
0 1.00048 0
-1.45011e-14 1.00048 0
1.94535e-14 1.00049 0
-1.19247e-14 1.00049 0
-1.45011e-14 1.00048 0
1.15068e-14 1.00048 0
-2.56274e-14 1.00051 0
-1.79311e-14 1.00051 0
1.52626e-14 1.00049 0
1.61814e-14 1.00049 0
-1.79311e-14 1.00051 0
-3.71332e-14 1.00051 0
1.61814e-14 1.00049 0
4.14747e-14 1.00049 0
-1.19247e-14 1.00049 0
-1.71212e-14 1.00049 0
1.15068e-14 1.00048 0
1.6874e-14 1.00048 0
-1.71212e-14 1.00049 0
-4.33626e-14 1.00049 0
1.6874e-14 1.00048 0
3.9606e-14 1.00048 0
-1.73304e-14 1.00055 0
-1.18704e-14 1.00055 0
1.92522e-14 1.00053 0
1.53057e-14 1.00053 0
-1.18704e-14 1.00055 0
-1.63445e-14 1.00055 0
1.53057e-14 1.00053 0
2.41592e-14 1.00053 0
-2.03362e-14 1.00053 0
-1.73597e-14 1.00053 0
2.49329e-14 1.00051 0
1.27296e-14 1.00051 0
-1.73597e-14 1.00053 0
-2.22443e-14 1.00053 0
1.27296e-14 1.00051 0
2.04307e-14 1.00051 0
-1.63445e-14 1.00055 0
-1.19114e-14 1.00055 0
2.41592e-14 1.00053 0
2.11124e-14 1.00053 0
-1.19114e-14 1.00055 0
-3.03126e-15 1.00055 0
2.11124e-14 1.00053 0
1.28294e-14 1.00053 0
-2.22443e-14 1.00053 0
-2.31744e-14 1.00053 0
2.04307e-14 1.00051 0
1.31451e-14 1.00051 0
-2.31744e-14 1.00053 0
-2.76003e-14 1.00053 0
1.31451e-14 1.00051 0
2.65065e-14 1.00051 0
-3.71332e-14 1.00051 0
-2.66616e-14 1.00051 0
4.14747e-14 1.00049 0
3.35223e-14 1.00049 0
-2.66616e-14 1.00051 0
-3.22641e-14 1.00051 0
3.35223e-14 1.00049 0
2.32572e-14 1.00049 0
-4.33626e-14 1.00049 0
-3.3327e-14 1.00049 0
3.9606e-14 1.00048 0
2.73983e-14 1.00048 0
-3.3327e-14 1.00049 0
-3.37549e-14 1.00049 0
2.73983e-14 1.00048 0
4.39452e-14 1.00048 0
-3.22641e-14 1.00051 0
-1.76786e-14 1.00051 0
2.32572e-14 1.00049 0
1.31328e-14 1.00049 0
-1.76786e-14 1.00051 0
-2.85782e-14 1.00051 0
1.31328e-14 1.00049 0
3.32951e-14 1.00049 0
-3.37549e-14 1.00049 0
-1.97469e-14 1.00049 0
4.39452e-14 1.00048 0
2.3608e-14 1.00048 0
-1.97469e-14 1.00049 0
-4.06071e-14 1.00049 0
2.3608e-14 1.00048 0
3.56663e-14 1.00048 0
-4.99988e-15 1 0
-1.15015e-14 1 0
1.2265e-14 1.00076 0
2.2762e-14 1.00076 0
-1.15015e-14 1 0
-1.84675e-14 1 0
2.2762e-14 1.00076 0
2.75199e-14 1.00076 0
-1.26707e-14 1.00076 0
-2.8573e-14 1.00076 0
1.09882e-14 1.00055 0
2.75664e-14 1.00055 0
-2.8573e-14 1.00076 0
-2.87602e-14 1.00076 0
2.75664e-14 1.00055 0
2.65339e-14 1.00055 0
-1.84675e-14 1 0
-1.54454e-14 1 0
2.75199e-14 1.00076 0
2.3921e-14 1.00076 0
-1.54454e-14 1 0
-2.06449e-14 1 0
2.3921e-14 1.00076 0
2.50758e-14 1.00076 0
-2.87602e-14 1.00076 0
-2.57155e-14 1.00076 0
2.65339e-14 1.00055 0
3.01797e-14 1.00055 0
-2.57155e-14 1.00076 0
-1.3981e-14 1.00076 0
3.01797e-14 1.00055 0
1.60371e-14 1.00055 0
-1.67924e-14 1.00055 0
-2.23845e-14 1.00055 0
2.06233e-14 1.00058 0
2.61908e-14 1.00058 0
-2.23845e-14 1.00055 0
-2.03225e-14 1.00055 0
2.61908e-14 1.00058 0
2.26737e-14 1.00058 0
-1.86875e-14 1.00058 0
-3.1905e-14 1.00058 0
1.66402e-14 1.00055 0
3.51609e-14 1.00055 0
-3.1905e-14 1.00058 0
-1.8489e-14 1.00058 0
3.51609e-14 1.00055 0
3.12184e-14 1.00055 0
-2.03225e-14 1.00055 0
-3.0478e-14 1.00055 0
2.26737e-14 1.00058 0
2.94396e-14 1.00058 0
-3.0478e-14 1.00055 0
-9.65815e-15 1.00055 0
2.94396e-14 1.00058 0
1.6796e-14 1.00058 0
-1.8489e-14 1.00058 0
-2.91548e-14 1.00058 0
3.12184e-14 1.00055 0
2.81011e-14 1.00055 0
-2.91548e-14 1.00058 0
-1.8745e-14 1.00058 0
2.81011e-14 1.00055 0
2.77272e-14 1.00055 0
-2.06449e-14 1 0
-2.36825e-14 1 0
2.50758e-14 1.00076 0
3.50609e-14 1.00076 0
-2.36825e-14 1 0
-1.17338e-14 1 0
3.50609e-14 1.00076 0
2.01971e-14 1.00076 0
-1.3981e-14 1.00076 0
-2.57228e-14 1.00076 0
1.60371e-14 1.00055 0
2.80026e-14 1.00055 0
-2.57228e-14 1.00076 0
-2.87759e-14 1.00076 0
2.80026e-14 1.00055 0
3.91979e-14 1.00055 0
-1.17338e-14 1 0
-1.76761e-14 1 0
2.01971e-14 1.00076 0
2.65542e-14 1.00076 0
-1.76761e-14 1 0
-2.35819e-14 1 0
2.65542e-14 1.00076 0
2.78109e-14 1.00076 0
-2.87759e-14 1.00076 0
-3.23548e-14 1.00076 0
3.91979e-14 1.00055 0
3.36686e-14 1.00055 0
-3.23548e-14 1.00076 0
-2.27944e-14 1.00076 0
3.36686e-14 1.00055 0
3.3055e-14 1.00055 0
-9.65815e-15 1.00055 0
-9.98825e-15 1.00055 0
1.6796e-14 1.00058 0
4.64997e-15 1.00058 0
-9.98825e-15 1.00055 0
-3.34365e-14 1.00055 0
4.64997e-15 1.00058 0
3.37675e-14 1.00058 0
-1.8745e-14 1.00058 0
-2.98466e-15 1.00058 0
2.77272e-14 1.00055 0
1.57929e-14 1.00055 0
-2.98466e-15 1.00058 0
-2.79236e-14 1.00058 0
1.57929e-14 1.00055 0
3.45724e-14 1.00055 0
-3.34365e-14 1.00055 0
-2.30497e-14 1.00055 0
3.37675e-14 1.00058 0
3.65424e-14 1.00058 0
-2.30497e-14 1.00055 0
-2.37671e-14 1.00055 0
3.65424e-14 1.00058 0
2.74246e-14 1.00058 0
-2.79236e-14 1.00058 0
-3.62548e-14 1.00058 0
3.45724e-14 1.00055 0
4.42725e-14 1.00055 0
-3.62548e-14 1.00058 0
-2.59532e-14 1.00058 0
4.42725e-14 1.00055 0
3.5221e-14 1.00055 0
-3.03126e-15 1.00055 0
-2.34572e-14 1.00055 0
1.28294e-14 1.00053 0
2.68672e-14 1.00053 0
-2.34572e-14 1.00055 0
-3.01035e-14 1.00055 0
2.68672e-14 1.00053 0
2.42563e-14 1.00053 0
-2.76003e-14 1.00053 0
-2.95719e-14 1.00053 0
2.65065e-14 1.00051 0
2.50323e-14 1.00051 0
-2.95719e-14 1.00053 0
-1.93695e-14 1.00053 0
2.50323e-14 1.00051 0
2.54509e-14 1.00051 0
-3.01035e-14 1.00055 0
-1.4708e-14 1.00055 0
2.42563e-14 1.00053 0
1.93075e-14 1.00053 0
-1.4708e-14 1.00055 0
-1.84576e-14 1.00055 0
1.93075e-14 1.00053 0
1.66165e-14 1.00053 0
-1.93695e-14 1.00053 0
-3.47611e-14 1.00053 0
2.54509e-14 1.00051 0
4.44928e-14 1.00051 0
-3.47611e-14 1.00053 0
-2.36661e-14 1.00053 0
4.44928e-14 1.00051 0
2.75397e-14 1.00051 0
-2.85782e-14 1.00051 0
-3.52375e-14 1.00051 0
3.32951e-14 1.00049 0
4.23909e-14 1.00049 0
-3.52375e-14 1.00051 0
-4.32428e-14 1.00051 0
4.23909e-14 1.00049 0
3.85716e-14 1.00049 0
-4.06071e-14 1.00049 0
-4.68661e-14 1.00049 0
3.56663e-14 1.00048 0
4.24104e-14 1.00048 0
-4.68661e-14 1.00049 0
-3.42001e-14 1.00049 0
4.24104e-14 1.00048 0
3.86349e-14 1.00048 0
-4.32428e-14 1.00051 0
-4.63455e-14 1.00051 0
3.85716e-14 1.00049 0
3.11556e-14 1.00049 0
-4.63455e-14 1.00051 0
-3.89398e-14 1.00051 0
3.11556e-14 1.00049 0
4.30959e-14 1.00049 0
-3.42001e-14 1.00049 0
-2.06754e-14 1.00049 0
3.86349e-14 1.00048 0
2.49705e-14 1.00048 0
-2.06754e-14 1.00049 0
-4.45301e-14 1.00049 0
2.49705e-14 1.00048 0
3.99569e-14 1.00048 0
-1.84576e-14 1.00055 0
-9.64747e-15 1.00055 0
1.66165e-14 1.00053 0
1.37543e-14 1.00053 0
-9.64747e-15 1.00055 0
-2.78564e-14 1.00055 0
1.37543e-14 1.00053 0
3.75126e-14 1.00053 0
-2.36661e-14 1.00053 0
-1.51542e-14 1.00053 0
2.75397e-14 1.00051 0
1.6153e-14 1.00051 0
-1.51542e-14 1.00053 0
-3.44772e-14 1.00053 0
1.6153e-14 1.00051 0
3.01187e-14 1.00051 0
-2.78564e-14 1.00055 0
-3.66039e-14 1.00055 0
3.75126e-14 1.00053 0
4.52234e-14 1.00053 0
-3.66039e-14 1.00055 0
-1.67625e-14 1.00055 0
4.52234e-14 1.00053 0
2.20011e-14 1.00053 0
-3.44772e-14 1.00053 0
-4.11533e-14 1.00053 0
3.01187e-14 1.00051 0
3.59359e-14 1.00051 0
-4.11533e-14 1.00053 0
-3.03166e-14 1.00053 0
3.59359e-14 1.00051 0
3.49278e-14 1.00051 0
-3.89398e-14 1.00051 0
-2.06382e-14 1.00051 0
4.30959e-14 1.00049 0
1.99872e-14 1.00049 0
-2.06382e-14 1.00051 0
-2.50619e-14 1.00051 0
1.99872e-14 1.00049 0
2.58382e-14 1.00049 0
-4.45301e-14 1.00049 0
-1.79414e-14 1.00049 0
3.99569e-14 1.00048 0
1.68969e-14 1.00048 0
-1.79414e-14 1.00049 0
-3.08001e-14 1.00049 0
1.68969e-14 1.00048 0
3.1086e-14 1.00048 0
-2.50619e-14 1.00051 0
-2.04711e-14 1.00051 0
2.58382e-14 1.00049 0
1.71139e-14 1.00049 0
-2.04711e-14 1.00051 0
-2.53855e-14 1.00051 0
1.71139e-14 1.00049 0
1.54307e-14 1.00049 0
-3.08001e-14 1.00049 0
-3.3288e-14 1.00049 0
3.1086e-14 1.00048 0
3.88123e-14 1.00048 0
-3.3288e-14 1.00049 0
-1.22284e-14 1.00049 0
3.88123e-14 1.00048 0
1.89628e-14 1.00048 0
0 1.00048 0
-4.89492e-15 1.00048 0
0 1.00046 0
-1.05984e-14 1.00046 0
-4.89492e-15 1.00048 0
-1.69901e-14 1.00048 0
-1.05984e-14 1.00046 0
8.0917e-15 1.00046 0
0 1.00046 0
1.02496e-14 1.00046 0
0 1.00044 0
1.08538e-14 1.00044 0
1.02496e-14 1.00046 0
1.67091e-15 1.00046 0
1.08538e-14 1.00044 0
7.12145e-15 1.00044 0
-1.69901e-14 1.00048 0
-1.43496e-14 1.00048 0
8.0917e-15 1.00046 0
1.50067e-14 1.00046 0
-1.43496e-14 1.00048 0
-3.71161e-14 1.00048 0
1.50067e-14 1.00046 0
2.52703e-14 1.00046 0
1.67091e-15 1.00046 0
-1.81116e-14 1.00046 0
7.12145e-15 1.00044 0
2.3085e-14 1.00044 0
-1.81116e-14 1.00046 0
-2.11656e-14 1.00046 0
2.3085e-14 1.00044 0
3.94762e-14 1.00044 0
0 1.00044 0
7.76542e-16 1.00044 0
0 1.00042 0
-9.46291e-16 1.00042 0
7.76542e-16 1.00044 0
-3.01941e-15 1.00044 0
-9.46291e-16 1.00042 0
1.18789e-14 1.00042 0
0 1.00042 0
-2.72497e-15 1.00042 0
0 1.0004 0
8.05391e-15 1.0004 0
-2.72497e-15 1.00042 0
1.67204e-15 1.00042 0
8.05391e-15 1.0004 0
1.70791e-15 1.0004 0
-3.01941e-15 1.00044 0
-2.52405e-14 1.00044 0
1.18789e-14 1.00042 0
2.96358e-14 1.00042 0
-2.52405e-14 1.00044 0
-3.79669e-14 1.00044 0
2.96358e-14 1.00042 0
2.86163e-14 1.00042 0
1.67204e-15 1.00042 0
-2.11084e-14 1.00042 0
1.70791e-15 1.0004 0
2.08348e-14 1.0004 0
-2.11084e-14 1.00042 0
-1.7759e-14 1.00042 0
2.08348e-14 1.0004 0
3.41468e-14 1.0004 0
-3.71161e-14 1.00048 0
-2.12437e-14 1.00048 0
2.52703e-14 1.00046 0
3.01974e-14 1.00046 0
-2.12437e-14 1.00048 0
-4.55194e-14 1.00048 0
3.01974e-14 1.00046 0
4.40018e-14 1.00046 0
-2.11656e-14 1.00046 0
-1.96083e-14 1.00046 0
3.94762e-14 1.00044 0
1.49497e-14 1.00044 0
-1.96083e-14 1.00046 0
-2.15535e-14 1.00046 0
1.49497e-14 1.00044 0
2.38445e-14 1.00044 0
-4.55194e-14 1.00048 0
-2.20103e-14 1.00048 0
4.40018e-14 1.00046 0
2.52533e-14 1.00046 0
-2.20103e-14 1.00048 0
-3.41975e-14 1.00048 0
2.52533e-14 1.00046 0
3.87928e-14 1.00046 0
-2.15535e-14 1.00046 0
-1.5856e-14 1.00046 0
2.38445e-14 1.00044 0
2.52567e-14 1.00044 0
-1.5856e-14 1.00046 0
-3.82039e-14 1.00046 0
2.52567e-14 1.00044 0
4.1267e-14 1.00044 0
-3.79669e-14 1.00044 0
-1.17511e-14 1.00044 0
2.86163e-14 1.00042 0
1.46874e-14 1.00042 0
-1.17511e-14 1.00044 0
-2.7662e-14 1.00044 0
1.46874e-14 1.00042 0
2.48098e-14 1.00042 0
-1.7759e-14 1.00042 0
-1.92383e-14 1.00042 0
3.41468e-14 1.0004 0
2.74182e-14 1.0004 0
-1.92383e-14 1.00042 0
-2.21476e-14 1.00042 0
2.74182e-14 1.0004 0
1.94378e-14 1.0004 0
-2.7662e-14 1.00044 0
-2.8017e-14 1.00044 0
2.48098e-14 1.00042 0
2.56612e-14 1.00042 0
-2.8017e-14 1.00044 0
-3.64227e-14 1.00044 0
2.56612e-14 1.00042 0
2.97936e-14 1.00042 0
-2.21476e-14 1.00042 0
-2.78975e-14 1.00042 0
1.94378e-14 1.0004 0
2.7259e-14 1.0004 0
-2.78975e-14 1.00042 0
-1.74127e-14 1.00042 0
2.7259e-14 1.0004 0
2.64946e-14 1.0004 0
0 1.0004 0
-2.79414e-15 1.0004 0
0 1.00039 0
-1.05942e-16 1.00039 0
-2.79414e-15 1.0004 0
-1.29431e-14 1.0004 0
-1.05942e-16 1.00039 0
6.16795e-15 1.00039 0
0 1.00039 0
-5.29489e-15 1.00039 0
0 1.00037 0
3.87202e-15 1.00037 0
-5.29489e-15 1.00039 0
-5.25953e-15 1.00039 0
3.87202e-15 1.00037 0
4.74261e-15 1.00037 0
-1.29431e-14 1.0004 0
-2.88593e-14 1.0004 0
6.16795e-15 1.00039 0
2.2161e-14 1.00039 0
-2.88593e-14 1.0004 0
-5.58477e-14 1.0004 0
2.2161e-14 1.00039 0
5.06632e-14 1.00039 0
-5.25953e-15 1.00039 0
-2.36507e-14 1.00039 0
4.74261e-15 1.00037 0
3.11495e-14 1.00037 0
-2.36507e-14 1.00039 0
-4.17078e-14 1.00039 0
3.11495e-14 1.00037 0
4.45267e-14 1.00037 0
0 1.00037 0
-3.56997e-15 1.00037 0
0 1.00035 0
-2.10611e-15 1.00035 0
-3.56997e-15 1.00037 0
6.27534e-15 1.00037 0
-2.10611e-15 1.00035 0
-2.89076e-15 1.00035 0
0 1.00035 0
3.3564e-15 1.00035 0
0 1.00034 0
-1.55334e-15 1.00034 0
3.3564e-15 1.00035 0
-8.53922e-15 1.00035 0
-1.55334e-15 1.00034 0
2.58078e-15 1.00034 0
6.27534e-15 1.00037 0
-2.72206e-14 1.00037 0
-2.89076e-15 1.00035 0
2.43461e-14 1.00035 0
-2.72206e-14 1.00037 0
-4.58679e-14 1.00037 0
2.43461e-14 1.00035 0
4.44904e-14 1.00035 0
-8.53922e-15 1.00035 0
-2.6537e-14 1.00035 0
2.58078e-15 1.00034 0
2.65569e-14 1.00034 0
-2.6537e-14 1.00035 0
-3.72971e-14 1.00035 0
2.65569e-14 1.00034 0
3.37989e-14 1.00034 0
-5.58477e-14 1.0004 0
-2.81756e-14 1.0004 0
5.06632e-14 1.00039 0
2.67209e-14 1.00039 0
-2.81756e-14 1.0004 0
-1.45871e-14 1.0004 0
2.67209e-14 1.00039 0
2.13934e-14 1.00039 0
-4.17078e-14 1.00039 0
-2.57635e-14 1.00039 0
4.45267e-14 1.00037 0
2.74563e-14 1.00037 0
-2.57635e-14 1.00039 0
-2.71801e-14 1.00039 0
2.74563e-14 1.00037 0
3.46103e-14 1.00037 0
-1.45871e-14 1.0004 0
-2.08321e-14 1.0004 0
2.13934e-14 1.00039 0
2.18728e-14 1.00039 0
-2.08321e-14 1.0004 0
-3.47581e-14 1.0004 0
2.18728e-14 1.00039 0
3.12674e-14 1.00039 0
-2.71801e-14 1.00039 0
-1.8596e-14 1.00039 0
3.46103e-14 1.00037 0
3.07415e-14 1.00037 0
-1.8596e-14 1.00039 0
-2.21229e-14 1.00039 0
3.07415e-14 1.00037 0
3.53401e-14 1.00037 0
-4.58679e-14 1.00037 0
-1.85349e-14 1.00037 0
4.44904e-14 1.00035 0
2.18118e-14 1.00035 0
-1.85349e-14 1.00037 0
-2.43268e-14 1.00037 0
2.18118e-14 1.00035 0
2.44796e-14 1.00035 0
-3.72971e-14 1.00035 0
-2.58387e-14 1.00035 0
3.37989e-14 1.00034 0
2.3685e-14 1.00034 0
-2.58387e-14 1.00035 0
-2.74596e-14 1.00035 0
2.3685e-14 1.00034 0
2.60494e-14 1.00034 0
-2.43268e-14 1.00037 0
-2.54152e-14 1.00037 0
2.44796e-14 1.00035 0
2.30323e-14 1.00035 0
-2.54152e-14 1.00037 0
-3.72783e-14 1.00037 0
2.30323e-14 1.00035 0
3.66191e-14 1.00035 0
-2.74596e-14 1.00035 0
-2.46029e-14 1.00035 0
2.60494e-14 1.00034 0
2.71535e-14 1.00034 0
-2.46029e-14 1.00035 0
-2.91054e-14 1.00035 0
2.71535e-14 1.00034 0
3.20378e-14 1.00034 0
-3.41975e-14 1.00048 0
-4.51696e-14 1.00048 0
3.87928e-14 1.00046 0
5.06107e-14 1.00046 0
-4.51696e-14 1.00048 0
-3.95992e-14 1.00048 0
5.06107e-14 1.00046 0
3.82805e-14 1.00046 0
-3.82039e-14 1.00046 0
-4.31964e-14 1.00046 0
4.1267e-14 1.00044 0
3.88442e-14 1.00044 0
-4.31964e-14 1.00046 0
-2.83594e-14 1.00046 0
3.88442e-14 1.00044 0
3.08945e-14 1.00044 0
-3.95992e-14 1.00048 0
-2.40605e-14 1.00048 0
3.82805e-14 1.00046 0
3.34878e-14 1.00046 0
-2.40605e-14 1.00048 0
-3.50444e-14 1.00048 0
3.34878e-14 1.00046 0
3.084e-14 1.00046 0
-2.83594e-14 1.00046 0
-3.64e-14 1.00046 0
3.08945e-14 1.00044 0
3.56182e-14 1.00044 0
-3.64e-14 1.00046 0
-2.66524e-14 1.00046 0
3.56182e-14 1.00044 0
3.83699e-14 1.00044 0
-3.64227e-14 1.00044 0
-3.38666e-14 1.00044 0
2.97936e-14 1.00042 0
4.10985e-14 1.00042 0
-3.38666e-14 1.00044 0
-3.1991e-14 1.00044 0
4.10985e-14 1.00042 0
2.9423e-14 1.00042 0
-1.74127e-14 1.00042 0
-2.7496e-14 1.00042 0
2.64946e-14 1.0004 0
3.8154e-14 1.0004 0
-2.7496e-14 1.00042 0
-1.35342e-14 1.00042 0
3.8154e-14 1.0004 0
2.57811e-14 1.0004 0
-3.1991e-14 1.00044 0
-2.6913e-14 1.00044 0
2.9423e-14 1.00042 0
2.5841e-14 1.00042 0
-2.6913e-14 1.00044 0
-3.75316e-14 1.00044 0
2.5841e-14 1.00042 0
4.07242e-14 1.00042 0
-1.35342e-14 1.00042 0
-1.81394e-14 1.00042 0
2.57811e-14 1.0004 0
3.43791e-14 1.0004 0
-1.81394e-14 1.00042 0
-3.03522e-14 1.00042 0
3.43791e-14 1.0004 0
3.43136e-14 1.0004 0
-3.50444e-14 1.00048 0
-1.78084e-14 1.00048 0
3.084e-14 1.00046 0
1.60503e-14 1.00046 0
-1.78084e-14 1.00048 0
-1.60422e-14 1.00048 0
1.60503e-14 1.00046 0
1.60438e-14 1.00046 0
-2.66524e-14 1.00046 0
-1.11252e-14 1.00046 0
3.83699e-14 1.00044 0
1.87151e-14 1.00044 0
-1.11252e-14 1.00046 0
-4.02546e-15 1.00046 0
1.87151e-14 1.00044 0
4.82596e-15 1.00044 0
-1.60422e-14 1.00048 0
-2.37654e-14 1.00048 0
1.60438e-14 1.00046 0
1.83765e-14 1.00046 0
-2.37654e-14 1.00048 0
-1.5993e-14 1.00048 0
1.83765e-14 1.00046 0
2.12167e-14 1.00046 0
-4.02546e-15 1.00046 0
9.30744e-16 1.00046 0
4.82596e-15 1.00044 0
5.41617e-15 1.00044 0
9.30744e-16 1.00046 0
-1.44211e-14 1.00046 0
5.41617e-15 1.00044 0
2.06187e-14 1.00044 0
-3.75316e-14 1.00044 0
-2.25467e-14 1.00044 0
4.07242e-14 1.00042 0
2.03959e-14 1.00042 0
-2.25467e-14 1.00044 0
-2.66779e-14 1.00044 0
2.03959e-14 1.00042 0
3.7024e-14 1.00042 0
-3.03522e-14 1.00042 0
-1.80664e-15 1.00042 0
3.43136e-14 1.0004 0
1.67831e-14 1.0004 0
-1.80664e-15 1.00042 0
-2.94636e-14 1.00042 0
1.67831e-14 1.0004 0
3.62184e-14 1.0004 0
-2.66779e-14 1.00044 0
-1.34462e-14 1.00044 0
3.7024e-14 1.00042 0
1.52499e-14 1.00042 0
-1.34462e-14 1.00044 0
-2.0885e-14 1.00044 0
1.52499e-14 1.00042 0
2.02715e-14 1.00042 0
-2.94636e-14 1.00042 0
-3.1655e-15 1.00042 0
3.62184e-14 1.0004 0
1.05273e-14 1.0004 0
-3.1655e-15 1.00042 0
-5.99972e-15 1.00042 0
1.05273e-14 1.0004 0
1.05237e-14 1.0004 0
-3.47581e-14 1.0004 0
-4.64963e-14 1.0004 0
3.12674e-14 1.00039 0
4.04901e-14 1.00039 0
-4.64963e-14 1.0004 0
-3.23601e-14 1.0004 0
4.04901e-14 1.00039 0
3.39901e-14 1.00039 0
-2.21229e-14 1.00039 0
-2.74883e-14 1.00039 0
3.53401e-14 1.00037 0
2.84948e-14 1.00037 0
-2.74883e-14 1.00039 0
-2.39364e-14 1.00039 0
2.84948e-14 1.00037 0
2.39932e-14 1.00037 0
-3.23601e-14 1.0004 0
-4.32108e-14 1.0004 0
3.39901e-14 1.00039 0
3.9542e-14 1.00039 0
-4.32108e-14 1.0004 0