# vtk DataFile Version 3.0
#This file was generated by the deal.II library on 2018/10/15 at 4:37:50
ASCII
DATASET UNSTRUCTURED_GRID

POINTS 20480 double
0 0 0
0.19635 0 0
0 0.307417 0
0.19635 0.307417 0
0.19635 0 0
0.392699 0 0
0.19635 0.307417 0
0.392699 0.307417 0
0 0.307417 0
0.19635 0.307417 0
0 0.62013 0
0.19635 0.62013 0
0.19635 0.307417 0
0.392699 0.307417 0
0.19635 0.62013 0
0.392699 0.62013 0
0.392699 0 0
0.589049 0 0
0.392699 0.307417 0
0.589049 0.307417 0
0.589049 0 0
0.785398 0 0
0.589049 0.307417 0
0.785398 0.307417 0
0.392699 0.307417 0
0.589049 0.307417 0
0.392699 0.62013 0
0.589049 0.62013 0
0.589049 0.307417 0
0.785398 0.307417 0
0.589049 0.62013 0
0.785398 0.62013 0
0 0.62013 0
0.19635 0.62013 0
0 0.932667 0
0.19635 0.932667 0
0.19635 0.62013 0
0.392699 0.62013 0
0.19635 0.932667 0
0.392699 0.932667 0
0 0.932667 0
0.19635 0.932667 0
0 1.24539 0
0.19635 1.24539 0
0.19635 0.932667 0
0.392699 0.932667 0
0.19635 1.24539 0
0.392699 1.24539 0
0.392699 0.62013 0
0.589049 0.62013 0
0.392699 0.932667 0
0.589049 0.932667 0
0.589049 0.62013 0
0.785398 0.62013 0
0.589049 0.932667 0
0.785398 0.932667 0
0.392699 0.932667 0
0.589049 0.932667 0
0.392699 1.24539 0
0.589049 1.24539 0
0.589049 0.932667 0
0.785398 0.932667 0
0.589049 1.24539 0
0.785398 1.24539 0
0.785398 0 0
0.981748 0 0
0.785398 0.307417 0
0.981748 0.307417 0
0.981748 0 0
1.1781 0 0
0.981748 0.307417 0
1.1781 0.307417 0
0.785398 0.307417 0
0.981748 0.307417 0
0.785398 0.62013 0
0.981748 0.62013 0
0.981748 0.307417 0
1.1781 0.307417 0
0.981748 0.62013 0
1.1781 0.62013 0
1.1781 0 0
1.37445 0 0
1.1781 0.307417 0
1.37445 0.307417 0
1.37445 0 0
1.5708 0 0
1.37445 0.307417 0
1.5708 0.307417 0
1.1781 0.307417 0
1.37445 0.307417 0
1.1781 0.62013 0
1.37445 0.62013 0
1.37445 0.307417 0
1.5708 0.307417 0
1.37445 0.62013 0
1.5708 0.62013 0
0.785398 0.62013 0
0.981748 0.62013 0
0.785398 0.932667 0
0.981748 0.932667 0
0.981748 0.62013 0
1.1781 0.62013 0
0.981748 0.932667 0
1.1781 0.932667 0
0.785398 0.932667 0
0.981748 0.932667 0
0.785398 1.24539 0
0.981748 1.24539 0
0.981748 0.932667 0
1.1781 0.932667 0
0.981748 1.24539 0
1.1781 1.24539 0
1.1781 0.62013 0
1.37445 0.62013 0
1.1781 0.932667 0
1.37445 0.932667 0
1.37445 0.62013 0
1.5708 0.62013 0
1.37445 0.932667 0
1.5708 0.932667 0
1.1781 0.932667 0
1.37445 0.932667 0
1.1781 1.24539 0
1.37445 1.24539 0
1.37445 0.932667 0
1.5708 0.932667 0
1.37445 1.24539 0
1.5708 1.24539 0
0 1.24539 0
0.19635 1.24539 0
0 1.55807 0
0.19635 1.55807 0
0.19635 1.24539 0
0.392699 1.24539 0
0.19635 1.55807 0
0.392699 1.55807 0
0 1.55807 0
0.19635 1.55807 0
0 1.87077 0
0.19635 1.87077 0
0.19635 1.55807 0
0.392699 1.55807 0
0.19635 1.87077 0
0.392699 1.87077 0
0.392699 1.24539 0
0.589049 1.24539 0
0.392699 1.55807 0
0.589049 1.55807 0
0.589049 1.24539 0
0.785398 1.24539 0
0.589049 1.55807 0
0.785398 1.55807 0
0.392699 1.55807 0
0.589049 1.55807 0
0.392699 1.87077 0
0.589049 1.87077 0
0.589049 1.55807 0
0.785398 1.55807 0
0.589049 1.87077 0
0.785398 1.87077 0
0 1.87077 0
0.19635 1.87077 0
0 2.18345 0
0.19635 2.18345 0
0.19635 1.87077 0
0.392699 1.87077 0
0.19635 2.18345 0
0.392699 2.18345 0
0 2.18345 0
0.19635 2.18345 0
0 2.49613 0
0.19635 2.49613 0
0.19635 2.18345 0
0.392699 2.18345 0
0.19635 2.49613 0
0.392699 2.49613 0
0.392699 1.87077 0
0.589049 1.87077 0
0.392699 2.18345 0
0.589049 2.18345 0
0.589049 1.87077 0
0.785398 1.87077 0
0.589049 2.18345 0
0.785398 2.18345 0
0.392699 2.18345 0
0.589049 2.18345 0
0.392699 2.49613 0
0.589049 2.49613 0
0.589049 2.18345 0
0.785398 2.18345 0
0.589049 2.49613 0
0.785398 2.49613 0
0.785398 1.24539 0
0.981748 1.24539 0
0.785398 1.55807 0
0.981748 1.55807 0
0.981748 1.24539 0
1.1781 1.24539 0
0.981748 1.55807 0
1.1781 1.55807 0
0.785398 1.55807 0
0.981748 1.55807 0
0.785398 1.87077 0
0.981748 1.87077 0
0.981748 1.55807 0
1.1781 1.55807 0
0.981748 1.87077 0
1.1781 1.87077 0
1.1781 1.24539 0
1.37445 1.24539 0
1.1781 1.55807 0
1.37445 1.55807 0
1.37445 1.24539 0
1.5708 1.24539 0
1.37445 1.55807 0
1.5708 1.55807 0
1.1781 1.55807 0
1.37445 1.55807 0
1.1781 1.87077 0
1.37445 1.87077 0
1.37445 1.55807 0
1.5708 1.55807 0
1.37445 1.87077 0
1.5708 1.87077 0
0.785398 1.87077 0
0.981748 1.87077 0
0.785398 2.18345 0
0.981748 2.18345 0
0.981748 1.87077 0
1.1781 1.87077 0
0.981748 2.18345 0
1.1781 2.18345 0
0.785398 2.18345 0
0.981748 2.18345 0
0.785398 2.49613 0
0.981748 2.49613 0
0.981748 2.18345 0
1.1781 2.18345 0
0.981748 2.49613 0
1.1781 2.49613 0
1.1781 1.87077 0
1.37445 1.87077 0
1.1781 2.18345 0
1.37445 2.18345 0
1.37445 1.87077 0
1.5708 1.87077 0
1.37445 2.18345 0
1.5708 2.18345 0
1.1781 2.18345 0
1.37445 2.18345 0
1.1781 2.49613 0
1.37445 2.49613 0
1.37445 2.18345 0
1.5708 2.18345 0
1.37445 2.49613 0
1.5708 2.49613 0
1.5708 0 0
1.76715 0 0
1.5708 0.307417 0
1.76715 0.307417 0
1.76715 0 0
1.9635 0 0
1.76715 0.307417 0
1.9635 0.307417 0
1.5708 0.307417 0
1.76715 0.307417 0
1.5708 0.62013 0
1.76715 0.62013 0
1.76715 0.307417 0
1.9635 0.307417 0
1.76715 0.62013 0
1.9635 0.62013 0
1.9635 0 0
2.15984 0 0
1.9635 0.307417 0
2.15984 0.307417 0
2.15984 0 0
2.35619 0 0
2.15984 0.307417 0
2.35619 0.307417 0
1.9635 0.307417 0
2.15984 0.307417 0
1.9635 0.62013 0
2.15984 0.62013 0
2.15984 0.307417 0
2.35619 0.307417 0
2.15984 0.62013 0
2.35619 0.62013 0
1.5708 0.62013 0
1.76715 0.62013 0
1.5708 0.932667 0
1.76715 0.932667 0
1.76715 0.62013 0
1.9635 0.62013 0
1.76715 0.932667 0
1.9635 0.932667 0
1.5708 0.932667 0
1.76715 0.932667 0
1.5708 1.24539 0
1.76715 1.24539 0
1.76715 0.932667 0
1.9635 0.932667 0
1.76715 1.24539 0
1.9635 1.24539 0
1.9635 0.62013 0
2.15984 0.62013 0
1.9635 0.932667 0
2.15984 0.932667 0
2.15984 0.62013 0
2.35619 0.62013 0
2.15984 0.932667 0
2.35619 0.932667 0
1.9635 0.932667 0
2.15984 0.932667 0
1.9635 1.24539 0
2.15984 1.24539 0
2.15984 0.932667 0
2.35619 0.932667 0
2.15984 1.24539 0
2.35619 1.24539 0
2.35619 0 0
2.55254 0 0
2.35619 0.307417 0
2.55254 0.307417 0
2.55254 0 0
2.74889 0 0
2.55254 0.307417 0
2.74889 0.307417 0
2.35619 0.307417 0
2.55254 0.307417 0
2.35619 0.62013 0
2.55254 0.62013 0
2.55254 0.307417 0
2.74889 0.307417 0
2.55254 0.62013 0
2.74889 0.62013 0
2.74889 0 0
2.94524 0 0
2.74889 0.307417 0
2.94524 0.307417 0
2.94524 0 0
3.14159 0 0
2.94524 0.307417 0
3.14159 0.307417 0
2.74889 0.307417 0
2.94524 0.307417 0
2.74889 0.62013 0
2.94524 0.62013 0
2.94524 0.307417 0
3.14159 0.307417 0
2.94524 0.62013 0
3.14159 0.62013 0
2.35619 0.62013 0
2.55254 0.62013 0
2.35619 0.932667 0
2.55254 0.932667 0
2.55254 0.62013 0
2.74889 0.62013 0
2.55254 0.932667 0
2.74889 0.932667 0
2.35619 0.932667 0
2.55254 0.932667 0
2.35619 1.24539 0
2.55254 1.24539 0
2.55254 0.932667 0
2.74889 0.932667 0
2.55254 1.24539 0
2.74889 1.24539 0
2.74889 0.62013 0
2.94524 0.62013 0
2.74889 0.932667 0
2.94524 0.932667 0
2.94524 0.62013 0
3.14159 0.62013 0
2.94524 0.932667 0
3.14159 0.932667 0
2.74889 0.932667 0
2.94524 0.932667 0
2.74889 1.24539 0
2.94524 1.24539 0
2.94524 0.932667 0
3.14159 0.932667 0
2.94524 1.24539 0
3.14159 1.24539 0
1.5708 1.24539 0
1.76715 1.24539 0
1.5708 1.55807 0
1.76715 1.55807 0
1.76715 1.24539 0
1.9635 1.24539 0
1.76715 1.55807 0
1.9635 1.55807 0
1.5708 1.55807 0
1.76715 1.55807 0
1.5708 1.87077 0
1.76715 1.87077 0
1.76715 1.55807 0
1.9635 1.55807 0
1.76715 1.87077 0
1.9635 1.87077 0
1.9635 1.24539 0
2.15984 1.24539 0
1.9635 1.55807 0
2.15984 1.55807 0
2.15984 1.24539 0
2.35619 1.24539 0
2.15984 1.55807 0
2.35619 1.55807 0
1.9635 1.55807 0
2.15984 1.55807 0
1.9635 1.87077 0
2.15984 1.87077 0
2.15984 1.55807 0
2.35619 1.55807 0
2.15984 1.87077 0
2.35619 1.87077 0
1.5708 1.87077 0
1.76715 1.87077 0
1.5708 2.18345 0
1.76715 2.18345 0
1.76715 1.87077 0
1.9635 1.87077 0
1.76715 2.18345 0
1.9635 2.18345 0
1.5708 2.18345 0
1.76715 2.18345 0
1.5708 2.49613 0
1.76715 2.49613 0
1.76715 2.18345 0
1.9635 2.18345 0
1.76715 2.49613 0
1.9635 2.49613 0
1.9635 1.87077 0
2.15984 1.87077 0
1.9635 2.18345 0
2.15984 2.18345 0
2.15984 1.87077 0
2.35619 1.87077 0
2.15984 2.18345 0
2.35619 2.18345 0
1.9635 2.18345 0
2.15984 2.18345 0
1.9635 2.49613 0
2.15984 2.49613 0
2.15984 2.18345 0
2.35619 2.18345 0
2.15984 2.49613 0
2.35619 2.49613 0
2.35619 1.24539 0
2.55254 1.24539 0
2.35619 1.55807 0
2.55254 1.55807 0
2.55254 1.24539 0
2.74889 1.24539 0
2.55254 1.55807 0
2.74889 1.55807 0
2.35619 1.55807 0
2.55254 1.55807 0
2.35619 1.87077 0
2.55254 1.87077 0
2.55254 1.55807 0
2.74889 1.55807 0
2.55254 1.87077 0
2.74889 1.87077 0
2.74889 1.24539 0
2.94524 1.24539 0
2.74889 1.55807 0
2.94524 1.55807 0
2.94524 1.24539 0
3.14159 1.24539 0
2.94524 1.55807 0
3.14159 1.55807 0
2.74889 1.55807 0
2.94524 1.55807 0
2.74889 1.87077 0
2.94524 1.87077 0
2.94524 1.55807 0
3.14159 1.55807 0
2.94524 1.87077 0
3.14159 1.87077 0
2.35619 1.87077 0
2.55254 1.87077 0
2.35619 2.18345 0
2.55254 2.18345 0
2.55254 1.87077 0
2.74889 1.87077 0
2.55254 2.18345 0
2.74889 2.18345 0
2.35619 2.18345 0
2.55254 2.18345 0
2.35619 2.49613 0
2.55254 2.49613 0
2.55254 2.18345 0
2.74889 2.18345 0
2.55254 2.49613 0
2.74889 2.49613 0
2.74889 1.87077 0
2.94524 1.87077 0
2.74889 2.18345 0
2.94524 2.18345 0
2.94524 1.87077 0
3.14159 1.87077 0
2.94524 2.18345 0
3.14159 2.18345 0
2.74889 2.18345 0
2.94524 2.18345 0
2.74889 2.49613 0
2.94524 2.49613 0
2.94524 2.18345 0
3.14159 2.18345 0
2.94524 2.49613 0
3.14159 2.49613 0
0 2.49613 0
0.19635 2.49613 0
0 2.80881 0
0.19635 2.80881 0
0.19635 2.49613 0
0.392699 2.49613 0
0.19635 2.80881 0
0.392699 2.80881 0
0 2.80881 0
0.19635 2.80881 0
0 3.12149 0
0.19635 3.12149 0
0.19635 2.80881 0
0.392699 2.80881 0
0.19635 3.12149 0
0.392699 3.12149 0
0.392699 2.49613 0
0.589049 2.49613 0
0.392699 2.80881 0
0.589049 2.80881 0
0.589049 2.49613 0
0.785398 2.49613 0
0.589049 2.80881 0
0.785398 2.80881 0
0.392699 2.80881 0
0.589049 2.80881 0
0.392699 3.12149 0
0.589049 3.12149 0
0.589049 2.80881 0
0.785398 2.80881 0
0.589049 3.12149 0
0.785398 3.12149 0
0 3.12149 0
0.19635 3.12149 0
0 3.43416 0
0.19635 3.43416 0
0.19635 3.12149 0
0.392699 3.12149 0
0.19635 3.43416 0
0.392699 3.43416 0
0 3.43416 0
0.19635 3.43416 0
0 3.74683 0
[...]
POINT_DATA 20480
VECTORS uf double
0 1 0
-8.16461e-15 1 0
0 1.00081 0
1.21537e-14 1.00081 0
-8.16461e-15 1 0
1.25368e-15 1 0
1.21537e-14 1.00081 0
4.6486e-16 1.00081 0
0 1.00081 0
-1.43452e-14 1.00081 0
0 1.00059 0
1.70448e-14 1.00059 0
-1.43452e-14 1.00081 0
-1.48487e-14 1.00081 0
1.70448e-14 1.00059 0
1.90849e-14 1.00059 0
1.25368e-15 1 0
-1.15602e-14 1 0
4.6486e-16 1.00081 0
1.50012e-14 1.00081 0
-1.15602e-14 1 0
-1.06711e-14 1 0
1.50012e-14 1.00081 0
1.37059e-14 1.00081 0
-1.48487e-14 1.00081 0
-1.87056e-14 1.00081 0
1.90849e-14 1.00059 0
1.70827e-14 1.00059 0
-1.87056e-14 1.00081 0
-6.60967e-15 1.00081 0
1.70827e-14 1.00059 0
5.13781e-15 1.00059 0
0 1.00059 0
-2.27997e-14 1.00059 0
0 1.00062 0
2.252e-14 1.00062 0
-2.27997e-14 1.00059 0
-1.88286e-14 1.00059 0
2.252e-14 1.00062 0
1.53941e-14 1.00062 0
0 1.00062 0
-1.53166e-14 1.00062 0
0 1.00059 0
3.70675e-15 1.00059 0
-1.53166e-14 1.00062 0
-1.43258e-14 1.00062 0
3.70675e-15 1.00059 0
5.3732e-15 1.00059 0
-1.88286e-14 1.00059 0
-2.14995e-14 1.00059 0
1.53941e-14 1.00062 0
2.54075e-14 1.00062 0
-2.14995e-14 1.00059 0
-1.41343e-14 1.00059 0
2.54075e-14 1.00062 0
1.39046e-14 1.00062 0
-1.43258e-14 1.00062 0
-1.22767e-14 1.00062 0
5.3732e-15 1.00059 0
6.77008e-15 1.00059 0
-1.22767e-14 1.00062 0
-7.20963e-15 1.00062 0
6.77008e-15 1.00059 0
7.95512e-15 1.00059 0
-1.06711e-14 1 0
-2.60425e-14 1 0
1.37059e-14 1.00081 0
5.21426e-14 1.00081 0
-2.60425e-14 1 0
-1.52953e-14 1 0
5.21426e-14 1.00081 0
2.86381e-14 1.00081 0
-6.60967e-15 1.00081 0
-5.31745e-14 1.00081 0
5.13781e-15 1.00059 0
2.41701e-14 1.00059 0
-5.31745e-14 1.00081 0
-3.86422e-14 1.00081 0
2.41701e-14 1.00059 0
2.65729e-14 1.00059 0
-1.52953e-14 1 0
-1.47376e-14 1 0
2.86381e-14 1.00081 0
2.47232e-14 1.00081 0
-1.47376e-14 1 0
-9.28923e-15 1 0
2.47232e-14 1.00081 0
2.27797e-14 1.00081 0
-3.86422e-14 1.00081 0
-2.90062e-14 1.00081 0
2.65729e-14 1.00059 0
2.66797e-14 1.00059 0
-2.90062e-14 1.00081 0
-1.35419e-14 1.00081 0
2.66797e-14 1.00059 0
6.15807e-15 1.00059 0
-1.41343e-14 1.00059 0
-1.10664e-14 1.00059 0
1.39046e-14 1.00062 0
2.03081e-14 1.00062 0
-1.10664e-14 1.00059 0
-1.32257e-14 1.00059 0
2.03081e-14 1.00062 0
1.68717e-14 1.00062 0
-7.20963e-15 1.00062 0
-1.56469e-14 1.00062 0
7.95512e-15 1.00059 0
1.25814e-14 1.00059 0
-1.56469e-14 1.00062 0
-1.49822e-14 1.00062 0
1.25814e-14 1.00059 0
1.12919e-14 1.00059 0
-1.32257e-14 1.00059 0
-1.23919e-14 1.00059 0
1.68717e-14 1.00062 0
1.03068e-14 1.00062 0
-1.23919e-14 1.00059 0
-1.75565e-14 1.00059 0
1.03068e-14 1.00062 0
2.18751e-14 1.00062 0
-1.49822e-14 1.00062 0
-1.07553e-14 1.00062 0
1.12919e-14 1.00059 0
1.97733e-14 1.00059 0
-1.07553e-14 1.00062 0
-1.48384e-14 1.00062 0
1.97733e-14 1.00059 0
1.28553e-14 1.00059 0
0 1.00059 0
3.48804e-15 1.00059 0
0 1.00057 0
6.4833e-16 1.00057 0
3.48804e-15 1.00059 0
-5.74306e-15 1.00059 0
6.4833e-16 1.00057 0
1.58664e-14 1.00057 0
0 1.00057 0
-1.88731e-15 1.00057 0
0 1.00055 0
9.88664e-15 1.00055 0
-1.88731e-15 1.00057 0
-6.64705e-15 1.00057 0
9.88664e-15 1.00055 0
2.24039e-14 1.00055 0
-5.74306e-15 1.00059 0
-1.6374e-14 1.00059 0
1.58664e-14 1.00057 0
3.03744e-14 1.00057 0
-1.6374e-14 1.00059 0
-9.8952e-15 1.00059 0
3.03744e-14 1.00057 0
1.4263e-14 1.00057 0
-6.64705e-15 1.00057 0
-2.7891e-14 1.00057 0
2.24039e-14 1.00055 0
2.75219e-14 1.00055 0
-2.7891e-14 1.00057 0
-1.76068e-14 1.00057 0
2.75219e-14 1.00055 0
2.34345e-14 1.00055 0
0 1.00055 0
-1.57277e-14 1.00055 0
0 1.00053 0
5.60952e-15 1.00053 0
-1.57277e-14 1.00055 0
-4.21934e-14 1.00055 0
5.60952e-15 1.00053 0
1.82427e-14 1.00053 0
0 1.00053 0
3.85413e-15 1.00053 0
0 1.00051 0
8.55501e-15 1.00051 0
3.85413e-15 1.00053 0
-8.04951e-15 1.00053 0
8.55501e-15 1.00051 0
1.05479e-14 1.00051 0
-4.21934e-14 1.00055 0
-2.5188e-14 1.00055 0
1.82427e-14 1.00053 0
1.64252e-14 1.00053 0
-2.5188e-14 1.00055 0
-3.48262e-14 1.00055 0
1.64252e-14 1.00053 0
3.24846e-14 1.00053 0
-8.04951e-15 1.00053 0
-1.93503e-14 1.00053 0
1.05479e-14 1.00051 0
1.80761e-14 1.00051 0
-1.93503e-14 1.00053 0
-2.80088e-14 1.00053 0
1.80761e-14 1.00051 0
2.54331e-14 1.00051 0
-9.8952e-15 1.00059 0
-3.47675e-15 1.00059 0
1.4263e-14 1.00057 0
7.27308e-15 1.00057 0
-3.47675e-15 1.00059 0
7.79579e-15 1.00059 0
7.27308e-15 1.00057 0
-4.18134e-15 1.00057 0
-1.76068e-14 1.00057 0
-1.70808e-14 1.00057 0
2.34345e-14 1.00055 0
2.45656e-14 1.00055 0
-1.70808e-14 1.00057 0
-1.32718e-14 1.00057 0
2.45656e-14 1.00055 0
1.64103e-14 1.00055 0
7.79579e-15 1.00059 0
-1.5826e-14 1.00059 0
-4.18134e-15 1.00057 0
2.35713e-14 1.00057 0
-1.5826e-14 1.00059 0
-3.29017e-15 1.00059 0
2.35713e-14 1.00057 0
1.24769e-14 1.00057 0
-1.32718e-14 1.00057 0
-2.71698e-14 1.00057 0
1.64103e-14 1.00055 0
2.65736e-14 1.00055 0
-2.71698e-14 1.00057 0
-1.99663e-14 1.00057 0
2.65736e-14 1.00055 0
2.5989e-14 1.00055 0
-3.48262e-14 1.00055 0
-2.45708e-14 1.00055 0
3.24846e-14 1.00053 0
2.28063e-14 1.00053 0
-2.45708e-14 1.00055 0
-1.95261e-14 1.00055 0
2.28063e-14 1.00053 0
2.78077e-14 1.00053 0
-2.80088e-14 1.00053 0
-2.06303e-14 1.00053 0
2.54331e-14 1.00051 0
1.82144e-14 1.00051 0
-2.06303e-14 1.00053 0
-3.12688e-14 1.00053 0
1.82144e-14 1.00051 0
2.77779e-14 1.00051 0
-1.95261e-14 1.00055 0
-3.67171e-14 1.00055 0
2.78077e-14 1.00053 0
3.91709e-14 1.00053 0
-3.67171e-14 1.00055 0
-3.83834e-14 1.00055 0
3.91709e-14 1.00053 0
3.14965e-14 1.00053 0
-3.12688e-14 1.00053 0
-3.01714e-14 1.00053 0
2.77779e-14 1.00051 0
2.21214e-14 1.00051 0
-3.01714e-14 1.00053 0
-2.68883e-14 1.00053 0
2.21214e-14 1.00051 0
2.65734e-14 1.00051 0
-9.28923e-15 1 0
-2.40103e-14 1 0
2.27797e-14 1.00081 0
4.03e-14 1.00081 0
-2.40103e-14 1 0
-1.43739e-14 1 0
4.03e-14 1.00081 0
2.68422e-14 1.00081 0
-1.35419e-14 1.00081 0
-3.07838e-14 1.00081 0
6.15807e-15 1.00059 0
1.52944e-14 1.00059 0
-3.07838e-14 1.00081 0
-3.41631e-14 1.00081 0
1.52944e-14 1.00059 0
2.45701e-14 1.00059 0
-1.43739e-14 1 0
-1.12595e-14 1 0
2.68422e-14 1.00081 0
-1.32594e-15 1.00081 0
-1.12595e-14 1 0
-1.80559e-14 1 0
-1.32594e-15 1.00081 0
2.47838e-14 1.00081 0
-3.41631e-14 1.00081 0
-1.01217e-15 1.00081 0
2.45701e-14 1.00059 0
1.83089e-14 1.00059 0
-1.01217e-15 1.00081 0
-1.5319e-14 1.00081 0
1.83089e-14 1.00059 0
1.88727e-14 1.00059 0
-1.75565e-14 1.00059 0
-1.81244e-14 1.00059 0
2.18751e-14 1.00062 0
3.28015e-14 1.00062 0
-1.81244e-14 1.00059 0
-2.45875e-14 1.00059 0
3.28015e-14 1.00062 0
3.73868e-14 1.00062 0
-1.48384e-14 1.00062 0
-2.4817e-14 1.00062 0
1.28553e-14 1.00059 0
2.24868e-14 1.00059 0
-2.4817e-14 1.00062 0
-2.56777e-14 1.00062 0
2.24868e-14 1.00059 0
2.6819e-14 1.00059 0
-2.45875e-14 1.00059 0
-1.38122e-14 1.00059 0
3.73868e-14 1.00062 0
1.74549e-14 1.00062 0
-1.38122e-14 1.00059 0
-8.67802e-15 1.00059 0
1.74549e-14 1.00062 0
1.64753e-14 1.00062 0
-2.56777e-14 1.00062 0
-1.39149e-14 1.00062 0
2.6819e-14 1.00059 0
2.22051e-14 1.00059 0
-1.39149e-14 1.00062 0
-1.61869e-14 1.00062 0
2.22051e-14 1.00059 0
2.20586e-14 1.00059 0
-1.80559e-14 1 0
-1.66327e-14 1 0
2.47838e-14 1.00081 0
2.8044e-14 1.00081 0
-1.66327e-14 1 0
-2.07937e-14 1 0
2.8044e-14 1.00081 0
3.01408e-14 1.00081 0
-1.5319e-14 1.00081 0
-2.0149e-14 1.00081 0
1.88727e-14 1.00059 0
1.60961e-14 1.00059 0
-2.0149e-14 1.00081 0
-4.07656e-14 1.00081 0
1.60961e-14 1.00059 0
6.06087e-14 1.00059 0
-2.07937e-14 1 0
-2.25452e-14 1 0
3.01408e-14 1.00081 0
2.52952e-14 1.00081 0
-2.25452e-14 1 0
-1.97387e-14 1 0
2.52952e-14 1.00081 0
1.77442e-14 1.00081 0
-4.07656e-14 1.00081 0
-1.84485e-14 1.00081 0
6.06087e-14 1.00059 0
2.23805e-14 1.00059 0
-1.84485e-14 1.00081 0
-4.68589e-15 1.00081 0
2.23805e-14 1.00059 0
1.70009e-14 1.00059 0
-8.67802e-15 1.00059 0
-5.12349e-15 1.00059 0
1.64753e-14 1.00062 0
2.10677e-14 1.00062 0
-5.12349e-15 1.00059 0
-3.65196e-14 1.00059 0
2.10677e-14 1.00062 0
3.29942e-14 1.00062 0
-1.61869e-14 1.00062 0
-1.386e-14 1.00062 0
2.20586e-14 1.00059 0
1.48659e-14 1.00059 0
-1.386e-14 1.00062 0
-2.7143e-14 1.00062 0
1.48659e-14 1.00059 0
2.82261e-14 1.00059 0
-3.65196e-14 1.00059 0
-5.10243e-15 1.00059 0
3.29942e-14 1.00062 0
2.17133e-14 1.00062 0
-5.10243e-15 1.00059 0
-1.48204e-14 1.00059 0
2.17133e-14 1.00062 0
2.43057e-14 1.00062 0
-2.7143e-14 1.00062 0
-2.85682e-14 1.00062 0
2.82261e-14 1.00059 0
4.41269e-14 1.00059 0
-2.85682e-14 1.00062 0
-1.5301e-14 1.00062 0
4.41269e-14 1.00059 0
2.35312e-14 1.00059 0
-3.29017e-15 1.00059 0
-1.19459e-14 1.00059 0
1.24769e-14 1.00057 0
1.51556e-14 1.00057 0
-1.19459e-14 1.00059 0
-1.97599e-14 1.00059 0
1.51556e-14 1.00057 0
2.69011e-14 1.00057 0
-1.99663e-14 1.00057 0
-2.30503e-14 1.00057 0
2.5989e-14 1.00055 0
3.1828e-14 1.00055 0
-2.30503e-14 1.00057 0
-2.75145e-14 1.00057 0
3.1828e-14 1.00055 0
2.37811e-14 1.00055 0
-1.97599e-14 1.00059 0
-2.39994e-14 1.00059 0
2.69011e-14 1.00057 0
3.20693e-14 1.00057 0
-2.39994e-14 1.00059 0
-1.36175e-14 1.00059 0
3.20693e-14 1.00057 0
1.3143e-14 1.00057 0
-2.75145e-14 1.00057 0
-2.9589e-14 1.00057 0
2.37811e-14 1.00055 0
2.74119e-14 1.00055 0
-2.9589e-14 1.00057 0
-1.71282e-14 1.00057 0
2.74119e-14 1.00055 0
2.86328e-14 1.00055 0
-3.83834e-14 1.00055 0
-4.19151e-14 1.00055 0
3.14965e-14 1.00053 0
3.87491e-14 1.00053 0
-4.19151e-14 1.00055 0
-3.12415e-14 1.00055 0
3.87491e-14 1.00053 0
3.68497e-14 1.00053 0
-2.68883e-14 1.00053 0
-2.86362e-14 1.00053 0
2.65734e-14 1.00051 0
1.82143e-14 1.00051 0
-2.86362e-14 1.00053 0
-3.34409e-14 1.00053 0
1.82143e-14 1.00051 0
3.07392e-14 1.00051 0
-3.12415e-14 1.00055 0
-3.14949e-14 1.00055 0
3.68497e-14 1.00053 0
3.20351e-14 1.00053 0
-3.14949e-14 1.00055 0
-4.31231e-14 1.00055 0
3.20351e-14 1.00053 0
3.97509e-14 1.00053 0
-3.34409e-14 1.00053 0
-2.7441e-14 1.00053 0
3.07392e-14 1.00051 0
2.15773e-14 1.00051 0
-2.7441e-14 1.00053 0
-3.05097e-14 1.00053 0
2.15773e-14 1.00051 0
2.66061e-14 1.00051 0
-1.36175e-14 1.00059 0
-8.63308e-15 1.00059 0
1.3143e-14 1.00057 0
8.32607e-15 1.00057 0
-8.63308e-15 1.00059 0
-1.73112e-14 1.00059 0
8.32607e-15 1.00057 0
1.79817e-14 1.00057 0
-1.71282e-14 1.00057 0
-5.86745e-15 1.00057 0
2.86328e-14 1.00055 0
1.20829e-14 1.00055 0
-5.86745e-15 1.00057 0
-1.60207e-14 1.00057 0
1.20829e-14 1.00055 0
3.15181e-14 1.00055 0
-1.73112e-14 1.00059 0
-4.47565e-14 1.00059 0
1.79817e-14 1.00057 0
4.64936e-14 1.00057 0
-4.47565e-14 1.00059 0
-3.86266e-15 1.00059 0
4.64936e-14 1.00057 0
3.20073e-15 1.00057 0
-1.60207e-14 1.00057 0
-2.69604e-14 1.00057 0
3.15181e-14 1.00055 0
2.04042e-14 1.00055 0
-2.69604e-14 1.00057 0
-7.38225e-15 1.00057 0
2.04042e-14 1.00055 0
9.72353e-15 1.00055 0
-4.31231e-14 1.00055 0
-2.21509e-14 1.00055 0
3.97509e-14 1.00053 0
2.48475e-14 1.00053 0
-2.21509e-14 1.00055 0
-2.82046e-14 1.00055 0
2.48475e-14 1.00053 0
1.69655e-14 1.00053 0
-3.05097e-14 1.00053 0
-2.69018e-14 1.00053 0
2.66061e-14 1.00051 0
1.68523e-14 1.00051 0
-2.69018e-14 1.00053 0
-2.6639e-14 1.00053 0
1.68523e-14 1.00051 0
2.04438e-14 1.00051 0
-2.82046e-14 1.00055 0
-1.946e-14 1.00055 0
1.69655e-14 1.00053 0
1.52227e-14 1.00053 0
-1.946e-14 1.00055 0
-1.00665e-14 1.00055 0
1.52227e-14 1.00053 0
2.4383e-15 1.00053 0
-2.6639e-14 1.00053 0
-2.03495e-14 1.00053 0
2.04438e-14 1.00051 0
2.00934e-14 1.00051 0
-2.03495e-14 1.00053 0
3.81339e-15 1.00053 0
2.00934e-14 1.00051 0
9.62501e-15 1.00051 0
0 1.00051 0
-1.57768e-14 1.00051 0
0 1.00049 0
-5.41298e-15 1.00049 0
-1.57768e-14 1.00051 0
-8.37006e-15 1.00051 0
-5.41298e-15 1.00049 0
1.00301e-14 1.00049 0
0 1.00049 0
1.02973e-14 1.00049 0
0 1.00047 0
1.60525e-14 1.00047 0
1.02973e-14 1.00049 0
1.05306e-15 1.00049 0
1.60525e-14 1.00047 0
9.65607e-15 1.00047 0
-8.37006e-15 1.00051 0
-8.53108e-15 1.00051 0
1.00301e-14 1.00049 0
1.14207e-14 1.00049 0
-8.53108e-15 1.00051 0
-2.27409e-14 1.00051 0
1.14207e-14 1.00049 0
9.85377e-15 1.00049 0
1.05306e-15 1.00049 0
-1.39715e-14 1.00049 0
9.65607e-15 1.00047 0
1.29003e-14 1.00047 0
-1.39715e-14 1.00049 0
-7.07196e-15 1.00049 0
1.29003e-14 1.00047 0
2.34681e-14 1.00047 0
0 1.00047 0
-4.3779e-15 1.00047 0
0 1.00045 0
-1.10925e-14 1.00045 0
-4.3779e-15 1.00047 0
-1.13292e-14 1.00047 0
-1.10925e-14 1.00045 0
5.64831e-15 1.00045 0
0 1.00045 0
-1.52691e-15 1.00045 0
0 1.00043 0
1.27935e-14 1.00043 0
-1.52691e-15 1.00045 0
3.57358e-15 1.00045 0
1.27935e-14 1.00043 0
7.01854e-15 1.00043 0
-1.13292e-14 1.00047 0
-1.2243e-14 1.00047 0
5.64831e-15 1.00045 0
1.70526e-14 1.00045 0
-1.2243e-14 1.00047 0
-2.60867e-14 1.00047 0
1.70526e-14 1.00045 0
3.55024e-14 1.00045 0
3.57358e-15 1.00045 0
-8.24317e-15 1.00045 0
7.01854e-15 1.00043 0
8.46547e-15 1.00043 0
-8.24317e-15 1.00045 0
-2.08033e-14 1.00045 0
8.46547e-15 1.00043 0
2.37845e-14 1.00043 0
-2.27409e-14 1.00051 0
-2.091e-14 1.00051 0
9.85377e-15 1.00049 0
2.04086e-14 1.00049 0
-2.091e-14 1.00051 0
-1.77007e-14 1.00051 0
2.04086e-14 1.00049 0
1.44563e-14 1.00049 0
-7.07196e-15 1.00049 0
-1.86026e-14 1.00049 0
2.34681e-14 1.00047 0
2.35375e-14 1.00047 0
-1.86026e-14 1.00049 0
-1.17354e-14 1.00049 0
2.35375e-14 1.00047 0
1.77957e-14 1.00047 0
-1.77007e-14 1.00051 0
-2.07905e-14 1.00051 0
1.44563e-14 1.00049 0
2.38645e-14 1.00049 0
-2.07905e-14 1.00051 0
-2.14891e-14 1.00051 0
2.38645e-14 1.00049 0
2.3354e-14 1.00049 0
-1.17354e-14 1.00049 0
-1.66218e-14 1.00049 0
1.77957e-14 1.00047 0
1.96567e-14 1.00047 0
-1.66218e-14 1.00049 0
-1.64446e-14 1.00049 0
1.96567e-14 1.00047 0
1.70147e-14 1.00047 0
-2.60867e-14 1.00047 0
-9.56622e-15 1.00047 0
3.55024e-14 1.00045 0
1.6726e-14 1.00045 0
-9.56622e-15 1.00047 0
-1.80954e-14 1.00047 0
1.6726e-14 1.00045 0
1.73217e-14 1.00045 0
-2.08033e-14 1.00045 0
-1.79446e-14 1.00045 0
2.37845e-14 1.00043 0
1.33803e-14 1.00043 0
-1.79446e-14 1.00045 0
-1.68174e-14 1.00045 0
1.33803e-14 1.00043 0
1.64272e-14 1.00043 0
-1.80954e-14 1.00047 0
-1.81799e-14 1.00047 0
1.73217e-14 1.00045 0
1.43813e-14 1.00045 0
-1.81799e-14 1.00047 0
-1.64887e-14 1.00047 0
1.43813e-14 1.00045 0
1.74168e-14 1.00045 0
-1.68174e-14 1.00045 0
-7.52368e-15 1.00045 0
1.64272e-14 1.00043 0
1.04245e-14 1.00043 0
-7.52368e-15 1.00045 0
-1.09902e-14 1.00045 0
1.04245e-14 1.00043 0
2.15619e-14 1.00043 0
0 1.00043 0
-5.94019e-16 1.00043 0
0 1.00041 0
-8.93464e-15 1.00041 0
-5.94019e-16 1.00043 0
-1.29672e-14 1.00043 0
-8.93464e-15 1.00041 0
-4.24268e-15 1.00041 0
0 1.00041 0
7.22195e-15 1.00041 0
0 1.0004 0
3.96423e-15 1.0004 0
7.22195e-15 1.00041 0
1.7626e-16 1.00041 0
3.96423e-15 1.0004 0
8.23289e-15 1.0004 0
-1.29672e-14 1.00043 0
-1.2801e-14 1.00043 0
-4.24268e-15 1.00041 0
1.48676e-14 1.00041 0
-1.2801e-14 1.00043 0
-3.90913e-14 1.00043 0
1.48676e-14 1.00041 0
3.48722e-14 1.00041 0
1.7626e-16 1.00041 0
-1.22901e-14 1.00041 0
8.23289e-15 1.0004 0
6.56575e-15 1.0004 0
-1.22901e-14 1.00041 0
-3.00529e-14 1.00041 0
6.56575e-15 1.0004 0
2.63668e-14 1.0004 0
0 1.0004 0
2.27066e-15 1.0004 0
0 1.00038 0
-1.59312e-14 1.00038 0
2.27066e-15 1.0004 0
2.63212e-15 1.0004 0
-1.59312e-14 1.00038 0
6.78745e-15 1.00038 0
0 1.00038 0
8.24536e-15 1.00038 0
0 1.00036 0
-1.28399e-14 1.00036 0
8.24536e-15 1.00038 0
-8.75814e-15 1.00038 0
-1.28399e-14 1.00036 0
-2.93211e-16 1.00036 0
2.63212e-15 1.0004 0
-1.28942e-14 1.0004 0
6.78745e-15 1.00038 0
1.2369e-14 1.00038 0
-1.28942e-14 1.0004 0
-3.29816e-14 1.0004 0
1.2369e-14 1.00038 0
3.42082e-14 1.00038 0
-8.75814e-15 1.00038 0
-9.65034e-15 1.00038 0
-2.93211e-16 1.00036 0
1.83653e-14 1.00036 0
-9.65034e-15 1.00038 0
-2.53625e-14 1.00038 0
1.83653e-14 1.00036 0
2.90364e-14 1.00036 0
-3.90913e-14 1.00043 0
-1.40536e-14 1.00043 0
3.48722e-14 1.00041 0
1.85288e-14 1.00041 0
-1.40536e-14 1.00043 0
-8.58282e-15 1.00043 0
1.85288e-14 1.00041 0
1.25013e-14 1.00041 0
-3.00529e-14 1.00041 0
-2.52716e-14 1.00041 0
2.63668e-14 1.0004 0
2.83528e-14 1.0004 0
-2.52716e-14 1.00041 0
-2.58987e-14 1.00041 0
2.83528e-14 1.0004 0
3.04618e-14 1.0004 0
-8.58282e-15 1.00043 0
-7.36028e-15 1.00043 0
1.25013e-14 1.00041 0
1.32327e-14 1.00041 0
-7.36028e-15 1.00043 0
-2.98163e-14 1.00043 0
1.32327e-14 1.00041 0
3.08693e-14 1.00041 0
-2.58987e-14 1.00041 0
-1.68271e-14 1.00041 0
3.04618e-14 1.0004 0
1.70562e-14 1.0004 0
-1.68271e-14 1.00041 0
-2.41951e-14 1.00041 0
1.70562e-14 1.0004 0
2.19039e-14 1.0004 0
-3.29816e-14 1.0004 0
-2.62484e-14 1.0004 0
3.42082e-14 1.00038 0
2.15009e-14 1.00038 0
-2.62484e-14 1.0004 0
-2.48269e-14 1.0004 0
2.15009e-14 1.00038 0
1.9813e-14 1.00038 0
-2.53625e-14 1.00038 0
-1.54073e-14 1.00038 0
2.90364e-14 1.00036 0
1.65457e-14 1.00036 0
-1.54073e-14 1.00038 0
-2.04398e-14 1.00038 0
1.65457e-14 1.00036 0
2.67548e-14 1.00036 0
-2.48269e-14 1.0004 0
-2.42228e-14 1.0004 0
1.9813e-14 1.00038 0
2.47281e-14 1.00038 0
-2.42228e-14 1.0004 0
-2.76572e-14 1.0004 0
2.47281e-14 1.00038 0
2.22539e-14 1.00038 0
-2.04398e-14 1.00038 0
-2.62408e-14 1.00038 0
2.67548e-14 1.00036 0
1.98853e-14 1.00036 0
-2.62408e-14 1.00038 0
-1.18502e-14 1.00038 0
1.98853e-14 1.00036 0
1.60348e-14 1.00036 0
-2.14891e-14 1.00051 0
-2.08485e-14 1.00051 0
2.3354e-14 1.00049 0
2.97494e-14 1.00049 0
-2.08485e-14 1.00051 0
-2.88933e-14 1.00051 0
2.97494e-14 1.00049 0
2.51265e-14 1.00049 0
-1.64446e-14 1.00049 0
-2.18764e-14 1.00049 0
1.70147e-14 1.00047 0
2.30136e-14 1.00047 0
-2.18764e-14 1.00049 0
-2.30973e-14 1.00049 0
2.30136e-14 1.00047 0
3.07451e-14 1.00047 0
-2.88933e-14 1.00051 0
-2.1394e-14 1.00051 0
2.51265e-14 1.00049 0
2.52624e-14 1.00049 0
-2.1394e-14 1.00051 0
-2.99372e-14 1.00051 0
2.52624e-14 1.00049 0
3.22611e-14 1.00049 0
-2.30973e-14 1.00049 0
-2.38392e-14 1.00049 0
3.07451e-14 1.00047 0
2.94384e-14 1.00047 0
-2.38392e-14 1.00049 0
-2.35425e-14 1.00049 0
2.94384e-14 1.00047 0
2.76811e-14 1.00047 0
-1.64887e-14 1.00047 0
-1.7407e-14 1.00047 0
1.74168e-14 1.00045 0
2.16866e-14 1.00045 0
-1.7407e-14 1.00047 0
-2.56759e-14 1.00047 0
2.16866e-14 1.00045 0
2.48548e-14 1.00045 0
-1.09902e-14 1.00045 0
-1.06587e-14 1.00045 0
2.15619e-14 1.00043 0
1.52029e-14 1.00043 0
-1.06587e-14 1.00045 0
-1.74636e-14 1.00045 0
1.52029e-14 1.00043 0
2.39374e-14 1.00043 0
-2.56759e-14 1.00047 0
-2.39053e-14 1.00047 0
2.48548e-14 1.00045 0
1.76337e-14 1.00045 0
-2.39053e-14 1.00047 0
-2.95563e-14 1.00047 0
1.76337e-14 1.00045 0
2.48771e-14 1.00045 0
-1.74636e-14 1.00045 0
-1.0488e-14 1.00045 0
2.39374e-14 1.00043 0
2.61286e-14 1.00043 0
-1.0488e-14 1.00045 0
-1.10055e-14 1.00045 0
2.61286e-14 1.00043 0
1.67451e-14 1.00043 0
-2.99372e-14 1.00051 0
-6.03885e-15 1.00051 0
3.22611e-14 1.00049 0
1.16843e-14 1.00049 0
-6.03885e-15 1.00051 0
-1.13774e-14 1.00051 0
1.16843e-14 1.00049 0
1.52084e-14 1.00049 0
-2.35425e-14 1.00049 0
-5.51663e-15 1.00049 0
2.76811e-14 1.00047 0
1.32197e-14 1.00047 0
-5.51663e-15 1.00049 0
-2.03796e-15 1.00049 0
1.32197e-14 1.00047 0
1.17554e-14 1.00047 0
-1.13774e-14 1.00051 0
-1.47646e-14 1.00051 0
1.52084e-14 1.00049 0
1.75362e-14 1.00049 0
-1.47646e-14 1.00051 0
-1.06241e-14 1.00051 0
1.75362e-14 1.00049 0
1.10652e-14 1.00049 0
-2.03796e-15 1.00049 0
3.65304e-15 1.00049 0
1.17554e-14 1.00047 0
7.05208e-15 1.00047 0
3.65304e-15 1.00049 0
-8.05761e-15 1.00049 0
7.05208e-15 1.00047 0
1.64741e-14 1.00047 0
-2.95563e-14 1.00047 0
-2.11728e-14 1.00047 0
2.48771e-14 1.00045 0
1.8623e-14 1.00045 0
-2.11728e-14 1.00047 0
-2.14774e-14 1.00047 0
1.8623e-14 1.00045 0
1.68081e-14 1.00045 0
-1.10055e-14 1.00045 0
-1.54662e-14 1.00045 0
1.67451e-14 1.00043 0
1.81802e-14 1.00043 0
-1.54662e-14 1.00045 0
-1.35596e-14 1.00045 0
1.81802e-14 1.00043 0
1.88462e-14 1.00043 0
-2.14774e-14 1.00047 0
-1.85968e-14 1.00047 0
1.68081e-14 1.00045 0
1.6868e-14 1.00045 0
-1.85968e-14 1.00047 0
-1.66525e-14 1.00047 0
1.6868e-14 1.00045 0
1.52333e-14 1.00045 0
-1.35596e-14 1.00045 0
-8.62503e-15 1.00045 0
1.88462e-14 1.00043 0
1.09243e-14 1.00043 0
-8.62503e-15 1.00045 0
1.28277e-15 1.00045 0
1.09243e-14 1.00043 0
-1.24898e-15 1.00043 0
-2.98163e-14 1.00043 0
-2.71533e-14 1.00043 0
3.08693e-14 1.00041 0
3.0738e-14 1.00041 0
-2.71533e-14 1.00043 0
-3.00991e-14 1.00043 0
3.0738e-14 1.00041 0
3.37106e-14 1.00041 0
-2.41951e-14 1.00041 0
-2.12526e-14 1.00041 0
2.19039e-14 1.0004 0
1.7393e-14 1.0004 0
-2.12526e-14 1.00041 0
-2.36185e-14 1.00041 0
1.7393e-14 1.0004 0
2.15328e-14 1.0004 0
-3.00991e-14 1.00043 0
-2.94637e-14 1.00043 0
3.37106e-14 1.00041 0
2.54278e-14 1.00041 0
-2.94637e-14 1.00043 0