# vtk DataFile Version 3.0
#This file was generated by the deal.II library on 2018/10/15 at 21:07:14
ASCII
DATASET UNSTRUCTURED_GRID

POINTS 20480 double
0 0 0
0.19635 0 0
0 0.290165 0
0.19635 0.290165 0
0.19635 0 0
0.392699 0 0
0.19635 0.290165 0
0.392699 0.290165 0
0 0.290165 0
0.19635 0.290165 0
0 0.602896 0
0.19635 0.602896 0
0.19635 0.290165 0
0.392699 0.290165 0
0.19635 0.602896 0
0.392699 0.602896 0
0.392699 0 0
0.589049 0 0
0.392699 0.290165 0
0.589049 0.290165 0
0.589049 0 0
0.785398 0 0
0.589049 0.290165 0
0.785398 0.290165 0
0.392699 0.290165 0
0.589049 0.290165 0
0.392699 0.602896 0
0.589049 0.602896 0
0.589049 0.290165 0
0.785398 0.290165 0
0.589049 0.602896 0
0.785398 0.602896 0
0 0.602896 0
0.19635 0.602896 0
0 0.915403 0
0.19635 0.915403 0
0.19635 0.602896 0
0.392699 0.602896 0
0.19635 0.915403 0
0.392699 0.915403 0
0 0.915403 0
0.19635 0.915403 0
0 1.22901 0
0.19635 1.22901 0
0.19635 0.915403 0
0.392699 0.915403 0
0.19635 1.22901 0
0.392699 1.22901 0
0.392699 0.602896 0
0.589049 0.602896 0
0.392699 0.915403 0
0.589049 0.915403 0
0.589049 0.602896 0
0.785398 0.602896 0
0.589049 0.915403 0
0.785398 0.915403 0
0.392699 0.915403 0
0.589049 0.915403 0
0.392699 1.22901 0
0.589049 1.22901 0
0.589049 0.915403 0
0.785398 0.915403 0
0.589049 1.22901 0
0.785398 1.22901 0
0.785398 0 0
0.981748 0 0
0.785398 0.290165 0
0.981748 0.290165 0
0.981748 0 0
1.1781 0 0
0.981748 0.290165 0
1.1781 0.290165 0
0.785398 0.290165 0
0.981748 0.290165 0
0.785398 0.602896 0
0.981748 0.602896 0
0.981748 0.290165 0
1.1781 0.290165 0
0.981748 0.602896 0
1.1781 0.602896 0
1.1781 0 0
1.37445 0 0
1.1781 0.290165 0
1.37445 0.290165 0
1.37445 0 0
1.5708 0 0
1.37445 0.290165 0
1.5708 0.290165 0
1.1781 0.290165 0
1.37445 0.290165 0
1.1781 0.602896 0
1.37445 0.602896 0
1.37445 0.290165 0
1.5708 0.290165 0
1.37445 0.602896 0
1.5708 0.602896 0
0.785398 0.602896 0
0.981748 0.602896 0
0.785398 0.915403 0
0.981748 0.915403 0
0.981748 0.602896 0
1.1781 0.602896 0
0.981748 0.915403 0
1.1781 0.915403 0
0.785398 0.915403 0
0.981748 0.915403 0
0.785398 1.22901 0
0.981748 1.22901 0
0.981748 0.915403 0
1.1781 0.915403 0
0.981748 1.22901 0
1.1781 1.22901 0
1.1781 0.602896 0
1.37445 0.602896 0
1.1781 0.915403 0
1.37445 0.915403 0
1.37445 0.602896 0
1.5708 0.602896 0
1.37445 0.915403 0
1.5708 0.915403 0
1.1781 0.915403 0
1.37445 0.915403 0
1.1781 1.22901 0
1.37445 1.22901 0
1.37445 0.915403 0
1.5708 0.915403 0
1.37445 1.22901 0
1.5708 1.22901 0
0 1.22901 0
0.19635 1.22901 0
0 1.54233 0
0.19635 1.54233 0
0.19635 1.22901 0
0.392699 1.22901 0
0.19635 1.54233 0
0.392699 1.54233 0
0 1.54233 0
0.19635 1.54233 0
0 1.85574 0
0.19635 1.85574 0
0.19635 1.54233 0
0.392699 1.54233 0
0.19635 1.85574 0
0.392699 1.85574 0
0.392699 1.22901 0
0.589049 1.22901 0
0.392699 1.54233 0
0.589049 1.54233 0
0.589049 1.22901 0
0.785398 1.22901 0
0.589049 1.54233 0
0.785398 1.54233 0
0.392699 1.54233 0
0.589049 1.54233 0
0.392699 1.85574 0
0.589049 1.85574 0
0.589049 1.54233 0
0.785398 1.54233 0
0.589049 1.85574 0
0.785398 1.85574 0
0 1.85574 0
0.19635 1.85574 0
0 2.1691 0
0.19635 2.1691 0
0.19635 1.85574 0
0.392699 1.85574 0
0.19635 2.1691 0
0.392699 2.1691 0
0 2.1691 0
0.19635 2.1691 0
0 2.48246 0
0.19635 2.48246 0
0.19635 2.1691 0
0.392699 2.1691 0
0.19635 2.48246 0
0.392699 2.48246 0
0.392699 1.85574 0
0.589049 1.85574 0
0.392699 2.1691 0
0.589049 2.1691 0
0.589049 1.85574 0
0.785398 1.85574 0
0.589049 2.1691 0
0.785398 2.1691 0
0.392699 2.1691 0
0.589049 2.1691 0
0.392699 2.48246 0
0.589049 2.48246 0
0.589049 2.1691 0
0.785398 2.1691 0
0.589049 2.48246 0
0.785398 2.48246 0
0.785398 1.22901 0
0.981748 1.22901 0
0.785398 1.54233 0
0.981748 1.54233 0
0.981748 1.22901 0
1.1781 1.22901 0
0.981748 1.54233 0
1.1781 1.54233 0
0.785398 1.54233 0
0.981748 1.54233 0
0.785398 1.85574 0
0.981748 1.85574 0
0.981748 1.54233 0
1.1781 1.54233 0
0.981748 1.85574 0
1.1781 1.85574 0
1.1781 1.22901 0
1.37445 1.22901 0
1.1781 1.54233 0
1.37445 1.54233 0
1.37445 1.22901 0
1.5708 1.22901 0
1.37445 1.54233 0
1.5708 1.54233 0
1.1781 1.54233 0
1.37445 1.54233 0
1.1781 1.85574 0
1.37445 1.85574 0
1.37445 1.54233 0
1.5708 1.54233 0
1.37445 1.85574 0
1.5708 1.85574 0
0.785398 1.85574 0
0.981748 1.85574 0
0.785398 2.1691 0
0.981748 2.1691 0
0.981748 1.85574 0
1.1781 1.85574 0
0.981748 2.1691 0
1.1781 2.1691 0
0.785398 2.1691 0
0.981748 2.1691 0
0.785398 2.48246 0
0.981748 2.48246 0
0.981748 2.1691 0
1.1781 2.1691 0
0.981748 2.48246 0
1.1781 2.48246 0
1.1781 1.85574 0
1.37445 1.85574 0
1.1781 2.1691 0
1.37445 2.1691 0
1.37445 1.85574 0
1.5708 1.85574 0
1.37445 2.1691 0
1.5708 2.1691 0
1.1781 2.1691 0
1.37445 2.1691 0
1.1781 2.48246 0
1.37445 2.48246 0
1.37445 2.1691 0
1.5708 2.1691 0
1.37445 2.48246 0
1.5708 2.48246 0
1.5708 0 0
1.76715 0 0
1.5708 0.290165 0
1.76715 0.290165 0
1.76715 0 0
1.9635 0 0
1.76715 0.290165 0
1.9635 0.290165 0
1.5708 0.290165 0
1.76715 0.290165 0
1.5708 0.602896 0
1.76715 0.602896 0
1.76715 0.290165 0
1.9635 0.290165 0
1.76715 0.602896 0
1.9635 0.602896 0
1.9635 0 0
2.15984 0 0
1.9635 0.290165 0
2.15984 0.290165 0
2.15984 0 0
2.35619 0 0
2.15984 0.290165 0
2.35619 0.290165 0
1.9635 0.290165 0
2.15984 0.290165 0
1.9635 0.602896 0
2.15984 0.602896 0
2.15984 0.290165 0
2.35619 0.290165 0
2.15984 0.602896 0
2.35619 0.602896 0
1.5708 0.602896 0
1.76715 0.602896 0
1.5708 0.915403 0
1.76715 0.915403 0
1.76715 0.602896 0
1.9635 0.602896 0
1.76715 0.915403 0
1.9635 0.915403 0
1.5708 0.915403 0
1.76715 0.915403 0
1.5708 1.22901 0
1.76715 1.22901 0
1.76715 0.915403 0
1.9635 0.915403 0
1.76715 1.22901 0
1.9635 1.22901 0
1.9635 0.602896 0
2.15984 0.602896 0
1.9635 0.915403 0
2.15984 0.915403 0
2.15984 0.602896 0
2.35619 0.602896 0
2.15984 0.915403 0
2.35619 0.915403 0
1.9635 0.915403 0
2.15984 0.915403 0
1.9635 1.22901 0
2.15984 1.22901 0
2.15984 0.915403 0
2.35619 0.915403 0
2.15984 1.22901 0
2.35619 1.22901 0
2.35619 0 0
2.55254 0 0
2.35619 0.290165 0
2.55254 0.290165 0
2.55254 0 0
2.74889 0 0
2.55254 0.290165 0
2.74889 0.290165 0
2.35619 0.290165 0
2.55254 0.290165 0
2.35619 0.602896 0
2.55254 0.602896 0
2.55254 0.290165 0
2.74889 0.290165 0
2.55254 0.602896 0
2.74889 0.602896 0
2.74889 0 0
2.94524 0 0
2.74889 0.290165 0
2.94524 0.290165 0
2.94524 0 0
3.14159 0 0
2.94524 0.290165 0
3.14159 0.290165 0
2.74889 0.290165 0
2.94524 0.290165 0
2.74889 0.602896 0
2.94524 0.602896 0
2.94524 0.290165 0
3.14159 0.290165 0
2.94524 0.602896 0
3.14159 0.602896 0
2.35619 0.602896 0
2.55254 0.602896 0
2.35619 0.915403 0
2.55254 0.915403 0
2.55254 0.602896 0
2.74889 0.602896 0
2.55254 0.915403 0
2.74889 0.915403 0
2.35619 0.915403 0
2.55254 0.915403 0
2.35619 1.22901 0
2.55254 1.22901 0
2.55254 0.915403 0
2.74889 0.915403 0
2.55254 1.22901 0
2.74889 1.22901 0
2.74889 0.602896 0
2.94524 0.602896 0
2.74889 0.915403 0
2.94524 0.915403 0
2.94524 0.602896 0
3.14159 0.602896 0
2.94524 0.915403 0
3.14159 0.915403 0
2.74889 0.915403 0
2.94524 0.915403 0
2.74889 1.22901 0
2.94524 1.22901 0
2.94524 0.915403 0
3.14159 0.915403 0
2.94524 1.22901 0
3.14159 1.22901 0
1.5708 1.22901 0
1.76715 1.22901 0
1.5708 1.54233 0
1.76715 1.54233 0
1.76715 1.22901 0
1.9635 1.22901 0
1.76715 1.54233 0
1.9635 1.54233 0
1.5708 1.54233 0
1.76715 1.54233 0
1.5708 1.85574 0
1.76715 1.85574 0
1.76715 1.54233 0
1.9635 1.54233 0
1.76715 1.85574 0
1.9635 1.85574 0
1.9635 1.22901 0
2.15984 1.22901 0
1.9635 1.54233 0
2.15984 1.54233 0
2.15984 1.22901 0
2.35619 1.22901 0
2.15984 1.54233 0
2.35619 1.54233 0
1.9635 1.54233 0
2.15984 1.54233 0
1.9635 1.85574 0
2.15984 1.85574 0
2.15984 1.54233 0
2.35619 1.54233 0
2.15984 1.85574 0
2.35619 1.85574 0
1.5708 1.85574 0
1.76715 1.85574 0
1.5708 2.1691 0
1.76715 2.1691 0
1.76715 1.85574 0
1.9635 1.85574 0
1.76715 2.1691 0
1.9635 2.1691 0
1.5708 2.1691 0
1.76715 2.1691 0
1.5708 2.48246 0
1.76715 2.48246 0
1.76715 2.1691 0
1.9635 2.1691 0
1.76715 2.48246 0
1.9635 2.48246 0
1.9635 1.85574 0
2.15984 1.85574 0
1.9635 2.1691 0
2.15984 2.1691 0
2.15984 1.85574 0
2.35619 1.85574 0
2.15984 2.1691 0
2.35619 2.1691 0
1.9635 2.1691 0
2.15984 2.1691 0
1.9635 2.48246 0
2.15984 2.48246 0
2.15984 2.1691 0
2.35619 2.1691 0
2.15984 2.48246 0
2.35619 2.48246 0
2.35619 1.22901 0
2.55254 1.22901 0
2.35619 1.54233 0
2.55254 1.54233 0
2.55254 1.22901 0
2.74889 1.22901 0
2.55254 1.54233 0
2.74889 1.54233 0
2.35619 1.54233 0
2.55254 1.54233 0
2.35619 1.85574 0
2.55254 1.85574 0
2.55254 1.54233 0
2.74889 1.54233 0
2.55254 1.85574 0
2.74889 1.85574 0
2.74889 1.22901 0
2.94524 1.22901 0
2.74889 1.54233 0
2.94524 1.54233 0
2.94524 1.22901 0
3.14159 1.22901 0
2.94524 1.54233 0
3.14159 1.54233 0
2.74889 1.54233 0
2.94524 1.54233 0
2.74889 1.85574 0
2.94524 1.85574 0
2.94524 1.54233 0
3.14159 1.54233 0
2.94524 1.85574 0
3.14159 1.85574 0
2.35619 1.85574 0
2.55254 1.85574 0
2.35619 2.1691 0
2.55254 2.1691 0
2.55254 1.85574 0
2.74889 1.85574 0
2.55254 2.1691 0
2.74889 2.1691 0
2.35619 2.1691 0
2.55254 2.1691 0
2.35619 2.48246 0
2.55254 2.48246 0
2.55254 2.1691 0
2.74889 2.1691 0
2.55254 2.48246 0
2.74889 2.48246 0
2.74889 1.85574 0
2.94524 1.85574 0
2.74889 2.1691 0
2.94524 2.1691 0
2.94524 1.85574 0
3.14159 1.85574 0
2.94524 2.1691 0
3.14159 2.1691 0
2.74889 2.1691 0
2.94524 2.1691 0
2.74889 2.48246 0
2.94524 2.48246 0
2.94524 2.1691 0
3.14159 2.1691 0
2.94524 2.48246 0
3.14159 2.48246 0
0 2.48246 0
0.19635 2.48246 0
0 2.79579 0
0.19635 2.79579 0
0.19635 2.48246 0
0.392699 2.48246 0
0.19635 2.79579 0
0.392699 2.79579 0
0 2.79579 0
0.19635 2.79579 0
0 3.1091 0
0.19635 3.1091 0
0.19635 2.79579 0
0.392699 2.79579 0
0.19635 3.1091 0
0.392699 3.1091 0
0.392699 2.48246 0
0.589049 2.48246 0
0.392699 2.79579 0
0.589049 2.79579 0
0.589049 2.48246 0
0.785398 2.48246 0
0.589049 2.79579 0
0.785398 2.79579 0
0.392699 2.79579 0
0.589049 2.79579 0
0.392699 3.1091 0
0.589049 3.1091 0
0.589049 2.79579 0
0.785398 2.79579 0
0.589049 3.1091 0
0.785398 3.1091 0
0 3.1091 0
0.19635 3.1091 0
0 3.4224 0
0.19635 3.4224 0
0.19635 3.1091 0
0.392699 3.1091 0
0.19635 3.4224 0
0.392699 3.4224 0
0 3.4224 0
0.19635 3.4224 0
0 3.73568 0
0.19635 3.73568 0
[...]
POINT_DATA 20480
VECTORS uf double
0 1 0
-6.72056e-15 1 0
0 1.001 0
6.78044e-15 1.001 0
-6.72056e-15 1 0
-3.68821e-16 1 0
6.78044e-15 1.001 0
-1.06194e-16 1.001 0
0 1.001 0
-9.04335e-15 1.001 0
0 1.00077 0
9.32205e-15 1.00077 0
-9.04335e-15 1.001 0
4.65091e-15 1.001 0
9.32205e-15 1.00077 0
-3.28109e-16 1.00077 0
-3.68821e-16 1 0
-1.69271e-15 1 0
-1.06194e-16 1.001 0
4.62514e-15 1.001 0
-1.69271e-15 1 0
-7.54748e-15 1 0
4.62514e-15 1.001 0
1.44259e-14 1.001 0
4.65091e-15 1.001 0
-2.67632e-15 1.001 0
-3.28109e-16 1.00077 0
-5.40611e-17 1.00077 0
-2.67632e-15 1.001 0
-2.16611e-15 1.001 0
-5.40611e-17 1.00077 0
6.04201e-16 1.00077 0
0 1.00077 0
-2.41576e-15 1.00077 0
0 1.00082 0
2.36755e-14 1.00082 0
-2.41576e-15 1.00077 0
-4.59641e-15 1.00077 0
2.36755e-14 1.00082 0
3.08152e-16 1.00082 0
0 1.00082 0
-2.66264e-14 1.00082 0
0 1.00077 0
-2.58147e-14 1.00077 0
-2.66264e-14 1.00082 0
8.07906e-15 1.00082 0
-2.58147e-14 1.00077 0
-1.24182e-15 1.00077 0
-4.59641e-15 1.00077 0
4.33259e-15 1.00077 0
3.08152e-16 1.00082 0
4.03351e-15 1.00082 0
4.33259e-15 1.00077 0
1.90978e-15 1.00077 0
4.03351e-15 1.00082 0
-3.88283e-15 1.00082 0
8.07906e-15 1.00082 0
1.35058e-15 1.00082 0
-1.24182e-15 1.00077 0
-1.12567e-14 1.00077 0
1.35058e-15 1.00082 0
1.63018e-15 1.00082 0
-1.12567e-14 1.00077 0
1.49703e-15 1.00077 0
-7.54748e-15 1 0
-4.09033e-15 1 0
1.44259e-14 1.001 0
6.04135e-16 1.001 0
-4.09033e-15 1 0
-6.36357e-15 1 0
6.04135e-16 1.001 0
3.55513e-15 1.001 0
-2.16611e-15 1.001 0
-5.45364e-15 1.001 0
6.04201e-16 1.00077 0
1.84811e-14 1.00077 0
-5.45364e-15 1.001 0
2.44846e-15 1.001 0
1.84811e-14 1.00077 0
7.85898e-15 1.00077 0
-6.36357e-15 1 0
1.69761e-15 1 0
3.55513e-15 1.001 0
-4.40282e-16 1.001 0
1.69761e-15 1 0
-7.99473e-16 1 0
-4.40282e-16 1.001 0
4.86804e-15 1.001 0
2.44846e-15 1.001 0
-2.67762e-15 1.001 0
7.85898e-15 1.00077 0
1.52208e-15 1.00077 0
-2.67762e-15 1.001 0
7.32436e-16 1.001 0
1.52208e-15 1.00077 0
-2.80866e-16 1.00077 0
1.90978e-15 1.00077 0
-1.00914e-14 1.00077 0
-3.88283e-15 1.00082 0
3.01262e-15 1.00082 0
-1.00914e-14 1.00077 0
-8.30197e-15 1.00077 0
3.01262e-15 1.00082 0
4.92765e-15 1.00082 0
1.63018e-15 1.00082 0
3.12788e-15 1.00082 0
1.49703e-15 1.00077 0
-3.77697e-15 1.00077 0
3.12788e-15 1.00082 0
-3.48565e-15 1.00082 0
-3.77697e-15 1.00077 0
5.25323e-16 1.00077 0
-8.30197e-15 1.00077 0
-2.59061e-15 1.00077 0
4.92765e-15 1.00082 0
1.16182e-14 1.00082 0
-2.59061e-15 1.00077 0
-5.4814e-15 1.00077 0
1.16182e-14 1.00082 0
1.26618e-14 1.00082 0
-3.48565e-15 1.00082 0
-1.16351e-14 1.00082 0
5.25323e-16 1.00077 0
1.5427e-14 1.00077 0
-1.16351e-14 1.00082 0
-6.67055e-15 1.00082 0
1.5427e-14 1.00077 0
4.62324e-16 1.00077 0
0 1.00077 0
2.63163e-14 1.00077 0
0 1.00075 0
2.6768e-14 1.00075 0
2.63163e-14 1.00077 0
-2.47441e-14 1.00077 0
2.6768e-14 1.00075 0
-1.0591e-14 1.00075 0
0 1.00075 0
-2.5214e-14 1.00075 0
0 1.00072 0
-2.25395e-14 1.00072 0
-2.5214e-14 1.00075 0
2.90088e-14 1.00075 0
-2.25395e-14 1.00072 0
3.20918e-14 1.00072 0
-2.47441e-14 1.00077 0
1.26201e-15 1.00077 0
-1.0591e-14 1.00075 0
8.62657e-15 1.00075 0
1.26201e-15 1.00077 0
-5.39711e-15 1.00077 0
8.62657e-15 1.00075 0
4.5583e-15 1.00075 0
2.90088e-14 1.00075 0
-9.36679e-15 1.00075 0
3.20918e-14 1.00072 0
6.91762e-15 1.00072 0
-9.36679e-15 1.00075 0
4.95697e-16 1.00075 0
6.91762e-15 1.00072 0
-4.01367e-15 1.00072 0
0 1.00072 0
1.18868e-14 1.00072 0
0 1.0007 0
4.44845e-15 1.0007 0
1.18868e-14 1.00072 0
-5.32663e-14 1.00072 0
4.44845e-15 1.0007 0
-4.26914e-14 1.0007 0
0 1.0007 0
4.23981e-14 1.0007 0
0 1.00067 0
4.60759e-14 1.00067 0
4.23981e-14 1.0007 0
4.27784e-14 1.0007 0
4.60759e-14 1.00067 0
4.87101e-14 1.00067 0
-5.32663e-14 1.00072 0
9.11376e-16 1.00072 0
-4.26914e-14 1.0007 0
9.77687e-16 1.0007 0
9.11376e-16 1.00072 0
1.50356e-15 1.00072 0
9.77687e-16 1.0007 0
-1.76674e-15 1.0007 0
4.27784e-14 1.0007 0
-6.4779e-15 1.0007 0
4.87101e-14 1.00067 0
-8.34737e-15 1.00067 0
-6.4779e-15 1.0007 0
1.78275e-15 1.0007 0
-8.34737e-15 1.00067 0
-2.05204e-16 1.00067 0
-5.39711e-15 1.00077 0
4.93508e-15 1.00077 0
4.5583e-15 1.00075 0
-5.47837e-15 1.00075 0
4.93508e-15 1.00077 0
3.88366e-15 1.00077 0
-5.47837e-15 1.00075 0
1.5225e-15 1.00075 0
4.95697e-16 1.00075 0
5.393e-15 1.00075 0
-4.01367e-15 1.00072 0
9.69672e-16 1.00072 0
5.393e-15 1.00075 0
-3.1089e-15 1.00075 0
9.69672e-16 1.00072 0
7.13726e-15 1.00072 0
3.88366e-15 1.00077 0
-6.65123e-15 1.00077 0
1.5225e-15 1.00075 0
-2.9142e-16 1.00075 0
-6.65123e-15 1.00077 0
8.47759e-16 1.00077 0
-2.9142e-16 1.00075 0
4.46329e-15 1.00075 0
-3.1089e-15 1.00075 0
3.10345e-15 1.00075 0
7.13726e-15 1.00072 0
1.25782e-15 1.00072 0
3.10345e-15 1.00075 0
4.70665e-15 1.00075 0
1.25782e-15 1.00072 0
-6.11945e-15 1.00072 0
1.50356e-15 1.00072 0
-1.37836e-14 1.00072 0
-1.76674e-15 1.0007 0
5.49501e-15 1.0007 0
-1.37836e-14 1.00072 0
-8.36595e-15 1.00072 0
5.49501e-15 1.0007 0
1.0686e-14 1.0007 0
1.78275e-15 1.0007 0
3.36893e-15 1.0007 0
-2.05204e-16 1.00067 0
1.10898e-14 1.00067 0
3.36893e-15 1.0007 0
-7.98402e-15 1.0007 0
1.10898e-14 1.00067 0
5.70642e-15 1.00067 0
-8.36595e-15 1.00072 0
-4.33586e-16 1.00072 0
1.0686e-14 1.0007 0
1.29647e-15 1.0007 0
-4.33586e-16 1.00072 0
3.5309e-16 1.00072 0
1.29647e-15 1.0007 0
-2.82827e-15 1.0007 0
-7.98402e-15 1.0007 0
-2.74669e-15 1.0007 0
5.70642e-15 1.00067 0
5.87455e-15 1.00067 0
-2.74669e-15 1.0007 0
1.86111e-15 1.0007 0
5.87455e-15 1.00067 0
1.22603e-14 1.00067 0
-7.99473e-16 1 0
-5.71137e-15 1 0
4.86804e-15 1.001 0
1.82973e-14 1.001 0
-5.71137e-15 1 0
7.0008e-15 1 0
1.82973e-14 1.001 0
-4.52619e-15 1.001 0
7.32436e-16 1.001 0
-1.6993e-14 1.001 0
-2.80866e-16 1.00077 0
1.69806e-14 1.00077 0
-1.6993e-14 1.001 0
4.17764e-15 1.001 0
1.69806e-14 1.00077 0
3.56964e-15 1.00077 0
7.0008e-15 1 0
-2.31574e-16 1 0
-4.52619e-15 1.001 0
8.62161e-15 1.001 0
-2.31574e-16 1 0
2.28389e-16 1 0
8.62161e-15 1.001 0
1.53388e-14 1.001 0
4.17764e-15 1.001 0
6.35928e-15 1.001 0
3.56964e-15 1.00077 0
-1.33565e-15 1.00077 0
6.35928e-15 1.001 0
-9.66959e-16 1.001 0
-1.33565e-15 1.00077 0
-7.41273e-15 1.00077 0
-5.4814e-15 1.00077 0
-1.32353e-14 1.00077 0
1.26618e-14 1.00082 0
1.01774e-14 1.00082 0
-1.32353e-14 1.00077 0
-1.56532e-14 1.00077 0
1.01774e-14 1.00082 0
2.24263e-14 1.00082 0
-6.67055e-15 1.00082 0
-2.0054e-15 1.00082 0
4.62324e-16 1.00077 0
5.53339e-15 1.00077 0
-2.0054e-15 1.00082 0
-9.71627e-15 1.00082 0
5.53339e-15 1.00077 0
5.42427e-15 1.00077 0
-1.56532e-14 1.00077 0
-1.4897e-14 1.00077 0
2.24263e-14 1.00082 0
1.72661e-14 1.00082 0
-1.4897e-14 1.00077 0
-6.31261e-15 1.00077 0
1.72661e-14 1.00082 0
1.63498e-14 1.00082 0
-9.71627e-15 1.00082 0
-1.42985e-14 1.00082 0
5.42427e-15 1.00077 0
1.04342e-14 1.00077 0
-1.42985e-14 1.00082 0
-8.46112e-15 1.00082 0
1.04342e-14 1.00077 0
2.89437e-15 1.00077 0
2.28389e-16 1 0
1.00579e-14 1 0
1.53388e-14 1.001 0
1.82718e-15 1.001 0
1.00579e-14 1 0
-3.21706e-15 1 0
1.82718e-15 1.001 0
1.89261e-14 1.001 0
-9.66959e-16 1.001 0
-1.94324e-15 1.001 0
-7.41273e-15 1.00077 0
-1.87719e-15 1.00077 0
-1.94324e-15 1.001 0
-1.38132e-14 1.001 0
-1.87719e-15 1.00077 0
1.21299e-14 1.00077 0
-3.21706e-15 1 0
2.1328e-15 1 0
1.89261e-14 1.001 0
-2.647e-15 1.001 0
2.1328e-15 1 0
-8.4726e-15 1 0
-2.647e-15 1.001 0
1.80676e-14 1.001 0
-1.38132e-14 1.001 0
3.63933e-15 1.001 0
1.21299e-14 1.00077 0
4.39436e-15 1.00077 0
3.63933e-15 1.001 0
-5.44422e-15 1.001 0
4.39436e-15 1.00077 0
6.07758e-16 1.00077 0
-6.31261e-15 1.00077 0
8.75538e-15 1.00077 0
1.63498e-14 1.00082 0
-1.56433e-14 1.00082 0
8.75538e-15 1.00077 0
-1.77893e-14 1.00077 0
-1.56433e-14 1.00082 0
2.68225e-14 1.00082 0
-8.46112e-15 1.00082 0
1.56045e-14 1.00082 0
2.89437e-15 1.00077 0
-1.61621e-15 1.00077 0
1.56045e-14 1.00082 0
-1.8033e-14 1.00082 0
-1.61621e-15 1.00077 0
1.27238e-14 1.00077 0
-1.77893e-14 1.00077 0
-9.27807e-15 1.00077 0
2.68225e-14 1.00082 0
1.66795e-14 1.00082 0
-9.27807e-15 1.00077 0
5.00634e-15 1.00077 0
1.66795e-14 1.00082 0
6.15276e-15 1.00082 0
-1.8033e-14 1.00082 0
-9.51524e-15 1.00082 0
1.27238e-14 1.00077 0
6.76811e-15 1.00077 0
-9.51524e-15 1.00082 0
-5.4625e-15 1.00082 0
6.76811e-15 1.00077 0
6.5533e-15 1.00077 0
8.47759e-16 1.00077 0
-1.0988e-15 1.00077 0
4.46329e-15 1.00075 0
-8.77601e-15 1.00075 0
-1.0988e-15 1.00077 0
-4.98973e-15 1.00077 0
-8.77601e-15 1.00075 0
6.28336e-15 1.00075 0
4.70665e-15 1.00075 0
4.93008e-15 1.00075 0
-6.11945e-15 1.00072 0
6.02015e-15 1.00072 0
4.93008e-15 1.00075 0
-8.94173e-15 1.00075 0
6.02015e-15 1.00072 0
1.11643e-14 1.00072 0
-4.98973e-15 1.00077 0
-6.26786e-15 1.00077 0
6.28336e-15 1.00075 0
2.64688e-15 1.00075 0
-6.26786e-15 1.00077 0
7.12661e-15 1.00077 0
2.64688e-15 1.00075 0
-1.93058e-16 1.00075 0
-8.94173e-15 1.00075 0
3.1394e-15 1.00075 0
1.11643e-14 1.00072 0
6.09864e-15 1.00072 0
3.1394e-15 1.00075 0
-5.71329e-15 1.00075 0
6.09864e-15 1.00072 0
1.60157e-14 1.00072 0
3.5309e-16 1.00072 0
-7.75612e-15 1.00072 0
-2.82827e-15 1.0007 0
1.06983e-14 1.0007 0
-7.75612e-15 1.00072 0
-5.11899e-15 1.00072 0
1.06983e-14 1.0007 0
6.49955e-15 1.0007 0
1.86111e-15 1.0007 0
-1.06127e-14 1.0007 0
1.22603e-14 1.00067 0
1.55768e-14 1.00067 0
-1.06127e-14 1.0007 0
-7.82648e-15 1.0007 0
1.55768e-14 1.00067 0
6.75371e-15 1.00067 0
-5.11899e-15 1.00072 0
-1.16319e-14 1.00072 0
6.49955e-15 1.0007 0
1.12552e-14 1.0007 0
-1.16319e-14 1.00072 0
-1.90689e-14 1.00072 0
1.12552e-14 1.0007 0
1.33192e-14 1.0007 0
-7.82648e-15 1.0007 0
-3.30803e-15 1.0007 0
6.75371e-15 1.00067 0
3.565e-15 1.00067 0
-3.30803e-15 1.0007 0
-4.24713e-15 1.0007 0
3.565e-15 1.00067 0
4.8126e-15 1.00067 0
7.12661e-15 1.00077 0
2.29808e-15 1.00077 0
-1.93058e-16 1.00075 0
-4.21772e-16 1.00075 0
2.29808e-15 1.00077 0
-4.49482e-15 1.00077 0
-4.21772e-16 1.00075 0
1.57472e-14 1.00075 0
-5.71329e-15 1.00075 0
4.28397e-15 1.00075 0
1.60157e-14 1.00072 0
5.1657e-15 1.00072 0
4.28397e-15 1.00075 0
-1.47847e-14 1.00075 0
5.1657e-15 1.00072 0
1.42693e-14 1.00072 0
-4.49482e-15 1.00077 0
7.90525e-15 1.00077 0
1.57472e-14 1.00075 0
-4.43511e-16 1.00075 0
7.90525e-15 1.00077 0
-3.21499e-15 1.00077 0
-4.43511e-16 1.00075 0
1.32041e-14 1.00075 0
-1.47847e-14 1.00075 0
2.92346e-15 1.00075 0
1.42693e-14 1.00072 0
1.35245e-15 1.00072 0
2.92346e-15 1.00075 0
-8.3066e-15 1.00075 0
1.35245e-15 1.00072 0
-3.66416e-16 1.00072 0
-1.90689e-14 1.00072 0
-1.0654e-14 1.00072 0
1.33192e-14 1.0007 0
3.9425e-16 1.0007 0
-1.0654e-14 1.00072 0
-8.03157e-15 1.00072 0
3.9425e-16 1.0007 0
6.24742e-15 1.0007 0
-4.24713e-15 1.0007 0
3.04877e-15 1.0007 0
4.8126e-15 1.00067 0
7.67384e-15 1.00067 0
3.04877e-15 1.0007 0
-4.94022e-15 1.0007 0
7.67384e-15 1.00067 0
3.00635e-15 1.00067 0
-8.03157e-15 1.00072 0
-1.06034e-15 1.00072 0
6.24742e-15 1.0007 0
8.57943e-15 1.0007 0
-1.06034e-15 1.00072 0
1.03791e-14 1.00072 0
8.57943e-15 1.0007 0
-4.23424e-15 1.0007 0
-4.94022e-15 1.0007 0
-8.11675e-15 1.0007 0
3.00635e-15 1.00067 0
5.34742e-15 1.00067 0
-8.11675e-15 1.0007 0
7.38806e-15 1.0007 0
5.34742e-15 1.00067 0
4.57833e-16 1.00067 0
0 1.00067 0
-7.53682e-14 1.00067 0
0 1.00065 0
-7.97578e-14 1.00065 0
-7.53682e-14 1.00067 0
-6.25724e-15 1.00067 0
-7.97578e-14 1.00065 0
-9.37228e-15 1.00065 0
0 1.00065 0
7.25944e-14 1.00065 0
0 1.00062 0
6.16192e-14 1.00062 0
7.25944e-14 1.00065 0
-6.29582e-15 1.00065 0
6.16192e-14 1.00062 0
-7.72536e-15 1.00062 0
-6.25724e-15 1.00067 0
1.73823e-14 1.00067 0
-9.37228e-15 1.00065 0
-3.90586e-15 1.00065 0
1.73823e-14 1.00067 0
-6.78161e-15 1.00067 0
-3.90586e-15 1.00065 0
6.595e-15 1.00065 0
-6.29582e-15 1.00065 0
-3.59384e-16 1.00065 0
-7.72536e-15 1.00062 0
-7.17551e-15 1.00062 0
-3.59384e-16 1.00065 0
-8.37921e-16 1.00065 0
-7.17551e-15 1.00062 0
1.48719e-14 1.00062 0
0 1.00062 0
-4.68304e-14 1.00062 0
0 1.0006 0
-4.38452e-14 1.0006 0
-4.68304e-14 1.00062 0
-9.59033e-15 1.00062 0
-4.38452e-14 1.0006 0
-1.2327e-14 1.0006 0
0 1.0006 0
4.42431e-14 1.0006 0
0 1.00057 0
4.62747e-14 1.00057 0
4.42431e-14 1.0006 0
4.76344e-14 1.0006 0
4.62747e-14 1.00057 0
2.6284e-14 1.00057 0
-9.59033e-15 1.00062 0
5.2079e-15 1.00062 0
-1.2327e-14 1.0006 0
1.37807e-14 1.0006 0
5.2079e-15 1.00062 0
-1.01774e-14 1.00062 0
1.37807e-14 1.0006 0
1.25369e-14 1.0006 0
4.76344e-14 1.0006 0
-1.88546e-14 1.0006 0
2.6284e-14 1.00057 0
-1.51999e-14 1.00057 0
-1.88546e-14 1.0006 0
-7.55342e-15 1.0006 0
-1.51999e-14 1.00057 0
-1.02592e-14 1.00057 0
-6.78161e-15 1.00067 0
-8.23478e-15 1.00067 0
6.595e-15 1.00065 0
-6.83788e-15 1.00065 0
-8.23478e-15 1.00067 0
-7.10149e-15 1.00067 0
-6.83788e-15 1.00065 0
5.38824e-15 1.00065 0
-8.37921e-16 1.00065 0
6.14134e-15 1.00065 0
1.48719e-14 1.00062 0
8.53586e-15 1.00062 0
6.14134e-15 1.00065 0
-4.36826e-15 1.00065 0
8.53586e-15 1.00062 0
9.24924e-15 1.00062 0
-7.10149e-15 1.00067 0
-3.04852e-15 1.00067 0
5.38824e-15 1.00065 0
1.617e-15 1.00065 0
-3.04852e-15 1.00067 0
-7.84519e-15 1.00067 0
1.617e-15 1.00065 0
5.97598e-15 1.00065 0
-4.36826e-15 1.00065 0
-2.45575e-16 1.00065 0
9.24924e-15 1.00062 0
4.83234e-15 1.00062 0
-2.45575e-16 1.00065 0
-1.16427e-14 1.00065 0
4.83234e-15 1.00062 0
1.20939e-14 1.00062 0
-1.01774e-14 1.00062 0
4.82369e-15 1.00062 0
1.25369e-14 1.0006 0
2.11155e-15 1.0006 0
4.82369e-15 1.00062 0
-2.75281e-15 1.00062 0
2.11155e-15 1.0006 0
2.52263e-15 1.0006 0
-7.55342e-15 1.0006 0
-1.81891e-14 1.0006 0
-1.02592e-14 1.00057 0
5.95518e-15 1.00057 0
-1.81891e-14 1.0006 0
-2.3923e-15 1.0006 0
5.95518e-15 1.00057 0
1.58983e-15 1.00057 0
-2.75281e-15 1.00062 0
-1.15401e-15 1.00062 0
2.52263e-15 1.0006 0
5.26865e-15 1.0006 0
-1.15401e-15 1.00062 0
-3.61335e-15 1.00062 0
5.26865e-15 1.0006 0
4.40913e-15 1.0006 0
-2.3923e-15 1.0006 0
-9.75735e-15 1.0006 0
1.58983e-15 1.00057 0
3.53966e-15 1.00057 0
-9.75735e-15 1.0006 0
3.7882e-16 1.0006 0
3.53966e-15 1.00057 0
1.0379e-14 1.00057 0
0 1.00057 0
-4.9131e-14 1.00057 0
0 1.00055 0
-5.5983e-14 1.00055 0
-4.9131e-14 1.00057 0
-5.41326e-14 1.00057 0
-5.5983e-14 1.00055 0
-5.64726e-14 1.00055 0
0 1.00055 0
6.00695e-14 1.00055 0
0 1.00053 0
5.93544e-14 1.00053 0
6.00695e-14 1.00055 0
2.5587e-14 1.00055 0
5.93544e-14 1.00053 0
2.59881e-14 1.00053 0
-5.41326e-14 1.00057 0
3.21958e-14 1.00057 0
-5.64726e-14 1.00055 0
4.08334e-14 1.00055 0
3.21958e-14 1.00057 0
1.73467e-14 1.00057 0
4.08334e-14 1.00055 0
2.37801e-14 1.00055 0
2.5587e-14 1.00055 0
-3.63971e-14 1.00055 0
2.59881e-14 1.00053 0
-3.01619e-14 1.00053 0
-3.63971e-14 1.00055 0
5.17856e-15 1.00055 0
-3.01619e-14 1.00053 0
8.84386e-15 1.00053 0
0 1.00053 0
-5.42173e-14 1.00053 0
0 1.0005 0
-6.31698e-14 1.0005 0
-5.42173e-14 1.00053 0
3.29627e-14 1.00053 0
-6.31698e-14 1.0005 0
3.48664e-14 1.0005 0
0 1.0005 0
3.39808e-14 1.0005 0
0 1.00048 0
2.81749e-14 1.00048 0
3.39808e-14 1.0005 0
-3.50209e-14 1.0005 0
2.81749e-14 1.00048 0
-2.09515e-14 1.00048 0
3.29627e-14 1.00053 0
9.73332e-15 1.00053 0
3.48664e-14 1.0005 0
1.94712e-14 1.0005 0
9.73332e-15 1.00053 0
-4.15322e-14 1.00053 0
1.94712e-14 1.0005 0
-1.71823e-14 1.0005 0
-3.50209e-14 1.0005 0
-1.02098e-14 1.0005 0
-2.09515e-14 1.00048 0
-4.84763e-15 1.00048 0
-1.02098e-14 1.0005 0
-1.04339e-14 1.0005 0
-4.84763e-15 1.00048 0
7.36363e-15 1.00048 0
1.73467e-14 1.00057 0
-5.77755e-15 1.00057 0
2.37801e-14 1.00055 0
3.6268e-15 1.00055 0
-5.77755e-15 1.00057 0
1.55465e-15 1.00057 0
3.6268e-15 1.00055 0
4.75957e-16 1.00055 0
5.17856e-15 1.00055 0
1.29996e-14 1.00055 0
8.84386e-15 1.00053 0
3.56691e-14 1.00053 0
1.29996e-14 1.00055 0
1.13739e-15 1.00055 0
3.56691e-14 1.00053 0
-3.60879e-15 1.00053 0
1.55465e-15 1.00057 0
3.93861e-15 1.00057 0
4.75957e-16 1.00055 0
6.84659e-15 1.00055 0
3.93861e-15 1.00057 0
-1.74174e-14 1.00057 0
6.84659e-15 1.00055 0
1.11356e-14 1.00055 0
1.13739e-15 1.00055 0
-1.18358e-14 1.00055 0
-3.60879e-15 1.00053 0
1.29808e-14 1.00053 0
-1.18358e-14 1.00055 0
-8.51645e-15 1.00055 0
1.29808e-14 1.00053 0
1.0552e-14 1.00053 0
-4.15322e-14 1.00053 0
-3.94721e-14 1.00053 0
-1.71823e-14 1.0005 0
-2.14809e-14 1.0005 0
-3.94721e-14 1.00053 0
-4.8335e-15 1.00053 0
-2.14809e-14 1.0005 0
8.98036e-15 1.0005 0
-1.04339e-14 1.0005 0
1.23641e-14 1.0005 0
7.36363e-15 1.00048 0
1.71255e-14 1.00048 0
1.23641e-14 1.0005 0
-9.59228e-15 1.0005 0
1.71255e-14 1.00048 0
2.26953e-14 1.00048 0
-4.8335e-15 1.00053 0
-1.36577e-14 1.00053 0
8.98036e-15 1.0005 0
1.02942e-14 1.0005 0
-1.36577e-14 1.00053 0
-1.08275e-14 1.00053 0
1.02942e-14 1.0005 0
7.28172e-15 1.0005 0
-9.59228e-15 1.0005 0
-1.20039e-14 1.0005 0
2.26953e-14 1.00048 0
7.83221e-15 1.00048 0
-1.20039e-14 1.0005 0
-4.48161e-15 1.0005 0
7.83221e-15 1.00048 0
7.17952e-15 1.00048 0
-7.84519e-15 1.00067 0
-9.42293e-15 1.00067 0
5.97598e-15 1.00065 0
8.29596e-15 1.00065 0
-9.42293e-15 1.00067 0
-8.07773e-16 1.00067 0
8.29596e-15 1.00065 0
2.48313e-15 1.00065 0
-1.16427e-14 1.00065 0
-1.11596e-14 1.00065 0
1.20939e-14 1.00062 0
1.65324e-14 1.00062 0
-1.11596e-14 1.00065 0
-1.91476e-15 1.00065 0
1.65324e-14 1.00062 0
1.01856e-14 1.00062 0
-8.07773e-16 1.00067 0
1.77561e-15 1.00067 0
2.48313e-15 1.00065 0
1.74584e-15 1.00065 0
1.77561e-15 1.00067 0
-4.62498e-15 1.00067 0
1.74584e-15 1.00065 0
1.06373e-14 1.00065 0
-1.91476e-15 1.00065 0
-3.06694e-15 1.00065 0
1.01856e-14 1.00062 0
6.56526e-15 1.00062 0
-3.06694e-15 1.00065 0
-7.98476e-15 1.00065 0
6.56526e-15 1.00062 0
1.29537e-14 1.00062 0
-3.61335e-15 1.00062 0
-1.05756e-14 1.00062 0
4.40913e-15 1.0006 0
6.79683e-15 1.0006 0
-1.05756e-14 1.00062 0
-4.16544e-15 1.00062 0
6.79683e-15 1.0006 0
-5.33974e-15 1.0006 0
3.7882e-16 1.0006 0
2.86198e-15 1.0006 0
1.0379e-14 1.00057 0
1.27904e-15 1.00057 0
2.86198e-15 1.0006 0
6.04777e-15 1.0006 0
1.27904e-15 1.00057 0
3.57792e-15 1.00057 0
-4.16544e-15 1.00062 0
-1.25961e-14 1.00062 0
-5.33974e-15 1.0006 0
1.17458e-14 1.0006 0
-1.25961e-14 1.00062 0
-1.16358e-14 1.00062 0
1.17458e-14 1.0006 0
1.06529e-14 1.0006 0
6.04777e-15 1.0006 0
-3.53733e-15 1.0006 0
3.57792e-15 1.00057 0
6.91163e-15 1.00057 0
-3.53733e-15 1.0006 0
1.17069e-16 1.0006 0
6.91163e-15 1.00057 0
-1.5296e-15 1.00057 0
-4.62498e-15 1.00067 0
-9.16798e-15 1.00067 0
1.06373e-14 1.00065 0
1.92832e-14 1.00065 0
-9.16798e-15 1.00067 0
1.46812e-15 1.00067 0
1.92832e-14 1.00065 0
5.76738e-15 1.00065 0
-7.98476e-15 1.00065 0
-1.11058e-14 1.00065 0
1.29537e-14 1.00062 0
9.02103e-16 1.00062 0
-1.11058e-14 1.00065 0
-1.21592e-15 1.00065 0
9.02103e-16 1.00062 0
7.90989e-15 1.00062 0
1.46812e-15 1.00067 0
2.86977e-16 1.00067 0
5.76738e-15 1.00065 0
1.92508e-15 1.00065 0
2.86977e-16 1.00067 0
-8.27275e-16 1.00067 0
1.92508e-15 1.00065 0
2.28769e-16 1.00065 0
-1.21592e-15 1.00065 0
-3.9564e-16 1.00065 0
7.90989e-15 1.00062 0
3.7849e-15 1.00062 0
-3.9564e-16 1.00065 0
1.99985e-15 1.00065 0
3.7849e-15 1.00062 0
-6.95283e-16 1.00062 0
-1.16358e-14 1.00062 0
4.44055e-15 1.00062 0
1.06529e-14 1.0006 0
-5.17741e-16 1.0006 0
4.44055e-15 1.00062 0
-1.03494e-14 1.00062 0
-5.17741e-16 1.0006 0
2.43722e-15 1.0006 0
1.17069e-16 1.0006 0
-6.55278e-15 1.0006 0
-1.5296e-15 1.00057 0
1.66101e-14 1.00057 0
-6.55278e-15 1.0006 0
7.35454e-15 1.0006 0
1.66101e-14 1.00057 0
3.25506e-15 1.00057 0
-1.03494e-14 1.00062 0
-8.63196e-15 1.00062 0
2.43722e-15 1.0006 0
1.51537e-14 1.0006 0
-8.63196e-15 1.00062 0
3.8613e-15 1.00062 0
1.51537e-14 1.0006 0
-2.23854e-15 1.0006 0
7.35454e-15 1.0006 0
1.38507e-15 1.0006 0
3.25506e-15 1.00057 0
2.8169e-15 1.00057 0
1.38507e-15 1.0006 0
9.58423e-15 1.0006 0
2.8169e-15 1.00057 0
1.76406e-15 1.00057 0
-1.74174e-14 1.00057 0
-2.55318e-15 1.00057 0
1.11356e-14 1.00055 0
1.02597e-14 1.00055 0
-2.55318e-15 1.00057 0
-8.55594e-15 1.00057 0
1.02597e-14 1.00055 0
1.60041e-14 1.00055 0
-8.51645e-15 1.00055 0
-1.16322e-14 1.00055 0
1.0552e-14 1.00053 0
4.37313e-15 1.00053 0
-1.16322e-14 1.00055 0
-8.17344e-15 1.00055 0
4.37313e-15 1.00053 0
1.23284e-14 1.00053 0
-8.55594e-15 1.00057 0
-9.22088e-15 1.00057 0
1.60041e-14 1.00055 0
1.57516e-14 1.00055 0
-9.22088e-15 1.00057 0
7.73807e-15 1.00057 0
1.57516e-14 1.00055 0
-5.38019e-15 1.00055 0
-8.17344e-15 1.00055 0
-7.1337e-15 1.00055 0
1.23284e-14 1.00053 0
7.60432e-15 1.00053 0
-7.1337e-15 1.00055 0
2.42462e-15 1.00055 0
7.60432e-15 1.00053 0
1.76587e-14 1.00053 0
-1.08275e-14 1.00053 0
2.03286e-15 1.00053 0