# vtk DataFile Version 3.0
#This file was generated by the deal.II library on 2018/10/15 at 21:07:14
ASCII
DATASET UNSTRUCTURED_GRID

POINTS 20480 double
0 0 0
0.19635 0 0
0 0.290165 0
0.19635 0.290165 0
0.19635 0 0
0.392699 0 0
0.19635 0.290165 0
0.392699 0.290165 0
0 0.290165 0
0.19635 0.290165 0
0 0.602896 0
0.19635 0.602896 0
0.19635 0.290165 0
0.392699 0.290165 0
0.19635 0.602896 0
0.392699 0.602896 0
0.392699 0 0
0.589049 0 0
0.392699 0.290165 0
0.589049 0.290165 0
0.589049 0 0
0.785398 0 0
0.589049 0.290165 0
0.785398 0.290165 0
0.392699 0.290165 0
0.589049 0.290165 0
0.392699 0.602896 0
0.589049 0.602896 0
0.589049 0.290165 0
0.785398 0.290165 0
0.589049 0.602896 0
0.785398 0.602896 0
0 0.602896 0
0.19635 0.602896 0
0 0.915403 0
0.19635 0.915403 0
0.19635 0.602896 0
0.392699 0.602896 0
0.19635 0.915403 0
0.392699 0.915403 0
0 0.915403 0
0.19635 0.915403 0
0 1.22901 0
0.19635 1.22901 0
0.19635 0.915403 0
0.392699 0.915403 0
0.19635 1.22901 0
0.392699 1.22901 0
0.392699 0.602896 0
0.589049 0.602896 0
0.392699 0.915403 0
0.589049 0.915403 0
0.589049 0.602896 0
0.785398 0.602896 0
0.589049 0.915403 0
0.785398 0.915403 0
0.392699 0.915403 0
0.589049 0.915403 0
0.392699 1.22901 0
0.589049 1.22901 0
0.589049 0.915403 0
0.785398 0.915403 0
0.589049 1.22901 0
0.785398 1.22901 0
0.785398 0 0
0.981748 0 0
0.785398 0.290165 0
0.981748 0.290165 0
0.981748 0 0
1.1781 0 0
0.981748 0.290165 0
1.1781 0.290165 0
0.785398 0.290165 0
0.981748 0.290165 0
0.785398 0.602896 0
0.981748 0.602896 0
0.981748 0.290165 0
1.1781 0.290165 0
0.981748 0.602896 0
1.1781 0.602896 0
1.1781 0 0
1.37445 0 0
1.1781 0.290165 0
1.37445 0.290165 0
1.37445 0 0
1.5708 0 0
1.37445 0.290165 0
1.5708 0.290165 0
1.1781 0.290165 0
1.37445 0.290165 0
1.1781 0.602896 0
1.37445 0.602896 0
1.37445 0.290165 0
1.5708 0.290165 0
1.37445 0.602896 0
1.5708 0.602896 0
0.785398 0.602896 0
0.981748 0.602896 0
0.785398 0.915403 0
0.981748 0.915403 0
0.981748 0.602896 0
1.1781 0.602896 0
0.981748 0.915403 0
1.1781 0.915403 0
0.785398 0.915403 0
0.981748 0.915403 0
0.785398 1.22901 0
0.981748 1.22901 0
0.981748 0.915403 0
1.1781 0.915403 0
0.981748 1.22901 0
1.1781 1.22901 0
1.1781 0.602896 0
1.37445 0.602896 0
1.1781 0.915403 0
1.37445 0.915403 0
1.37445 0.602896 0
1.5708 0.602896 0
1.37445 0.915403 0
1.5708 0.915403 0
1.1781 0.915403 0
1.37445 0.915403 0
1.1781 1.22901 0
1.37445 1.22901 0
1.37445 0.915403 0
1.5708 0.915403 0
1.37445 1.22901 0
1.5708 1.22901 0
0 1.22901 0
0.19635 1.22901 0
0 1.54233 0
0.19635 1.54233 0
0.19635 1.22901 0
0.392699 1.22901 0
0.19635 1.54233 0
0.392699 1.54233 0
0 1.54233 0
0.19635 1.54233 0
0 1.85574 0
0.19635 1.85574 0
0.19635 1.54233 0
0.392699 1.54233 0
0.19635 1.85574 0
0.392699 1.85574 0
0.392699 1.22901 0
0.589049 1.22901 0
0.392699 1.54233 0
0.589049 1.54233 0
0.589049 1.22901 0
0.785398 1.22901 0
0.589049 1.54233 0
0.785398 1.54233 0
0.392699 1.54233 0
0.589049 1.54233 0
0.392699 1.85574 0
0.589049 1.85574 0
0.589049 1.54233 0
0.785398 1.54233 0
0.589049 1.85574 0
0.785398 1.85574 0
0 1.85574 0
0.19635 1.85574 0
0 2.1691 0
0.19635 2.1691 0
0.19635 1.85574 0
0.392699 1.85574 0
0.19635 2.1691 0
0.392699 2.1691 0
0 2.1691 0
0.19635 2.1691 0
0 2.48246 0
0.19635 2.48246 0
0.19635 2.1691 0
0.392699 2.1691 0
0.19635 2.48246 0
0.392699 2.48246 0
0.392699 1.85574 0
0.589049 1.85574 0
0.392699 2.1691 0
0.589049 2.1691 0
0.589049 1.85574 0
0.785398 1.85574 0
0.589049 2.1691 0
0.785398 2.1691 0
0.392699 2.1691 0
0.589049 2.1691 0
0.392699 2.48246 0
0.589049 2.48246 0
0.589049 2.1691 0
0.785398 2.1691 0
0.589049 2.48246 0
0.785398 2.48246 0
0.785398 1.22901 0
0.981748 1.22901 0
0.785398 1.54233 0
0.981748 1.54233 0
0.981748 1.22901 0
1.1781 1.22901 0
0.981748 1.54233 0
1.1781 1.54233 0
0.785398 1.54233 0
0.981748 1.54233 0
0.785398 1.85574 0
0.981748 1.85574 0
0.981748 1.54233 0
1.1781 1.54233 0
0.981748 1.85574 0
1.1781 1.85574 0
1.1781 1.22901 0
1.37445 1.22901 0
1.1781 1.54233 0
1.37445 1.54233 0
1.37445 1.22901 0
1.5708 1.22901 0
1.37445 1.54233 0
1.5708 1.54233 0
1.1781 1.54233 0
1.37445 1.54233 0
1.1781 1.85574 0
1.37445 1.85574 0
1.37445 1.54233 0
1.5708 1.54233 0
1.37445 1.85574 0
1.5708 1.85574 0
0.785398 1.85574 0
0.981748 1.85574 0
0.785398 2.1691 0
0.981748 2.1691 0
0.981748 1.85574 0
1.1781 1.85574 0
0.981748 2.1691 0
1.1781 2.1691 0
0.785398 2.1691 0
0.981748 2.1691 0
0.785398 2.48246 0
0.981748 2.48246 0
0.981748 2.1691 0
1.1781 2.1691 0
0.981748 2.48246 0
1.1781 2.48246 0
1.1781 1.85574 0
1.37445 1.85574 0
1.1781 2.1691 0
1.37445 2.1691 0
1.37445 1.85574 0
1.5708 1.85574 0
1.37445 2.1691 0
1.5708 2.1691 0
1.1781 2.1691 0
1.37445 2.1691 0
1.1781 2.48246 0
1.37445 2.48246 0
1.37445 2.1691 0
1.5708 2.1691 0
1.37445 2.48246 0
1.5708 2.48246 0
1.5708 0 0
1.76715 0 0
1.5708 0.290165 0
1.76715 0.290165 0
1.76715 0 0
1.9635 0 0
1.76715 0.290165 0
1.9635 0.290165 0
1.5708 0.290165 0
1.76715 0.290165 0
1.5708 0.602896 0
1.76715 0.602896 0
1.76715 0.290165 0
1.9635 0.290165 0
1.76715 0.602896 0
1.9635 0.602896 0
1.9635 0 0
2.15984 0 0
1.9635 0.290165 0
2.15984 0.290165 0
2.15984 0 0
2.35619 0 0
2.15984 0.290165 0
2.35619 0.290165 0
1.9635 0.290165 0
2.15984 0.290165 0
1.9635 0.602896 0
2.15984 0.602896 0
2.15984 0.290165 0
2.35619 0.290165 0
2.15984 0.602896 0
2.35619 0.602896 0
1.5708 0.602896 0
1.76715 0.602896 0
1.5708 0.915403 0
1.76715 0.915403 0
1.76715 0.602896 0
1.9635 0.602896 0
1.76715 0.915403 0
1.9635 0.915403 0
1.5708 0.915403 0
1.76715 0.915403 0
1.5708 1.22901 0
1.76715 1.22901 0
1.76715 0.915403 0
1.9635 0.915403 0
1.76715 1.22901 0
1.9635 1.22901 0
1.9635 0.602896 0
2.15984 0.602896 0
1.9635 0.915403 0
2.15984 0.915403 0
2.15984 0.602896 0
2.35619 0.602896 0
2.15984 0.915403 0
2.35619 0.915403 0
1.9635 0.915403 0
2.15984 0.915403 0
1.9635 1.22901 0
2.15984 1.22901 0
2.15984 0.915403 0
2.35619 0.915403 0
2.15984 1.22901 0
2.35619 1.22901 0
2.35619 0 0
2.55254 0 0
2.35619 0.290165 0
2.55254 0.290165 0
2.55254 0 0
2.74889 0 0
2.55254 0.290165 0
2.74889 0.290165 0
2.35619 0.290165 0
2.55254 0.290165 0
2.35619 0.602896 0
2.55254 0.602896 0
2.55254 0.290165 0
2.74889 0.290165 0
2.55254 0.602896 0
2.74889 0.602896 0
2.74889 0 0
2.94524 0 0
2.74889 0.290165 0
2.94524 0.290165 0
2.94524 0 0
3.14159 0 0
2.94524 0.290165 0
3.14159 0.290165 0
2.74889 0.290165 0
2.94524 0.290165 0
2.74889 0.602896 0
2.94524 0.602896 0
2.94524 0.290165 0
3.14159 0.290165 0
2.94524 0.602896 0
3.14159 0.602896 0
2.35619 0.602896 0
2.55254 0.602896 0
2.35619 0.915403 0
2.55254 0.915403 0
2.55254 0.602896 0
2.74889 0.602896 0
2.55254 0.915403 0
2.74889 0.915403 0
2.35619 0.915403 0
2.55254 0.915403 0
2.35619 1.22901 0
2.55254 1.22901 0
2.55254 0.915403 0
2.74889 0.915403 0
2.55254 1.22901 0
2.74889 1.22901 0
2.74889 0.602896 0
2.94524 0.602896 0
2.74889 0.915403 0
2.94524 0.915403 0
2.94524 0.602896 0
3.14159 0.602896 0
2.94524 0.915403 0
3.14159 0.915403 0
2.74889 0.915403 0
2.94524 0.915403 0
2.74889 1.22901 0
2.94524 1.22901 0
2.94524 0.915403 0
3.14159 0.915403 0
2.94524 1.22901 0
3.14159 1.22901 0
1.5708 1.22901 0
1.76715 1.22901 0
1.5708 1.54233 0
1.76715 1.54233 0
1.76715 1.22901 0
1.9635 1.22901 0
1.76715 1.54233 0
1.9635 1.54233 0
1.5708 1.54233 0
1.76715 1.54233 0
1.5708 1.85574 0
1.76715 1.85574 0
1.76715 1.54233 0
1.9635 1.54233 0
1.76715 1.85574 0
1.9635 1.85574 0
1.9635 1.22901 0
2.15984 1.22901 0
1.9635 1.54233 0
2.15984 1.54233 0
2.15984 1.22901 0
2.35619 1.22901 0
2.15984 1.54233 0
2.35619 1.54233 0
1.9635 1.54233 0
2.15984 1.54233 0
1.9635 1.85574 0
2.15984 1.85574 0
2.15984 1.54233 0
2.35619 1.54233 0
2.15984 1.85574 0
2.35619 1.85574 0
1.5708 1.85574 0
1.76715 1.85574 0
1.5708 2.1691 0
1.76715 2.1691 0
1.76715 1.85574 0
1.9635 1.85574 0
1.76715 2.1691 0
1.9635 2.1691 0
1.5708 2.1691 0
1.76715 2.1691 0
1.5708 2.48246 0
1.76715 2.48246 0
1.76715 2.1691 0
1.9635 2.1691 0
1.76715 2.48246 0
1.9635 2.48246 0
1.9635 1.85574 0
2.15984 1.85574 0
1.9635 2.1691 0
2.15984 2.1691 0
2.15984 1.85574 0
2.35619 1.85574 0
2.15984 2.1691 0
2.35619 2.1691 0
1.9635 2.1691 0
2.15984 2.1691 0
1.9635 2.48246 0
2.15984 2.48246 0
2.15984 2.1691 0
2.35619 2.1691 0
2.15984 2.48246 0
2.35619 2.48246 0
2.35619 1.22901 0
2.55254 1.22901 0
2.35619 1.54233 0
2.55254 1.54233 0
2.55254 1.22901 0
2.74889 1.22901 0
2.55254 1.54233 0
2.74889 1.54233 0
2.35619 1.54233 0
2.55254 1.54233 0
2.35619 1.85574 0
2.55254 1.85574 0
2.55254 1.54233 0
2.74889 1.54233 0
2.55254 1.85574 0
2.74889 1.85574 0
2.74889 1.22901 0
2.94524 1.22901 0
2.74889 1.54233 0
2.94524 1.54233 0
2.94524 1.22901 0
3.14159 1.22901 0
2.94524 1.54233 0
3.14159 1.54233 0
2.74889 1.54233 0
2.94524 1.54233 0
2.74889 1.85574 0
2.94524 1.85574 0
2.94524 1.54233 0
3.14159 1.54233 0
2.94524 1.85574 0
3.14159 1.85574 0
2.35619 1.85574 0
2.55254 1.85574 0
2.35619 2.1691 0
2.55254 2.1691 0
2.55254 1.85574 0
2.74889 1.85574 0
2.55254 2.1691 0
2.74889 2.1691 0
2.35619 2.1691 0
2.55254 2.1691 0
2.35619 2.48246 0
2.55254 2.48246 0
2.55254 2.1691 0
2.74889 2.1691 0
2.55254 2.48246 0
2.74889 2.48246 0
2.74889 1.85574 0
2.94524 1.85574 0
2.74889 2.1691 0
2.94524 2.1691 0
2.94524 1.85574 0
3.14159 1.85574 0
2.94524 2.1691 0
3.14159 2.1691 0
2.74889 2.1691 0
2.94524 2.1691 0
2.74889 2.48246 0
2.94524 2.48246 0
2.94524 2.1691 0
3.14159 2.1691 0
2.94524 2.48246 0
3.14159 2.48246 0
0 2.48246 0
0.19635 2.48246 0
0 2.79579 0
0.19635 2.79579 0
0.19635 2.48246 0
0.392699 2.48246 0
0.19635 2.79579 0
0.392699 2.79579 0
0 2.79579 0
0.19635 2.79579 0
0 3.1091 0
0.19635 3.1091 0
0.19635 2.79579 0
0.392699 2.79579 0
0.19635 3.1091 0
0.392699 3.1091 0
0.392699 2.48246 0
0.589049 2.48246 0
0.392699 2.79579 0
0.589049 2.79579 0
0.589049 2.48246 0
0.785398 2.48246 0
0.589049 2.79579 0
0.785398 2.79579 0
0.392699 2.79579 0
0.589049 2.79579 0
0.392699 3.1091 0
0.589049 3.1091 0
0.589049 2.79579 0
0.785398 2.79579 0
0.589049 3.1091 0
0.785398 3.1091 0
0 3.1091 0
0.19635 3.1091 0
0 3.4224 0
0.19635 3.4224 0
0.19635 3.1091 0
0.392699 3.1091 0
0.19635 3.4224 0
0.392699 3.4224 0
0 3.4224 0
0.19635 3.4224 0
0 3.73568 0
0.19635 3.73568 0
[...]
POINT_DATA 20480
VECTORS velocity double
0 0 0
0 0 0
0 -0.00363656 0
-5.44417e-16 -0.00363656 0
0 0 0
0 0 0
-5.44417e-16 -0.00363656 0
2.66982e-15 -0.00363656 0
0 -0.00363656 0
-5.44417e-16 -0.00363656 0
0 -0.00374527 0
2.54482e-16 -0.00374527 0
-5.44417e-16 -0.00363656 0
2.66982e-15 -0.00363656 0
2.54482e-16 -0.00374527 0
-1.3779e-15 -0.00374527 0
0 0 0
0 0 0
2.66982e-15 -0.00363656 0
1.43325e-15 -0.00363656 0
0 0 0
0 0 0
1.43325e-15 -0.00363656 0
1.75869e-15 -0.00363656 0
2.66982e-15 -0.00363656 0
1.43325e-15 -0.00363656 0
-1.3779e-15 -0.00374527 0
1.34697e-15 -0.00374527 0
1.43325e-15 -0.00363656 0
1.75869e-15 -0.00363656 0
1.34697e-15 -0.00374527 0
-8.15096e-16 -0.00374527 0
0 -0.00374527 0
2.54482e-16 -0.00374527 0
0 -0.00378239 0
1.11861e-15 -0.00378239 0
2.54482e-16 -0.00374527 0
-1.3779e-15 -0.00374527 0
1.11861e-15 -0.00378239 0
-1.29469e-15 -0.00378239 0
0 -0.00378239 0
1.11861e-15 -0.00378239 0
0 -0.00358193 0
-1.78567e-15 -0.00358193 0
1.11861e-15 -0.00378239 0
-1.29469e-15 -0.00378239 0
-1.78567e-15 -0.00358193 0
-1.35008e-15 -0.00358193 0
-1.3779e-15 -0.00374527 0
1.34697e-15 -0.00374527 0
-1.29469e-15 -0.00378239 0
3.92914e-15 -0.00378239 0
1.34697e-15 -0.00374527 0
-8.15096e-16 -0.00374527 0
3.92914e-15 -0.00378239 0
-3.51658e-15 -0.00378239 0
-1.29469e-15 -0.00378239 0
3.92914e-15 -0.00378239 0
-1.35008e-15 -0.00358193 0
-4.61013e-15 -0.00358193 0
3.92914e-15 -0.00378239 0
-3.51658e-15 -0.00378239 0
-4.61013e-15 -0.00358193 0
-5.27674e-16 -0.00358193 0
0 0 0
0 0 0
1.75869e-15 -0.00363656 0
1.65967e-15 -0.00363656 0
0 0 0
0 0 0
1.65967e-15 -0.00363656 0
-1.0212e-15 -0.00363656 0
1.75869e-15 -0.00363656 0
1.65967e-15 -0.00363656 0
-8.15096e-16 -0.00374527 0
-1.96431e-16 -0.00374527 0
1.65967e-15 -0.00363656 0
-1.0212e-15 -0.00363656 0
-1.96431e-16 -0.00374527 0
5.04471e-15 -0.00374527 0
0 0 0
0 0 0
-1.0212e-15 -0.00363656 0
4.06819e-16 -0.00363656 0
0 0 0
0 0 0
4.06819e-16 -0.00363656 0
-1.26444e-15 -0.00363656 0
-1.0212e-15 -0.00363656 0
4.06819e-16 -0.00363656 0
5.04471e-15 -0.00374527 0
1.59978e-15 -0.00374527 0
4.06819e-16 -0.00363656 0
-1.26444e-15 -0.00363656 0
1.59978e-15 -0.00374527 0
-6.32927e-16 -0.00374527 0
-8.15096e-16 -0.00374527 0
-1.96431e-16 -0.00374527 0
-3.51658e-15 -0.00378239 0
8.35929e-16 -0.00378239 0
-1.96431e-16 -0.00374527 0
5.04471e-15 -0.00374527 0
8.35929e-16 -0.00378239 0
2.1882e-15 -0.00378239 0
-3.51658e-15 -0.00378239 0
8.35929e-16 -0.00378239 0
-5.27674e-16 -0.00358193 0
-9.7081e-16 -0.00358193 0
8.35929e-16 -0.00378239 0
2.1882e-15 -0.00378239 0
-9.7081e-16 -0.00358193 0
-2.62811e-15 -0.00358193 0
5.04471e-15 -0.00374527 0
1.59978e-15 -0.00374527 0
2.1882e-15 -0.00378239 0
9.46799e-16 -0.00378239 0
1.59978e-15 -0.00374527 0
-6.32927e-16 -0.00374527 0
9.46799e-16 -0.00378239 0
6.54529e-16 -0.00378239 0
2.1882e-15 -0.00378239 0
9.46799e-16 -0.00378239 0
-2.62811e-15 -0.00358193 0
-2.17517e-15 -0.00358193 0
9.46799e-16 -0.00378239 0
6.54529e-16 -0.00378239 0
-2.17517e-15 -0.00358193 0
5.95132e-16 -0.00358193 0
0 -0.00358193 0
-1.78567e-15 -0.00358193 0
0 -0.0034456 0
3.9961e-15 -0.0034456 0
-1.78567e-15 -0.00358193 0
-1.35008e-15 -0.00358193 0
3.9961e-15 -0.0034456 0
-6.50899e-15 -0.0034456 0
0 -0.0034456 0
3.9961e-15 -0.0034456 0
0 -0.00328367 0
4.29993e-15 -0.00328367 0
3.9961e-15 -0.0034456 0
-6.50899e-15 -0.0034456 0
4.29993e-15 -0.00328367 0
2.7153e-15 -0.00328367 0
-1.35008e-15 -0.00358193 0
-4.61013e-15 -0.00358193 0
-6.50899e-15 -0.0034456 0
-6.24698e-16 -0.0034456 0
-4.61013e-15 -0.00358193 0
-5.27674e-16 -0.00358193 0
-6.24698e-16 -0.0034456 0
-4.68795e-15 -0.0034456 0
-6.50899e-15 -0.0034456 0
-6.24698e-16 -0.0034456 0
2.7153e-15 -0.00328367 0
4.06797e-15 -0.00328367 0
-6.24698e-16 -0.0034456 0
-4.68795e-15 -0.0034456 0
4.06797e-15 -0.00328367 0
4.48624e-15 -0.00328367 0
0 -0.00328367 0
4.29993e-15 -0.00328367 0
0 -0.00313547 0
2.83731e-15 -0.00313547 0
4.29993e-15 -0.00328367 0
2.7153e-15 -0.00328367 0
2.83731e-15 -0.00313547 0
-2.07305e-15 -0.00313547 0
0 -0.00313547 0
2.83731e-15 -0.00313547 0
0 -0.00298674 0
-2.05803e-15 -0.00298674 0
2.83731e-15 -0.00313547 0
-2.07305e-15 -0.00313547 0
-2.05803e-15 -0.00298674 0
2.0851e-15 -0.00298674 0
2.7153e-15 -0.00328367 0
4.06797e-15 -0.00328367 0
-2.07305e-15 -0.00313547 0
5.64702e-16 -0.00313547 0
4.06797e-15 -0.00328367 0
4.48624e-15 -0.00328367 0
5.64702e-16 -0.00313547 0
1.21087e-15 -0.00313547 0
-2.07305e-15 -0.00313547 0
5.64702e-16 -0.00313547 0
2.0851e-15 -0.00298674 0
-6.23466e-15 -0.00298674 0
5.64702e-16 -0.00313547 0
1.21087e-15 -0.00313547 0
-6.23466e-15 -0.00298674 0
-4.70652e-15 -0.00298674 0
-5.27674e-16 -0.00358193 0
-9.7081e-16 -0.00358193 0
-4.68795e-15 -0.0034456 0
-2.52266e-15 -0.0034456 0
-9.7081e-16 -0.00358193 0
-2.62811e-15 -0.00358193 0
-2.52266e-15 -0.0034456 0
-3.29171e-15 -0.0034456 0
-4.68795e-15 -0.0034456 0
-2.52266e-15 -0.0034456 0
4.48624e-15 -0.00328367 0
4.31203e-15 -0.00328367 0
-2.52266e-15 -0.0034456 0
-3.29171e-15 -0.0034456 0
4.31203e-15 -0.00328367 0
-1.52562e-15 -0.00328367 0
-2.62811e-15 -0.00358193 0
-2.17517e-15 -0.00358193 0
-3.29171e-15 -0.0034456 0
-4.00501e-15 -0.0034456 0
-2.17517e-15 -0.00358193 0
5.95132e-16 -0.00358193 0
-4.00501e-15 -0.0034456 0
1.37611e-15 -0.0034456 0
-3.29171e-15 -0.0034456 0
-4.00501e-15 -0.0034456 0
-1.52562e-15 -0.00328367 0
-2.98934e-15 -0.00328367 0
-4.00501e-15 -0.0034456 0
1.37611e-15 -0.0034456 0
-2.98934e-15 -0.00328367 0
-2.44868e-15 -0.00328367 0
4.48624e-15 -0.00328367 0
4.31203e-15 -0.00328367 0
1.21087e-15 -0.00313547 0
3.12444e-15 -0.00313547 0
4.31203e-15 -0.00328367 0
-1.52562e-15 -0.00328367 0
3.12444e-15 -0.00313547 0
3.46987e-15 -0.00313547 0
1.21087e-15 -0.00313547 0
3.12444e-15 -0.00313547 0
-4.70652e-15 -0.00298674 0
-4.83765e-16 -0.00298674 0
3.12444e-15 -0.00313547 0
3.46987e-15 -0.00313547 0
-4.83765e-16 -0.00298674 0
-4.90432e-15 -0.00298674 0
-1.52562e-15 -0.00328367 0
-2.98934e-15 -0.00328367 0
3.46987e-15 -0.00313547 0
-6.24001e-15 -0.00313547 0
-2.98934e-15 -0.00328367 0
-2.44868e-15 -0.00328367 0
-6.24001e-15 -0.00313547 0
4.2995e-15 -0.00313547 0
3.46987e-15 -0.00313547 0
-6.24001e-15 -0.00313547 0
-4.90432e-15 -0.00298674 0
1.93694e-15 -0.00298674 0
-6.24001e-15 -0.00313547 0
4.2995e-15 -0.00313547 0
1.93694e-15 -0.00298674 0
6.68296e-15 -0.00298674 0
0 0 0
0 0 0
-1.26444e-15 -0.00363656 0
-4.65293e-15 -0.00363656 0
0 0 0
0 0 0
-4.65293e-15 -0.00363656 0
4.12609e-15 -0.00363656 0
-1.26444e-15 -0.00363656 0
-4.65293e-15 -0.00363656 0
-6.32927e-16 -0.00374527 0
-1.48983e-16 -0.00374527 0
-4.65293e-15 -0.00363656 0
4.12609e-15 -0.00363656 0
-1.48983e-16 -0.00374527 0
-3.28194e-15 -0.00374527 0
0 0 0
0 0 0
4.12609e-15 -0.00363656 0
1.38044e-15 -0.00363656 0
0 0 0
0 0 0
1.38044e-15 -0.00363656 0
-3.82596e-15 -0.00363656 0
4.12609e-15 -0.00363656 0
1.38044e-15 -0.00363656 0
-3.28194e-15 -0.00374527 0
4.57504e-15 -0.00374527 0
1.38044e-15 -0.00363656 0
-3.82596e-15 -0.00363656 0
4.57504e-15 -0.00374527 0
3.95885e-15 -0.00374527 0
-6.32927e-16 -0.00374527 0
-1.48983e-16 -0.00374527 0
6.54529e-16 -0.00378239 0
2.91223e-15 -0.00378239 0
-1.48983e-16 -0.00374527 0
-3.28194e-15 -0.00374527 0
2.91223e-15 -0.00378239 0
-2.7081e-15 -0.00378239 0
6.54529e-16 -0.00378239 0
2.91223e-15 -0.00378239 0
5.95132e-16 -0.00358193 0
-1.2045e-15 -0.00358193 0
2.91223e-15 -0.00378239 0
-2.7081e-15 -0.00378239 0
-1.2045e-15 -0.00358193 0
1.07125e-15 -0.00358193 0
-3.28194e-15 -0.00374527 0
4.57504e-15 -0.00374527 0
-2.7081e-15 -0.00378239 0
1.11753e-15 -0.00378239 0
4.57504e-15 -0.00374527 0
3.95885e-15 -0.00374527 0
1.11753e-15 -0.00378239 0
-6.57587e-16 -0.00378239 0
-2.7081e-15 -0.00378239 0
1.11753e-15 -0.00378239 0
1.07125e-15 -0.00358193 0
2.68933e-17 -0.00358193 0
1.11753e-15 -0.00378239 0
-6.57587e-16 -0.00378239 0
2.68933e-17 -0.00358193 0
-1.66684e-15 -0.00358193 0
0 0 0
0 0 0
-3.82596e-15 -0.00363656 0
4.0501e-16 -0.00363656 0
0 0 0
0 0 0
4.0501e-16 -0.00363656 0
2.28858e-15 -0.00363656 0
-3.82596e-15 -0.00363656 0
4.0501e-16 -0.00363656 0
3.95885e-15 -0.00374527 0
7.40613e-16 -0.00374527 0
4.0501e-16 -0.00363656 0
2.28858e-15 -0.00363656 0
7.40613e-16 -0.00374527 0
-1.28913e-15 -0.00374527 0
0 0 0
0 0 0
2.28858e-15 -0.00363656 0
1.49595e-15 -0.00363656 0
0 0 0
0 0 0
1.49595e-15 -0.00363656 0
3.66091e-15 -0.00363656 0
2.28858e-15 -0.00363656 0
1.49595e-15 -0.00363656 0
-1.28913e-15 -0.00374527 0
7.81059e-16 -0.00374527 0
1.49595e-15 -0.00363656 0
3.66091e-15 -0.00363656 0
7.81059e-16 -0.00374527 0
-1.11777e-15 -0.00374527 0
3.95885e-15 -0.00374527 0
7.40613e-16 -0.00374527 0
-6.57587e-16 -0.00378239 0
1.52102e-15 -0.00378239 0
7.40613e-16 -0.00374527 0
-1.28913e-15 -0.00374527 0
1.52102e-15 -0.00378239 0
3.66159e-15 -0.00378239 0
-6.57587e-16 -0.00378239 0
1.52102e-15 -0.00378239 0
-1.66684e-15 -0.00358193 0
-2.12402e-15 -0.00358193 0
1.52102e-15 -0.00378239 0
3.66159e-15 -0.00378239 0
-2.12402e-15 -0.00358193 0
4.73786e-15 -0.00358193 0
-1.28913e-15 -0.00374527 0
7.81059e-16 -0.00374527 0
3.66159e-15 -0.00378239 0
-2.3009e-15 -0.00378239 0
7.81059e-16 -0.00374527 0
-1.11777e-15 -0.00374527 0
-2.3009e-15 -0.00378239 0
4.37143e-15 -0.00378239 0
3.66159e-15 -0.00378239 0
-2.3009e-15 -0.00378239 0
4.73786e-15 -0.00358193 0
8.66938e-16 -0.00358193 0
-2.3009e-15 -0.00378239 0
4.37143e-15 -0.00378239 0
8.66938e-16 -0.00358193 0
-6.8213e-16 -0.00358193 0
5.95132e-16 -0.00358193 0
-1.2045e-15 -0.00358193 0
1.37611e-15 -0.0034456 0
-2.02275e-15 -0.0034456 0
-1.2045e-15 -0.00358193 0
1.07125e-15 -0.00358193 0
-2.02275e-15 -0.0034456 0
3.58944e-15 -0.0034456 0
1.37611e-15 -0.0034456 0
-2.02275e-15 -0.0034456 0
-2.44868e-15 -0.00328367 0
-1.71818e-15 -0.00328367 0
-2.02275e-15 -0.0034456 0
3.58944e-15 -0.0034456 0
-1.71818e-15 -0.00328367 0
-2.01597e-15 -0.00328367 0
1.07125e-15 -0.00358193 0
2.68933e-17 -0.00358193 0
3.58944e-15 -0.0034456 0
-4.78566e-16 -0.0034456 0
2.68933e-17 -0.00358193 0
-1.66684e-15 -0.00358193 0
-4.78566e-16 -0.0034456 0
-1.85536e-16 -0.0034456 0
3.58944e-15 -0.0034456 0
-4.78566e-16 -0.0034456 0
-2.01597e-15 -0.00328367 0
-3.32629e-15 -0.00328367 0
-4.78566e-16 -0.0034456 0
-1.85536e-16 -0.0034456 0
-3.32629e-15 -0.00328367 0
8.24758e-16 -0.00328367 0
-2.44868e-15 -0.00328367 0
-1.71818e-15 -0.00328367 0
4.2995e-15 -0.00313547 0
-6.2539e-15 -0.00313547 0
-1.71818e-15 -0.00328367 0
-2.01597e-15 -0.00328367 0
-6.2539e-15 -0.00313547 0
-2.05768e-16 -0.00313547 0
4.2995e-15 -0.00313547 0
-6.2539e-15 -0.00313547 0
6.68296e-15 -0.00298674 0
8.53061e-15 -0.00298674 0
-6.2539e-15 -0.00313547 0
-2.05768e-16 -0.00313547 0
8.53061e-15 -0.00298674 0
1.00172e-14 -0.00298674 0
-2.01597e-15 -0.00328367 0
-3.32629e-15 -0.00328367 0
-2.05768e-16 -0.00313547 0
-8.03065e-16 -0.00313547 0
-3.32629e-15 -0.00328367 0
8.24758e-16 -0.00328367 0
-8.03065e-16 -0.00313547 0
2.55046e-15 -0.00313547 0
-2.05768e-16 -0.00313547 0
-8.03065e-16 -0.00313547 0
1.00172e-14 -0.00298674 0
5.30398e-15 -0.00298674 0
-8.03065e-16 -0.00313547 0
2.55046e-15 -0.00313547 0
5.30398e-15 -0.00298674 0
4.84116e-15 -0.00298674 0
-1.66684e-15 -0.00358193 0
-2.12402e-15 -0.00358193 0
-1.85536e-16 -0.0034456 0
4.09795e-15 -0.0034456 0
-2.12402e-15 -0.00358193 0
4.73786e-15 -0.00358193 0
4.09795e-15 -0.0034456 0
2.5494e-15 -0.0034456 0
-1.85536e-16 -0.0034456 0
4.09795e-15 -0.0034456 0
8.24758e-16 -0.00328367 0
-1.33964e-16 -0.00328367 0
4.09795e-15 -0.0034456 0
2.5494e-15 -0.0034456 0
-1.33964e-16 -0.00328367 0
-2.17166e-15 -0.00328367 0
4.73786e-15 -0.00358193 0
8.66938e-16 -0.00358193 0
2.5494e-15 -0.0034456 0
3.20305e-16 -0.0034456 0
8.66938e-16 -0.00358193 0
-6.8213e-16 -0.00358193 0
3.20305e-16 -0.0034456 0
-3.58026e-15 -0.0034456 0
2.5494e-15 -0.0034456 0
3.20305e-16 -0.0034456 0
-2.17166e-15 -0.00328367 0
2.73199e-15 -0.00328367 0
3.20305e-16 -0.0034456 0
-3.58026e-15 -0.0034456 0
2.73199e-15 -0.00328367 0
-3.11772e-15 -0.00328367 0
8.24758e-16 -0.00328367 0
-1.33964e-16 -0.00328367 0
2.55046e-15 -0.00313547 0
1.48739e-15 -0.00313547 0
-1.33964e-16 -0.00328367 0
-2.17166e-15 -0.00328367 0
1.48739e-15 -0.00313547 0
3.07899e-15 -0.00313547 0
2.55046e-15 -0.00313547 0
1.48739e-15 -0.00313547 0
4.84116e-15 -0.00298674 0
3.17117e-15 -0.00298674 0
1.48739e-15 -0.00313547 0
3.07899e-15 -0.00313547 0
3.17117e-15 -0.00298674 0
9.04055e-15 -0.00298674 0
-2.17166e-15 -0.00328367 0
2.73199e-15 -0.00328367 0
3.07899e-15 -0.00313547 0
8.26799e-15 -0.00313547 0
2.73199e-15 -0.00328367 0
-3.11772e-15 -0.00328367 0
8.26799e-15 -0.00313547 0
4.19867e-15 -0.00313547 0
3.07899e-15 -0.00313547 0
8.26799e-15 -0.00313547 0
9.04055e-15 -0.00298674 0
5.02923e-15 -0.00298674 0
8.26799e-15 -0.00313547 0
4.19867e-15 -0.00313547 0
5.02923e-15 -0.00298674 0
8.88997e-15 -0.00298674 0
0 -0.00298674 0
-2.05803e-15 -0.00298674 0
0 -0.00284273 0
-3.70545e-15 -0.00284273 0
-2.05803e-15 -0.00298674 0
2.0851e-15 -0.00298674 0
-3.70545e-15 -0.00284273 0
2.86122e-15 -0.00284273 0
0 -0.00284273 0
-3.70545e-15 -0.00284273 0
0 -0.00270154 0
5.69495e-15 -0.00270154 0
-3.70545e-15 -0.00284273 0
2.86122e-15 -0.00284273 0
5.69495e-15 -0.00270154 0
3.03706e-15 -0.00270154 0
2.0851e-15 -0.00298674 0
-6.23466e-15 -0.00298674 0
2.86122e-15 -0.00284273 0
-9.12362e-16 -0.00284273 0
-6.23466e-15 -0.00298674 0
-4.70652e-15 -0.00298674 0
-9.12362e-16 -0.00284273 0
-2.13448e-16 -0.00284273 0
2.86122e-15 -0.00284273 0
-9.12362e-16 -0.00284273 0
3.03706e-15 -0.00270154 0
-6.31486e-15 -0.00270154 0
-9.12362e-16 -0.00284273 0
-2.13448e-16 -0.00284273 0
-6.31486e-15 -0.00270154 0
9.11261e-15 -0.00270154 0
0 -0.00270154 0
5.69495e-15 -0.00270154 0
0 -0.00256378 0
-1.10155e-15 -0.00256378 0
5.69495e-15 -0.00270154 0
3.03706e-15 -0.00270154 0
-1.10155e-15 -0.00256378 0
2.3271e-15 -0.00256378 0
0 -0.00256378 0
-1.10155e-15 -0.00256378 0
0 -0.00242917 0
2.68921e-15 -0.00242917 0
-1.10155e-15 -0.00256378 0
2.3271e-15 -0.00256378 0
2.68921e-15 -0.00242917 0
5.94719e-15 -0.00242917 0
3.03706e-15 -0.00270154 0
-6.31486e-15 -0.00270154 0
2.3271e-15 -0.00256378 0
6.01109e-15 -0.00256378 0
-6.31486e-15 -0.00270154 0
9.11261e-15 -0.00270154 0
6.01109e-15 -0.00256378 0
9.87026e-15 -0.00256378 0
2.3271e-15 -0.00256378 0
6.01109e-15 -0.00256378 0
5.94719e-15 -0.00242917 0
-1.31521e-15 -0.00242917 0
6.01109e-15 -0.00256378 0
9.87026e-15 -0.00256378 0
-1.31521e-15 -0.00242917 0
2.3646e-15 -0.00242917 0
-4.70652e-15 -0.00298674 0
-4.83765e-16 -0.00298674 0
-2.13448e-16 -0.00284273 0
1.56322e-15 -0.00284273 0
-4.83765e-16 -0.00298674 0
-4.90432e-15 -0.00298674 0
1.56322e-15 -0.00284273 0
-9.22351e-16 -0.00284273 0
-2.13448e-16 -0.00284273 0
1.56322e-15 -0.00284273 0
9.11261e-15 -0.00270154 0
6.87878e-15 -0.00270154 0
1.56322e-15 -0.00284273 0
-9.22351e-16 -0.00284273 0
6.87878e-15 -0.00270154 0
3.94426e-15 -0.00270154 0
-4.90432e-15 -0.00298674 0
1.93694e-15 -0.00298674 0
-9.22351e-16 -0.00284273 0
7.60102e-16 -0.00284273 0
1.93694e-15 -0.00298674 0
6.68296e-15 -0.00298674 0
7.60102e-16 -0.00284273 0
6.88743e-15 -0.00284273 0
-9.22351e-16 -0.00284273 0
7.60102e-16 -0.00284273 0
3.94426e-15 -0.00270154 0
3.82235e-15 -0.00270154 0
7.60102e-16 -0.00284273 0
6.88743e-15 -0.00284273 0
3.82235e-15 -0.00270154 0
2.0068e-15 -0.00270154 0
9.11261e-15 -0.00270154 0
6.87878e-15 -0.00270154 0
9.87026e-15 -0.00256378 0
6.7289e-15 -0.00256378 0
6.87878e-15 -0.00270154 0
3.94426e-15 -0.00270154 0
6.7289e-15 -0.00256378 0
8.65939e-15 -0.00256378 0
9.87026e-15 -0.00256378 0
6.7289e-15 -0.00256378 0
2.3646e-15 -0.00242917 0
2.22031e-15 -0.00242917 0
6.7289e-15 -0.00256378 0
8.65939e-15 -0.00256378 0
2.22031e-15 -0.00242917 0
8.04061e-15 -0.00242917 0
3.94426e-15 -0.00270154 0
3.82235e-15 -0.00270154 0
8.65939e-15 -0.00256378 0
2.51636e-15 -0.00256378 0
3.82235e-15 -0.00270154 0
2.0068e-15 -0.00270154 0
2.51636e-15 -0.00256378 0
1.24532e-14 -0.00256378 0
8.65939e-15 -0.00256378 0
2.51636e-15 -0.00256378 0
8.04061e-15 -0.00242917 0
1.93744e-15 -0.00242917 0
2.51636e-15 -0.00256378 0
1.24532e-14 -0.00256378 0
1.93744e-15 -0.00242917 0
7.4505e-15 -0.00242917 0
0 -0.00242917 0
2.68921e-15 -0.00242917 0
0 -0.00229773 0
-2.60453e-15 -0.00229773 0
2.68921e-15 -0.00242917 0
5.94719e-15 -0.00242917 0
-2.60453e-15 -0.00229773 0
5.86997e-15 -0.00229773 0
0 -0.00229773 0
-2.60453e-15 -0.00229773 0
0 -0.00216938 0
-5.2891e-15 -0.00216938 0
-2.60453e-15 -0.00229773 0
5.86997e-15 -0.00229773 0
-5.2891e-15 -0.00216938 0
8.61438e-15 -0.00216938 0
5.94719e-15 -0.00242917 0
-1.31521e-15 -0.00242917 0
5.86997e-15 -0.00229773 0
7.57084e-15 -0.00229773 0
-1.31521e-15 -0.00242917 0
2.3646e-15 -0.00242917 0
7.57084e-15 -0.00229773 0
1.35448e-14 -0.00229773 0
5.86997e-15 -0.00229773 0
7.57084e-15 -0.00229773 0
8.61438e-15 -0.00216938 0
4.7959e-15 -0.00216938 0
7.57084e-15 -0.00229773 0
1.35448e-14 -0.00229773 0
4.7959e-15 -0.00216938 0
1.54069e-14 -0.00216938 0
0 -0.00216938 0
-5.2891e-15 -0.00216938 0
0 -0.00204405 0
-1.36594e-14 -0.00204405 0
-5.2891e-15 -0.00216938 0
8.61438e-15 -0.00216938 0
-1.36594e-14 -0.00204405 0
3.97176e-15 -0.00204405 0
0 -0.00204405 0
-1.36594e-14 -0.00204405 0
0 -0.00192172 0
9.16189e-16 -0.00192172 0
-1.36594e-14 -0.00204405 0
3.97176e-15 -0.00204405 0
9.16189e-16 -0.00192172 0
-1.08102e-14 -0.00192172 0
8.61438e-15 -0.00216938 0
4.7959e-15 -0.00216938 0
3.97176e-15 -0.00204405 0
-3.00348e-15 -0.00204405 0
4.7959e-15 -0.00216938 0
1.54069e-14 -0.00216938 0
-3.00348e-15 -0.00204405 0
-5.37288e-15 -0.00204405 0
3.97176e-15 -0.00204405 0
-3.00348e-15 -0.00204405 0
-1.08102e-14 -0.00192172 0
-1.19176e-15 -0.00192172 0
-3.00348e-15 -0.00204405 0
-5.37288e-15 -0.00204405 0
-1.19176e-15 -0.00192172 0
-6.15288e-15 -0.00192172 0
2.3646e-15 -0.00242917 0
2.22031e-15 -0.00242917 0
1.35448e-14 -0.00229773 0
5.84991e-15 -0.00229773 0
2.22031e-15 -0.00242917 0
8.04061e-15 -0.00242917 0
5.84991e-15 -0.00229773 0
8.38228e-15 -0.00229773 0
1.35448e-14 -0.00229773 0
5.84991e-15 -0.00229773 0
1.54069e-14 -0.00216938 0
4.96819e-15 -0.00216938 0
5.84991e-15 -0.00229773 0
8.38228e-15 -0.00229773 0
4.96819e-15 -0.00216938 0
3.171e-15 -0.00216938 0
8.04061e-15 -0.00242917 0
1.93744e-15 -0.00242917 0
8.38228e-15 -0.00229773 0
1.1376e-14 -0.00229773 0
1.93744e-15 -0.00242917 0
7.4505e-15 -0.00242917 0
1.1376e-14 -0.00229773 0
3.99792e-15 -0.00229773 0
8.38228e-15 -0.00229773 0
1.1376e-14 -0.00229773 0
3.171e-15 -0.00216938 0
2.17879e-15 -0.00216938 0
1.1376e-14 -0.00229773 0
3.99792e-15 -0.00229773 0
2.17879e-15 -0.00216938 0
7.88944e-15 -0.00216938 0
1.54069e-14 -0.00216938 0
4.96819e-15 -0.00216938 0
-5.37288e-15 -0.00204405 0
-1.48144e-14 -0.00204405 0
4.96819e-15 -0.00216938 0
3.171e-15 -0.00216938 0
-1.48144e-14 -0.00204405 0
-1.03559e-14 -0.00204405 0
-5.37288e-15 -0.00204405 0
-1.48144e-14 -0.00204405 0
-6.15288e-15 -0.00192172 0
-3.51149e-15 -0.00192172 0
-1.48144e-14 -0.00204405 0
-1.03559e-14 -0.00204405 0
-3.51149e-15 -0.00192172 0
4.87908e-16 -0.00192172 0
3.171e-15 -0.00216938 0
2.17879e-15 -0.00216938 0
-1.03559e-14 -0.00204405 0
-6.53141e-15 -0.00204405 0
2.17879e-15 -0.00216938 0
7.88944e-15 -0.00216938 0
-6.53141e-15 -0.00204405 0
-1.1436e-14 -0.00204405 0
-1.03559e-14 -0.00204405 0
-6.53141e-15 -0.00204405 0
4.87908e-16 -0.00192172 0
-4.12163e-15 -0.00192172 0
-6.53141e-15 -0.00204405 0
-1.1436e-14 -0.00204405 0
-4.12163e-15 -0.00192172 0
-7.76243e-15 -0.00192172 0
6.68296e-15 -0.00298674 0
8.53061e-15 -0.00298674 0
6.88743e-15 -0.00284273 0
3.48208e-15 -0.00284273 0
8.53061e-15 -0.00298674 0
1.00172e-14 -0.00298674 0
3.48208e-15 -0.00284273 0
3.72002e-15 -0.00284273 0
6.88743e-15 -0.00284273 0
3.48208e-15 -0.00284273 0
2.0068e-15 -0.00270154 0
9.0141e-15 -0.00270154 0
3.48208e-15 -0.00284273 0
3.72002e-15 -0.00284273 0
9.0141e-15 -0.00270154 0
9.78746e-15 -0.00270154 0
1.00172e-14 -0.00298674 0
5.30398e-15 -0.00298674 0
3.72002e-15 -0.00284273 0
3.73338e-15 -0.00284273 0
5.30398e-15 -0.00298674 0
4.84116e-15 -0.00298674 0
3.73338e-15 -0.00284273 0
2.43346e-15 -0.00284273 0
3.72002e-15 -0.00284273 0
3.73338e-15 -0.00284273 0
9.78746e-15 -0.00270154 0
9.95869e-15 -0.00270154 0
3.73338e-15 -0.00284273 0
2.43346e-15 -0.00284273 0
9.95869e-15 -0.00270154 0