# vtk DataFile Version 3.0
#This file was generated by the deal.II library on 2018/10/15 at 12:09:09
ASCII
DATASET UNSTRUCTURED_GRID

POINTS 20480 double
0 0 0
0.19635 0 0
0 0.299101 0
0.19635 0.299101 0
0.19635 0 0
0.392699 0 0
0.19635 0.299101 0
0.392699 0.299101 0
0 0.299101 0
0.19635 0.299101 0
0 0.611956 0
0.19635 0.611956 0
0.19635 0.299101 0
0.392699 0.299101 0
0.19635 0.611956 0
0.392699 0.611956 0
0.392699 0 0
0.589049 0 0
0.392699 0.299101 0
0.589049 0.299101 0
0.589049 0 0
0.785398 0 0
0.589049 0.299101 0
0.785398 0.299101 0
0.392699 0.299101 0
0.589049 0.299101 0
0.392699 0.611956 0
0.589049 0.611956 0
0.589049 0.299101 0
0.785398 0.299101 0
0.589049 0.611956 0
0.785398 0.611956 0
0 0.611956 0
0.19635 0.611956 0
0 0.924513 0
0.19635 0.924513 0
0.19635 0.611956 0
0.392699 0.611956 0
0.19635 0.924513 0
0.392699 0.924513 0
0 0.924513 0
0.19635 0.924513 0
0 1.23764 0
0.19635 1.23764 0
0.19635 0.924513 0
0.392699 0.924513 0
0.19635 1.23764 0
0.392699 1.23764 0
0.392699 0.611956 0
0.589049 0.611956 0
0.392699 0.924513 0
0.589049 0.924513 0
0.589049 0.611956 0
0.785398 0.611956 0
0.589049 0.924513 0
0.785398 0.924513 0
0.392699 0.924513 0
0.589049 0.924513 0
0.392699 1.23764 0
0.589049 1.23764 0
0.589049 0.924513 0
0.785398 0.924513 0
0.589049 1.23764 0
0.785398 1.23764 0
0.785398 0 0
0.981748 0 0
0.785398 0.299101 0
0.981748 0.299101 0
0.981748 0 0
1.1781 0 0
0.981748 0.299101 0
1.1781 0.299101 0
0.785398 0.299101 0
0.981748 0.299101 0
0.785398 0.611956 0
0.981748 0.611956 0
0.981748 0.299101 0
1.1781 0.299101 0
0.981748 0.611956 0
1.1781 0.611956 0
1.1781 0 0
1.37445 0 0
1.1781 0.299101 0
1.37445 0.299101 0
1.37445 0 0
1.5708 0 0
1.37445 0.299101 0
1.5708 0.299101 0
1.1781 0.299101 0
1.37445 0.299101 0
1.1781 0.611956 0
1.37445 0.611956 0
1.37445 0.299101 0
1.5708 0.299101 0
1.37445 0.611956 0
1.5708 0.611956 0
0.785398 0.611956 0
0.981748 0.611956 0
0.785398 0.924513 0
0.981748 0.924513 0
0.981748 0.611956 0
1.1781 0.611956 0
0.981748 0.924513 0
1.1781 0.924513 0
0.785398 0.924513 0
0.981748 0.924513 0
0.785398 1.23764 0
0.981748 1.23764 0
0.981748 0.924513 0
1.1781 0.924513 0
0.981748 1.23764 0
1.1781 1.23764 0
1.1781 0.611956 0
1.37445 0.611956 0
1.1781 0.924513 0
1.37445 0.924513 0
1.37445 0.611956 0
1.5708 0.611956 0
1.37445 0.924513 0
1.5708 0.924513 0
1.1781 0.924513 0
1.37445 0.924513 0
1.1781 1.23764 0
1.37445 1.23764 0
1.37445 0.924513 0
1.5708 0.924513 0
1.37445 1.23764 0
1.5708 1.23764 0
0 1.23764 0
0.19635 1.23764 0
0 1.55063 0
0.19635 1.55063 0
0.19635 1.23764 0
0.392699 1.23764 0
0.19635 1.55063 0
0.392699 1.55063 0
0 1.55063 0
0.19635 1.55063 0
0 1.86366 0
0.19635 1.86366 0
0.19635 1.55063 0
0.392699 1.55063 0
0.19635 1.86366 0
0.392699 1.86366 0
0.392699 1.23764 0
0.589049 1.23764 0
0.392699 1.55063 0
0.589049 1.55063 0
0.589049 1.23764 0
0.785398 1.23764 0
0.589049 1.55063 0
0.785398 1.55063 0
0.392699 1.55063 0
0.589049 1.55063 0
0.392699 1.86366 0
0.589049 1.86366 0
0.589049 1.55063 0
0.785398 1.55063 0
0.589049 1.86366 0
0.785398 1.86366 0
0 1.86366 0
0.19635 1.86366 0
0 2.17666 0
0.19635 2.17666 0
0.19635 1.86366 0
0.392699 1.86366 0
0.19635 2.17666 0
0.392699 2.17666 0
0 2.17666 0
0.19635 2.17666 0
0 2.48966 0
0.19635 2.48966 0
0.19635 2.17666 0
0.392699 2.17666 0
0.19635 2.48966 0
0.392699 2.48966 0
0.392699 1.86366 0
0.589049 1.86366 0
0.392699 2.17666 0
0.589049 2.17666 0
0.589049 1.86366 0
0.785398 1.86366 0
0.589049 2.17666 0
0.785398 2.17666 0
0.392699 2.17666 0
0.589049 2.17666 0
0.392699 2.48966 0
0.589049 2.48966 0
0.589049 2.17666 0
0.785398 2.17666 0
0.589049 2.48966 0
0.785398 2.48966 0
0.785398 1.23764 0
0.981748 1.23764 0
0.785398 1.55063 0
0.981748 1.55063 0
0.981748 1.23764 0
1.1781 1.23764 0
0.981748 1.55063 0
1.1781 1.55063 0
0.785398 1.55063 0
0.981748 1.55063 0
0.785398 1.86366 0
0.981748 1.86366 0
0.981748 1.55063 0
1.1781 1.55063 0
0.981748 1.86366 0
1.1781 1.86366 0
1.1781 1.23764 0
1.37445 1.23764 0
1.1781 1.55063 0
1.37445 1.55063 0
1.37445 1.23764 0
1.5708 1.23764 0
1.37445 1.55063 0
1.5708 1.55063 0
1.1781 1.55063 0
1.37445 1.55063 0
1.1781 1.86366 0
1.37445 1.86366 0
1.37445 1.55063 0
1.5708 1.55063 0
1.37445 1.86366 0
1.5708 1.86366 0
0.785398 1.86366 0
0.981748 1.86366 0
0.785398 2.17666 0
0.981748 2.17666 0
0.981748 1.86366 0
1.1781 1.86366 0
0.981748 2.17666 0
1.1781 2.17666 0
0.785398 2.17666 0
0.981748 2.17666 0
0.785398 2.48966 0
0.981748 2.48966 0
0.981748 2.17666 0
1.1781 2.17666 0
0.981748 2.48966 0
1.1781 2.48966 0
1.1781 1.86366 0
1.37445 1.86366 0
1.1781 2.17666 0
1.37445 2.17666 0
1.37445 1.86366 0
1.5708 1.86366 0
1.37445 2.17666 0
1.5708 2.17666 0
1.1781 2.17666 0
1.37445 2.17666 0
1.1781 2.48966 0
1.37445 2.48966 0
1.37445 2.17666 0
1.5708 2.17666 0
1.37445 2.48966 0
1.5708 2.48966 0
1.5708 0 0
1.76715 0 0
1.5708 0.299101 0
1.76715 0.299101 0
1.76715 0 0
1.9635 0 0
1.76715 0.299101 0
1.9635 0.299101 0
1.5708 0.299101 0
1.76715 0.299101 0
1.5708 0.611956 0
1.76715 0.611956 0
1.76715 0.299101 0
1.9635 0.299101 0
1.76715 0.611956 0
1.9635 0.611956 0
1.9635 0 0
2.15984 0 0
1.9635 0.299101 0
2.15984 0.299101 0
2.15984 0 0
2.35619 0 0
2.15984 0.299101 0
2.35619 0.299101 0
1.9635 0.299101 0
2.15984 0.299101 0
1.9635 0.611956 0
2.15984 0.611956 0
2.15984 0.299101 0
2.35619 0.299101 0
2.15984 0.611956 0
2.35619 0.611956 0
1.5708 0.611956 0
1.76715 0.611956 0
1.5708 0.924513 0
1.76715 0.924513 0
1.76715 0.611956 0
1.9635 0.611956 0
1.76715 0.924513 0
1.9635 0.924513 0
1.5708 0.924513 0
1.76715 0.924513 0
1.5708 1.23764 0
1.76715 1.23764 0
1.76715 0.924513 0
1.9635 0.924513 0
1.76715 1.23764 0
1.9635 1.23764 0
1.9635 0.611956 0
2.15984 0.611956 0
1.9635 0.924513 0
2.15984 0.924513 0
2.15984 0.611956 0
2.35619 0.611956 0
2.15984 0.924513 0
2.35619 0.924513 0
1.9635 0.924513 0
2.15984 0.924513 0
1.9635 1.23764 0
2.15984 1.23764 0
2.15984 0.924513 0
2.35619 0.924513 0
2.15984 1.23764 0
2.35619 1.23764 0
2.35619 0 0
2.55254 0 0
2.35619 0.299101 0
2.55254 0.299101 0
2.55254 0 0
2.74889 0 0
2.55254 0.299101 0
2.74889 0.299101 0
2.35619 0.299101 0
2.55254 0.299101 0
2.35619 0.611956 0
2.55254 0.611956 0
2.55254 0.299101 0
2.74889 0.299101 0
2.55254 0.611956 0
2.74889 0.611956 0
2.74889 0 0
2.94524 0 0
2.74889 0.299101 0
2.94524 0.299101 0
2.94524 0 0
3.14159 0 0
2.94524 0.299101 0
3.14159 0.299101 0
2.74889 0.299101 0
2.94524 0.299101 0
2.74889 0.611956 0
2.94524 0.611956 0
2.94524 0.299101 0
3.14159 0.299101 0
2.94524 0.611956 0
3.14159 0.611956 0
2.35619 0.611956 0
2.55254 0.611956 0
2.35619 0.924513 0
2.55254 0.924513 0
2.55254 0.611956 0
2.74889 0.611956 0
2.55254 0.924513 0
2.74889 0.924513 0
2.35619 0.924513 0
2.55254 0.924513 0
2.35619 1.23764 0
2.55254 1.23764 0
2.55254 0.924513 0
2.74889 0.924513 0
2.55254 1.23764 0
2.74889 1.23764 0
2.74889 0.611956 0
2.94524 0.611956 0
2.74889 0.924513 0
2.94524 0.924513 0
2.94524 0.611956 0
3.14159 0.611956 0
2.94524 0.924513 0
3.14159 0.924513 0
2.74889 0.924513 0
2.94524 0.924513 0
2.74889 1.23764 0
2.94524 1.23764 0
2.94524 0.924513 0
3.14159 0.924513 0
2.94524 1.23764 0
3.14159 1.23764 0
1.5708 1.23764 0
1.76715 1.23764 0
1.5708 1.55063 0
1.76715 1.55063 0
1.76715 1.23764 0
1.9635 1.23764 0
1.76715 1.55063 0
1.9635 1.55063 0
1.5708 1.55063 0
1.76715 1.55063 0
1.5708 1.86366 0
1.76715 1.86366 0
1.76715 1.55063 0
1.9635 1.55063 0
1.76715 1.86366 0
1.9635 1.86366 0
1.9635 1.23764 0
2.15984 1.23764 0
1.9635 1.55063 0
2.15984 1.55063 0
2.15984 1.23764 0
2.35619 1.23764 0
2.15984 1.55063 0
2.35619 1.55063 0
1.9635 1.55063 0
2.15984 1.55063 0
1.9635 1.86366 0
2.15984 1.86366 0
2.15984 1.55063 0
2.35619 1.55063 0
2.15984 1.86366 0
2.35619 1.86366 0
1.5708 1.86366 0
1.76715 1.86366 0
1.5708 2.17666 0
1.76715 2.17666 0
1.76715 1.86366 0
1.9635 1.86366 0
1.76715 2.17666 0
1.9635 2.17666 0
1.5708 2.17666 0
1.76715 2.17666 0
1.5708 2.48966 0
1.76715 2.48966 0
1.76715 2.17666 0
1.9635 2.17666 0
1.76715 2.48966 0
1.9635 2.48966 0
1.9635 1.86366 0
2.15984 1.86366 0
1.9635 2.17666 0
2.15984 2.17666 0
2.15984 1.86366 0
2.35619 1.86366 0
2.15984 2.17666 0
2.35619 2.17666 0
1.9635 2.17666 0
2.15984 2.17666 0
1.9635 2.48966 0
2.15984 2.48966 0
2.15984 2.17666 0
2.35619 2.17666 0
2.15984 2.48966 0
2.35619 2.48966 0
2.35619 1.23764 0
2.55254 1.23764 0
2.35619 1.55063 0
2.55254 1.55063 0
2.55254 1.23764 0
2.74889 1.23764 0
2.55254 1.55063 0
2.74889 1.55063 0
2.35619 1.55063 0
2.55254 1.55063 0
2.35619 1.86366 0
2.55254 1.86366 0
2.55254 1.55063 0
2.74889 1.55063 0
2.55254 1.86366 0
2.74889 1.86366 0
2.74889 1.23764 0
2.94524 1.23764 0
2.74889 1.55063 0
2.94524 1.55063 0
2.94524 1.23764 0
3.14159 1.23764 0
2.94524 1.55063 0
3.14159 1.55063 0
2.74889 1.55063 0
2.94524 1.55063 0
2.74889 1.86366 0
2.94524 1.86366 0
2.94524 1.55063 0
3.14159 1.55063 0
2.94524 1.86366 0
3.14159 1.86366 0
2.35619 1.86366 0
2.55254 1.86366 0
2.35619 2.17666 0
2.55254 2.17666 0
2.55254 1.86366 0
2.74889 1.86366 0
2.55254 2.17666 0
2.74889 2.17666 0
2.35619 2.17666 0
2.55254 2.17666 0
2.35619 2.48966 0
2.55254 2.48966 0
2.55254 2.17666 0
2.74889 2.17666 0
2.55254 2.48966 0
2.74889 2.48966 0
2.74889 1.86366 0
2.94524 1.86366 0
2.74889 2.17666 0
2.94524 2.17666 0
2.94524 1.86366 0
3.14159 1.86366 0
2.94524 2.17666 0
3.14159 2.17666 0
2.74889 2.17666 0
2.94524 2.17666 0
2.74889 2.48966 0
2.94524 2.48966 0
2.94524 2.17666 0
3.14159 2.17666 0
2.94524 2.48966 0
3.14159 2.48966 0
0 2.48966 0
0.19635 2.48966 0
0 2.80265 0
0.19635 2.80265 0
0.19635 2.48966 0
0.392699 2.48966 0
0.19635 2.80265 0
0.392699 2.80265 0
0 2.80265 0
0.19635 2.80265 0
0 3.11562 0
0.19635 3.11562 0
0.19635 2.80265 0
0.392699 2.80265 0
0.19635 3.11562 0
0.392699 3.11562 0
0.392699 2.48966 0
0.589049 2.48966 0
0.392699 2.80265 0
0.589049 2.80265 0
0.589049 2.48966 0
0.785398 2.48966 0
0.589049 2.80265 0
0.785398 2.80265 0
0.392699 2.80265 0
0.589049 2.80265 0
0.392699 3.11562 0
0.589049 3.11562 0
0.589049 2.80265 0
0.785398 2.80265 0
0.589049 3.11562 0
0.785398 3.11562 0
0 3.11562 0
0.19635 3.11562 0
0 3.42859 0
0.19635 3.42859 0
0.19635 3.11562 0
0.392699 3.11562 0
0.19635 3.42859 0
[...]
POINT_DATA 20480
VECTORS uf double
0 1 0
-8.94621e-15 1 0
0 1.00094 0
6.70104e-15 1.00094 0
-8.94621e-15 1 0
6.90158e-15 1 0
6.70104e-15 1.00094 0
-1.18012e-14 1.00094 0
0 1.00094 0
8.53411e-15 1.00094 0
0 1.0007 0
-4.92159e-15 1.0007 0
8.53411e-15 1.00094 0
8.76667e-15 1.00094 0
-4.92159e-15 1.0007 0
-4.9282e-15 1.0007 0
6.90158e-15 1 0
9.94752e-15 1 0
-1.18012e-14 1.00094 0
-1.2726e-14 1.00094 0
9.94752e-15 1 0
-8.42343e-15 1 0
-1.2726e-14 1.00094 0
1.75452e-14 1.00094 0
8.76667e-15 1.00094 0
3.26979e-15 1.00094 0
-4.9282e-15 1.0007 0
-6.51489e-15 1.0007 0
3.26979e-15 1.00094 0
-1.70656e-14 1.00094 0
-6.51489e-15 1.0007 0
1.30206e-14 1.0007 0
0 1.0007 0
2.92293e-15 1.0007 0
0 1.00075 0
2.37995e-14 1.00075 0
2.92293e-15 1.0007 0
4.39696e-15 1.0007 0
2.37995e-14 1.00075 0
-6.25643e-15 1.00075 0
0 1.00075 0
-3.35639e-14 1.00075 0
0 1.0007 0
-1.79438e-14 1.0007 0
-3.35639e-14 1.00075 0
6.48121e-15 1.00075 0
-1.79438e-14 1.0007 0
7.99871e-15 1.0007 0
4.39696e-15 1.0007 0
-7.21493e-15 1.0007 0
-6.25643e-15 1.00075 0
3.03487e-14 1.00075 0
-7.21493e-15 1.0007 0
-2.12463e-15 1.0007 0
3.03487e-14 1.00075 0
6.47263e-15 1.00075 0
6.48121e-15 1.00075 0
-2.1315e-14 1.00075 0
7.99871e-15 1.0007 0
9.00097e-15 1.0007 0
-2.1315e-14 1.00075 0
-6.10114e-15 1.00075 0
9.00097e-15 1.0007 0
5.87196e-15 1.0007 0
-8.42343e-15 1 0
-1.70608e-14 1 0
1.75452e-14 1.00094 0
1.77364e-14 1.00094 0
-1.70608e-14 1 0
5.98151e-15 1 0
1.77364e-14 1.00094 0
-1.07743e-14 1.00094 0
-1.70656e-14 1.00094 0
-6.41153e-15 1.00094 0
1.30206e-14 1.0007 0
1.64798e-15 1.0007 0
-6.41153e-15 1.00094 0
-2.33491e-15 1.00094 0
1.64798e-15 1.0007 0
1.3879e-14 1.0007 0
5.98151e-15 1 0
6.52631e-15 1 0
-1.07743e-14 1.00094 0
-3.18516e-15 1.00094 0
6.52631e-15 1 0
1.10944e-14 1 0
-3.18516e-15 1.00094 0
-6.32074e-15 1.00094 0
-2.33491e-15 1.00094 0
-9.16778e-15 1.00094 0
1.3879e-14 1.0007 0
5.39064e-15 1.0007 0
-9.16778e-15 1.00094 0
-3.03501e-15 1.00094 0
5.39064e-15 1.0007 0
-4.97309e-15 1.0007 0
-2.12463e-15 1.0007 0
4.88444e-15 1.0007 0
6.47263e-15 1.00075 0
5.85013e-15 1.00075 0
4.88444e-15 1.0007 0
-2.00524e-15 1.0007 0
5.85013e-15 1.00075 0
2.91534e-15 1.00075 0
-6.10114e-15 1.00075 0
-5.17174e-15 1.00075 0
5.87196e-15 1.0007 0
6.48832e-17 1.0007 0
-5.17174e-15 1.00075 0
-1.19601e-14 1.00075 0
6.48832e-17 1.0007 0
1.35564e-14 1.0007 0
-2.00524e-15 1.0007 0
-9.81762e-15 1.0007 0
2.91534e-15 1.00075 0
1.04292e-14 1.00075 0
-9.81762e-15 1.0007 0
3.73789e-15 1.0007 0
1.04292e-14 1.00075 0
1.5062e-15 1.00075 0
-1.19601e-14 1.00075 0
7.05242e-15 1.00075 0
1.35564e-14 1.0007 0
-5.78676e-15 1.0007 0
7.05242e-15 1.00075 0
4.23263e-15 1.00075 0
-5.78676e-15 1.0007 0
2.17244e-15 1.0007 0
0 1.0007 0
2.26812e-14 1.0007 0
0 1.00069 0
1.30604e-15 1.00069 0
2.26812e-14 1.0007 0
-2.06954e-14 1.0007 0
1.30604e-15 1.00069 0
-8.8481e-15 1.00069 0
0 1.00069 0
-4.86537e-15 1.00069 0
0 1.00066 0
-1.52327e-14 1.00066 0
-4.86537e-15 1.00069 0
2.12003e-14 1.00069 0
-1.52327e-14 1.00066 0
2.519e-14 1.00066 0
-2.06954e-14 1.0007 0
-5.27827e-15 1.0007 0
-8.8481e-15 1.00069 0
7.43445e-15 1.00069 0
-5.27827e-15 1.0007 0
-5.9693e-15 1.0007 0
7.43445e-15 1.00069 0
1.13801e-15 1.00069 0
2.12003e-14 1.00069 0
-6.53449e-15 1.00069 0
2.519e-14 1.00066 0
6.18544e-15 1.00066 0
-6.53449e-15 1.00069 0
-4.40331e-15 1.00069 0
6.18544e-15 1.00066 0
6.18791e-15 1.00066 0
0 1.00066 0
9.50166e-15 1.00066 0
0 1.00064 0
1.92284e-15 1.00064 0
9.50166e-15 1.00066 0
-4.16318e-14 1.00066 0
1.92284e-15 1.00064 0
-3.30636e-14 1.00064 0
0 1.00064 0
1.9781e-14 1.00064 0
0 1.00061 0
3.02946e-14 1.00061 0
1.9781e-14 1.00064 0
3.23902e-14 1.00064 0
3.02946e-14 1.00061 0
2.69272e-14 1.00061 0
-4.16318e-14 1.00066 0
-1.34559e-15 1.00066 0
-3.30636e-14 1.00064 0
5.86909e-15 1.00064 0
-1.34559e-15 1.00066 0
-6.88504e-15 1.00066 0
5.86909e-15 1.00064 0
1.2879e-14 1.00064 0
3.23902e-14 1.00064 0
-1.24767e-14 1.00064 0
2.69272e-14 1.00061 0
9.91517e-15 1.00061 0
-1.24767e-14 1.00064 0
-1.50623e-14 1.00064 0
9.91517e-15 1.00061 0
1.15476e-14 1.00061 0
-5.9693e-15 1.0007 0
8.46493e-15 1.0007 0
1.13801e-15 1.00069 0
-3.52878e-15 1.00069 0
8.46493e-15 1.0007 0
-3.74281e-15 1.0007 0
-3.52878e-15 1.00069 0
1.28413e-14 1.00069 0
-4.40331e-15 1.00069 0
2.46318e-15 1.00069 0
6.18791e-15 1.00066 0
-4.12539e-15 1.00066 0
2.46318e-15 1.00069 0
-1.07186e-14 1.00069 0
-4.12539e-15 1.00066 0
-6.67296e-15 1.00066 0
-3.74281e-15 1.0007 0
5.67988e-15 1.0007 0
1.28413e-14 1.00069 0
5.39882e-15 1.00069 0
5.67988e-15 1.0007 0
-3.96911e-15 1.0007 0
5.39882e-15 1.00069 0
9.39971e-15 1.00069 0
-1.07186e-14 1.00069 0
-7.69646e-15 1.00069 0
-6.67296e-15 1.00066 0
7.54437e-15 1.00066 0
-7.69646e-15 1.00069 0
-6.7364e-15 1.00069 0
7.54437e-15 1.00066 0
2.1047e-15 1.00066 0
-6.88504e-15 1.00066 0
-3.14946e-15 1.00066 0
1.2879e-14 1.00064 0
4.86081e-15 1.00064 0
-3.14946e-15 1.00066 0
3.68997e-15 1.00066 0
4.86081e-15 1.00064 0
6.18299e-15 1.00064 0
-1.50623e-14 1.00064 0
-9.28438e-15 1.00064 0
1.15476e-14 1.00061 0
2.32252e-14 1.00061 0
-9.28438e-15 1.00064 0
-1.40969e-15 1.00064 0
2.32252e-14 1.00061 0
3.41407e-15 1.00061 0
3.68997e-15 1.00066 0
-6.24357e-15 1.00066 0
6.18299e-15 1.00064 0
1.3045e-14 1.00064 0
-6.24357e-15 1.00066 0
-3.79714e-15 1.00066 0
1.3045e-14 1.00064 0
1.51927e-14 1.00064 0
-1.40969e-15 1.00064 0
-7.09128e-15 1.00064 0
3.41407e-15 1.00061 0
9.4062e-15 1.00061 0
-7.09128e-15 1.00064 0
-8.68764e-15 1.00064 0
9.4062e-15 1.00061 0
1.81173e-14 1.00061 0
1.10944e-14 1 0
1.47815e-15 1 0
-6.32074e-15 1.00094 0
3.66302e-15 1.00094 0
1.47815e-15 1 0
-2.20565e-15 1 0
3.66302e-15 1.00094 0
1.7487e-14 1.00094 0
-3.03501e-15 1.00094 0
-1.64184e-14 1.00094 0
-4.97309e-15 1.0007 0
7.25291e-15 1.0007 0
-1.64184e-14 1.00094 0
-2.46265e-14 1.00094 0
7.25291e-15 1.0007 0
8.7217e-15 1.0007 0
-2.20565e-15 1 0
-4.18213e-15 1 0
1.7487e-14 1.00094 0
1.29784e-15 1.00094 0
-4.18213e-15 1 0
1.12123e-15 1 0
1.29784e-15 1.00094 0
8.40173e-16 1.00094 0
-2.46265e-14 1.00094 0
8.34339e-15 1.00094 0
8.7217e-15 1.0007 0
2.82835e-15 1.0007 0
8.34339e-15 1.00094 0
4.54534e-15 1.00094 0
2.82835e-15 1.0007 0
-3.64554e-15 1.0007 0
3.73789e-15 1.0007 0
-8.06256e-16 1.0007 0
1.5062e-15 1.00075 0
1.25614e-14 1.00075 0
-8.06256e-16 1.0007 0
-8.88507e-15 1.0007 0
1.25614e-14 1.00075 0
1.21725e-14 1.00075 0
4.23263e-15 1.00075 0
-1.80882e-14 1.00075 0
2.17244e-15 1.0007 0
1.82373e-14 1.0007 0
-1.80882e-14 1.00075 0
-1.38668e-15 1.00075 0
1.82373e-14 1.0007 0
3.74665e-15 1.0007 0
-8.88507e-15 1.0007 0
-2.37143e-14 1.0007 0
1.21725e-14 1.00075 0
2.15286e-14 1.00075 0
-2.37143e-14 1.0007 0
1.48718e-15 1.0007 0
2.15286e-14 1.00075 0
5.67066e-15 1.00075 0
-1.38668e-15 1.00075 0
-1.22733e-14 1.00075 0
3.74665e-15 1.0007 0
1.01609e-14 1.0007 0
-1.22733e-14 1.00075 0
-6.69181e-15 1.00075 0
1.01609e-14 1.0007 0
9.35821e-15 1.0007 0
1.12123e-15 1 0
9.779e-15 1 0
8.40173e-16 1.00094 0
-1.49834e-15 1.00094 0
9.779e-15 1 0
-5.73983e-15 1 0
-1.49834e-15 1.00094 0
1.90546e-14 1.00094 0
4.54534e-15 1.00094 0
-5.12037e-15 1.00094 0
-3.64554e-15 1.0007 0
1.40727e-15 1.0007 0
-5.12037e-15 1.00094 0
-1.67059e-14 1.00094 0
1.40727e-15 1.0007 0
7.60019e-15 1.0007 0
-5.73983e-15 1 0
-6.34531e-15 1 0
1.90546e-14 1.00094 0
1.15426e-14 1.00094 0
-6.34531e-15 1 0
-4.52253e-15 1 0
1.15426e-14 1.00094 0
2.31264e-14 1.00094 0
-1.67059e-14 1.00094 0
-6.30307e-15 1.00094 0
7.60019e-15 1.0007 0
1.84801e-14 1.0007 0
-6.30307e-15 1.00094 0
-9.22466e-15 1.00094 0
1.84801e-14 1.0007 0
3.66073e-15 1.0007 0
1.48718e-15 1.0007 0
6.28493e-15 1.0007 0
5.67066e-15 1.00075 0
-1.85679e-15 1.00075 0
6.28493e-15 1.0007 0
8.09598e-15 1.0007 0
-1.85679e-15 1.00075 0
5.33546e-15 1.00075 0
-6.69181e-15 1.00075 0
6.56078e-15 1.00075 0
9.35821e-15 1.0007 0
1.02477e-14 1.0007 0
6.56078e-15 1.00075 0
-8.81331e-16 1.00075 0
1.02477e-14 1.0007 0
4.92572e-15 1.0007 0
8.09598e-15 1.0007 0
-2.07166e-14 1.0007 0
5.33546e-15 1.00075 0
3.5906e-14 1.00075 0
-2.07166e-14 1.0007 0
-3.78492e-16 1.0007 0
3.5906e-14 1.00075 0
2.90761e-14 1.00075 0
-8.81331e-16 1.00075 0
-2.31998e-14 1.00075 0
4.92572e-15 1.0007 0
1.53715e-14 1.0007 0
-2.31998e-14 1.00075 0
-3.40898e-14 1.00075 0
1.53715e-14 1.0007 0
2.40639e-14 1.0007 0
-3.96911e-15 1.0007 0
-4.9467e-15 1.0007 0
9.39971e-15 1.00069 0
1.00965e-14 1.00069 0
-4.9467e-15 1.0007 0
5.76608e-15 1.0007 0
1.00965e-14 1.00069 0
1.44158e-15 1.00069 0
-6.7364e-15 1.00069 0
-3.21401e-15 1.00069 0
2.1047e-15 1.00066 0
7.47161e-15 1.00066 0
-3.21401e-15 1.00069 0
2.76781e-15 1.00069 0
7.47161e-15 1.00066 0
1.06972e-14 1.00066 0
5.76608e-15 1.0007 0
1.03896e-15 1.0007 0
1.44158e-15 1.00069 0
1.69333e-14 1.00069 0
1.03896e-15 1.0007 0
-7.97554e-16 1.0007 0
1.69333e-14 1.00069 0
1.41133e-14 1.00069 0
2.76781e-15 1.00069 0
-2.2746e-14 1.00069 0
1.06972e-14 1.00066 0
3.0765e-14 1.00066 0
-2.2746e-14 1.00069 0
-1.20691e-14 1.00069 0
3.0765e-14 1.00066 0
1.23466e-14 1.00066 0
-3.79714e-15 1.00066 0
-1.17535e-14 1.00066 0
1.51927e-14 1.00064 0
2.09303e-14 1.00064 0
-1.17535e-14 1.00066 0
-1.50903e-14 1.00066 0
2.09303e-14 1.00064 0
2.04656e-14 1.00064 0
-8.68764e-15 1.00064 0
-2.2589e-14 1.00064 0
1.81173e-14 1.00061 0
2.95186e-14 1.00061 0
-2.2589e-14 1.00064 0
-1.8176e-14 1.00064 0
2.95186e-14 1.00061 0
1.74016e-14 1.00061 0
-1.50903e-14 1.00066 0
-1.57905e-14 1.00066 0
2.04656e-14 1.00064 0
7.87224e-15 1.00064 0
-1.57905e-14 1.00066 0
-2.8806e-15 1.00066 0
7.87224e-15 1.00064 0
9.68807e-15 1.00064 0
-1.8176e-14 1.00064 0
3.65372e-15 1.00064 0
1.74016e-14 1.00061 0
-1.75824e-15 1.00061 0
3.65372e-15 1.00064 0
-8.9017e-15 1.00064 0
-1.75824e-15 1.00061 0
1.00451e-14 1.00061 0
-7.97554e-16 1.0007 0
-1.55907e-14 1.0007 0
1.41133e-14 1.00069 0
2.89109e-14 1.00069 0
-1.55907e-14 1.0007 0
9.21665e-15 1.0007 0
2.89109e-14 1.00069 0
-3.53145e-15 1.00069 0
-1.20691e-14 1.00069 0
-2.39903e-14 1.00069 0
1.23466e-14 1.00066 0
1.12251e-14 1.00066 0
-2.39903e-14 1.00069 0
-8.23921e-15 1.00069 0
1.12251e-14 1.00066 0
1.63926e-14 1.00066 0
9.21665e-15 1.0007 0
-1.09871e-14 1.0007 0
-3.53145e-15 1.00069 0
1.87364e-14 1.00069 0
-1.09871e-14 1.0007 0
-1.35657e-15 1.0007 0
1.87364e-14 1.00069 0
-3.2184e-16 1.00069 0
-8.23921e-15 1.00069 0
-3.49708e-15 1.00069 0
1.63926e-14 1.00066 0
-1.24439e-14 1.00066 0
-3.49708e-15 1.00069 0
-7.67186e-15 1.00069 0
-1.24439e-14 1.00066 0
4.60746e-15 1.00066 0
-2.8806e-15 1.00066 0
1.28726e-15 1.00066 0
9.68807e-15 1.00064 0
1.46224e-14 1.00064 0
1.28726e-15 1.00066 0
-1.77301e-14 1.00066 0
1.46224e-14 1.00064 0
2.64463e-14 1.00064 0
-8.9017e-15 1.00064 0
-9.51255e-15 1.00064 0
1.00451e-14 1.00061 0
2.19685e-15 1.00061 0
-9.51255e-15 1.00064 0
-1.22841e-14 1.00064 0
2.19685e-15 1.00061 0
7.0692e-15 1.00061 0
-1.77301e-14 1.00066 0
1.27358e-14 1.00066 0
2.64463e-14 1.00064 0
2.0307e-14 1.00064 0
1.27358e-14 1.00066 0
1.08576e-14 1.00066 0
2.0307e-14 1.00064 0
-1.92509e-15 1.00064 0
-1.22841e-14 1.00064 0
-2.47469e-14 1.00064 0
7.0692e-15 1.00061 0
1.95626e-14 1.00061 0
-2.47469e-14 1.00064 0
3.22824e-15 1.00064 0
1.95626e-14 1.00061 0
8.8944e-15 1.00061 0
0 1.00061 0
-4.04987e-14 1.00061 0
0 1.00059 0
-2.96402e-14 1.00059 0
-4.04987e-14 1.00061 0
7.87832e-16 1.00061 0
-2.96402e-14 1.00059 0
6.8389e-16 1.00059 0
0 1.00059 0
2.73969e-14 1.00059 0
0 1.00057 0
2.97245e-14 1.00057 0
2.73969e-14 1.00059 0
-9.5479e-15 1.00059 0
2.97245e-14 1.00057 0
5.03065e-15 1.00057 0
7.87832e-16 1.00061 0
-4.73217e-15 1.00061 0
6.8389e-16 1.00059 0
8.77123e-15 1.00059 0
-4.73217e-15 1.00061 0
-4.72147e-15 1.00061 0
8.77123e-15 1.00059 0
5.98948e-16 1.00059 0
-9.5479e-15 1.00059 0
-8.7098e-15 1.00059 0
5.03065e-15 1.00057 0
7.99363e-15 1.00057 0
-8.7098e-15 1.00059 0
8.08402e-18 1.00059 0
7.99363e-15 1.00057 0
1.46594e-14 1.00057 0
0 1.00057 0
-1.94535e-14 1.00057 0
0 1.00054 0
-3.22932e-14 1.00054 0
-1.94535e-14 1.00057 0
-2.78952e-14 1.00057 0
-3.22932e-14 1.00054 0
5.0299e-15 1.00054 0
0 1.00054 0
3.09609e-14 1.00054 0
0 1.00052 0
2.03174e-14 1.00052 0
3.09609e-14 1.00054 0
2.10971e-14 1.00054 0
2.03174e-14 1.00052 0
2.64578e-14 1.00052 0
-2.78952e-14 1.00057 0
-1.31638e-14 1.00057 0
5.0299e-15 1.00054 0
1.05975e-14 1.00054 0
-1.31638e-14 1.00057 0
-1.83749e-14 1.00057 0
1.05975e-14 1.00054 0
2.64746e-15 1.00054 0
2.10971e-14 1.00054 0
-9.887e-15 1.00054 0
2.64578e-14 1.00052 0
6.82026e-16 1.00052 0
-9.887e-15 1.00054 0
8.62683e-15 1.00054 0
6.82026e-16 1.00052 0
-3.24821e-15 1.00052 0
-4.72147e-15 1.00061 0
-1.19489e-14 1.00061 0
5.98948e-16 1.00059 0
4.57839e-15 1.00059 0
-1.19489e-14 1.00061 0
-5.58839e-15 1.00061 0
4.57839e-15 1.00059 0
9.56882e-15 1.00059 0
8.08402e-18 1.00059 0
-8.97665e-15 1.00059 0
1.46594e-14 1.00057 0
1.54463e-14 1.00057 0
-8.97665e-15 1.00059 0
-6.0773e-15 1.00059 0
1.54463e-14 1.00057 0
4.0956e-15 1.00057 0
-5.58839e-15 1.00061 0
1.48834e-16 1.00061 0
9.56882e-15 1.00059 0
-8.82447e-17 1.00059 0
1.48834e-16 1.00061 0
-1.88924e-14 1.00061 0
-8.82447e-17 1.00059 0
2.60137e-14 1.00059 0
-6.0773e-15 1.00059 0
-1.90257e-15 1.00059 0
4.0956e-15 1.00057 0
-3.62294e-15 1.00057 0
-1.90257e-15 1.00059 0
-3.05538e-14 1.00059 0
-3.62294e-15 1.00057 0
1.82558e-14 1.00057 0
-1.83749e-14 1.00057 0
-3.45763e-15 1.00057 0
2.64746e-15 1.00054 0
-1.54747e-15 1.00054 0
-3.45763e-15 1.00057 0
-1.09308e-14 1.00057 0
-1.54747e-15 1.00054 0
3.92015e-15 1.00054 0
8.62683e-15 1.00054 0
-1.21899e-14 1.00054 0
-3.24821e-15 1.00052 0
4.96875e-15 1.00052 0
-1.21899e-14 1.00054 0
-4.45253e-15 1.00054 0
4.96875e-15 1.00052 0
6.88455e-15 1.00052 0
-1.09308e-14 1.00057 0
7.03353e-16 1.00057 0
3.92015e-15 1.00054 0
3.63459e-15 1.00054 0
7.03353e-16 1.00057 0
-1.97615e-14 1.00057 0
3.63459e-15 1.00054 0
1.6328e-14 1.00054 0
-4.45253e-15 1.00054 0
-1.40085e-14 1.00054 0
6.88455e-15 1.00052 0
1.12735e-14 1.00052 0
-1.40085e-14 1.00054 0
8.22661e-16 1.00054 0
1.12735e-14 1.00052 0
1.13711e-15 1.00052 0
0 1.00052 0
-2.06348e-14 1.00052 0
0 1.0005 0
-2.55936e-14 1.0005 0
-2.06348e-14 1.00052 0
-3.09041e-14 1.00052 0
-2.55936e-14 1.0005 0
-3.1846e-14 1.0005 0
0 1.0005 0
3.37589e-14 1.0005 0
0 1.00048 0
1.47645e-14 1.00048 0
3.37589e-14 1.0005 0
8.61663e-15 1.0005 0
1.47645e-14 1.00048 0
1.40487e-14 1.00048 0
-3.09041e-14 1.00052 0
1.86019e-14 1.00052 0
-3.1846e-14 1.0005 0
2.8071e-14 1.0005 0
1.86019e-14 1.00052 0
-2.73733e-16 1.00052 0
2.8071e-14 1.0005 0
1.6334e-14 1.0005 0
8.61663e-15 1.0005 0
-2.76846e-14 1.0005 0
1.40487e-14 1.00048 0
-2.4441e-14 1.00048 0
-2.76846e-14 1.0005 0
-6.35715e-15 1.0005 0
-2.4441e-14 1.00048 0
4.55072e-15 1.00048 0
0 1.00048 0
-2.26009e-14 1.00048 0
0 1.00046 0
-3.61986e-14 1.00046 0
-2.26009e-14 1.00048 0
9.89699e-15 1.00048 0
-3.61986e-14 1.00046 0
2.0447e-14 1.00046 0
0 1.00046 0
1.62477e-14 1.00046 0
0 1.00044 0
3.76225e-15 1.00044 0
1.62477e-14 1.00046 0
-1.46741e-14 1.00046 0
3.76225e-15 1.00044 0
-1.28466e-14 1.00044 0
9.89699e-15 1.00048 0
-2.36315e-15 1.00048 0
2.0447e-14 1.00046 0
4.68091e-15 1.00046 0
-2.36315e-15 1.00048 0
-2.77358e-14 1.00048 0
4.68091e-15 1.00046 0
-6.86981e-15 1.00046 0
-1.46741e-14 1.00046 0
8.24575e-15 1.00046 0
-1.28466e-14 1.00044 0
2.12255e-15 1.00044 0
8.24575e-15 1.00046 0
-6.18928e-15 1.00046 0
2.12255e-15 1.00044 0
2.17412e-14 1.00044 0
-2.73733e-16 1.00052 0
-2.69106e-15 1.00052 0
1.6334e-14 1.0005 0
1.50411e-14 1.0005 0
-2.69106e-15 1.00052 0
-2.60188e-15 1.00052 0
1.50411e-14 1.0005 0
4.67411e-15 1.0005 0
-6.35715e-15 1.0005 0
-6.70919e-15 1.0005 0
4.55072e-15 1.00048 0
1.43474e-14 1.00048 0
-6.70919e-15 1.0005 0
-6.21948e-15 1.0005 0
1.43474e-14 1.00048 0
1.03808e-14 1.00048 0
-2.60188e-15 1.00052 0
-4.81584e-15 1.00052 0
4.67411e-15 1.0005 0
1.17946e-14 1.0005 0
-4.81584e-15 1.00052 0
-9.17244e-15 1.00052 0
1.17946e-14 1.0005 0
1.03026e-14 1.0005 0
-6.21948e-15 1.0005 0
-7.84652e-15 1.0005 0
1.03808e-14 1.00048 0
1.89026e-15 1.00048 0
-7.84652e-15 1.0005 0
-9.39486e-15 1.0005 0
1.89026e-15 1.00048 0
1.01269e-14 1.00048 0
-2.77358e-14 1.00048 0
-2.28875e-14 1.00048 0
-6.86981e-15 1.00046 0
-2.88413e-15 1.00046 0
-2.28875e-14 1.00048 0
-1.58489e-14 1.00048 0
-2.88413e-15 1.00046 0
1.29893e-14 1.00046 0
-6.18928e-15 1.00046 0
2.98437e-15 1.00046 0
2.17412e-14 1.00044 0
1.78741e-14 1.00044 0
2.98437e-15 1.00046 0
-4.65575e-15 1.00046 0
1.78741e-14 1.00044 0
1.48951e-15 1.00044 0
-1.58489e-14 1.00048 0
-6.25148e-15 1.00048 0
1.29893e-14 1.00046 0
1.06402e-14 1.00046 0
-6.25148e-15 1.00048 0
-1.36669e-14 1.00048 0
1.06402e-14 1.00046 0
1.26557e-14 1.00046 0
-4.65575e-15 1.00046 0
-6.65065e-15 1.00046 0
1.48951e-15 1.00044 0
7.26715e-15 1.00044 0
-6.65065e-15 1.00046 0
-5.27092e-15 1.00046 0
7.26715e-15 1.00044 0
8.32617e-15 1.00044 0
-1.88924e-14 1.00061 0
-1.74248e-14 1.00061 0
2.60137e-14 1.00059 0
1.92998e-14 1.00059 0
-1.74248e-14 1.00061 0
-1.32734e-14 1.00061 0
1.92998e-14 1.00059 0
1.75803e-14 1.00059 0
-3.05538e-14 1.00059 0
-1.73734e-14 1.00059 0
1.82558e-14 1.00057 0
5.33072e-15 1.00057 0
-1.73734e-14 1.00059 0
-1.62834e-14 1.00059 0
5.33072e-15 1.00057 0
1.40378e-14 1.00057 0
-1.32734e-14 1.00061 0
-1.76736e-15 1.00061 0
1.75803e-14 1.00059 0
1.11781e-14 1.00059 0
-1.76736e-15 1.00061 0
-5.10604e-15 1.00061 0
1.11781e-14 1.00059 0
1.33386e-14 1.00059 0
-1.62834e-14 1.00059 0
-1.12733e-14 1.00059 0
1.40378e-14 1.00057 0
1.57684e-14 1.00057 0
-1.12733e-14 1.00059 0
-1.12496e-14 1.00059 0
1.57684e-14 1.00057 0
8.44473e-15 1.00057 0
-1.97615e-14 1.00057 0
-5.3293e-15 1.00057 0
1.6328e-14 1.00054 0
2.55573e-16 1.00054 0
-5.3293e-15 1.00057 0
-1.77929e-14 1.00057 0
2.55573e-16 1.00054 0
1.42498e-14 1.00054 0
8.22661e-16 1.00054 0
5.56335e-15 1.00054 0
1.13711e-15 1.00052 0
4.40268e-15 1.00052 0
5.56335e-15 1.00054 0
-8.27175e-15 1.00054 0
4.40268e-15 1.00052 0
7.72765e-15 1.00052 0
-1.77929e-14 1.00057 0
-2.48044e-14 1.00057 0
1.42498e-14 1.00054 0
1.3454e-14 1.00054 0
-2.48044e-14 1.00057 0
-1.57032e-14 1.00057 0
1.3454e-14 1.00054 0
1.50804e-14 1.00054 0
-8.27175e-15 1.00054 0
-1.38981e-15 1.00054 0
7.72765e-15 1.00052 0
2.33715e-15 1.00052 0
-1.38981e-15 1.00054 0
-1.1009e-14 1.00054 0
2.33715e-15 1.00052 0
6.50748e-15 1.00052 0
-5.10604e-15 1.00061 0
5.15633e-15 1.00061 0
1.33386e-14 1.00059 0
-6.84158e-15 1.00059 0
5.15633e-15 1.00061 0
-4.98102e-15 1.00061 0
-6.84158e-15 1.00059 0
1.26715e-14 1.00059 0
-1.12496e-14 1.00059 0
5.60658e-15 1.00059 0
8.44473e-15 1.00057 0
-8.22391e-16 1.00057 0
5.60658e-15 1.00059 0
-4.22891e-15 1.00059 0
-8.22391e-16 1.00057 0
-1.1359e-15 1.00057 0
-4.98102e-15 1.00061 0
-7.96246e-15 1.00061 0
1.26715e-14 1.00059 0
1.11542e-14 1.00059 0
-7.96246e-15 1.00061 0
-9.39938e-15 1.00061 0
1.11542e-14 1.00059 0
1.01054e-14 1.00059 0
-4.22891e-15 1.00059 0
-1.31966e-14 1.00059 0
-1.1359e-15 1.00057 0
1.12373e-14 1.00057 0
-1.31966e-14 1.00059 0
-9.08521e-15 1.00059 0
1.12373e-14 1.00057 0
7.81195e-15 1.00057 0
-1.57032e-14 1.00057 0
-1.03818e-14 1.00057 0
1.50804e-14 1.00054 0
1.04843e-14 1.00054 0
-1.03818e-14 1.00057 0
-9.10849e-15 1.00057 0
1.04843e-14 1.00054 0
6.10648e-15 1.00054 0
-1.1009e-14 1.00054 0
-6.86544e-15 1.00054 0
6.50748e-15 1.00052 0
9.40403e-15 1.00052 0
-6.86544e-15 1.00054 0
-1.37794e-15 1.00054 0
9.40403e-15 1.00052 0
2.08189e-15 1.00052 0
-9.10849e-15 1.00057 0
-1.95482e-14 1.00057 0
6.10648e-15 1.00054 0
1.78065e-14 1.00054 0
-1.95482e-14 1.00057 0
-1.11763e-14 1.00057 0
1.78065e-14 1.00054 0
8.74337e-15 1.00054 0
-1.37794e-15 1.00054 0
-3.3643e-16 1.00054 0
2.08189e-15 1.00052 0
-1.05792e-16 1.00052 0
-3.3643e-16 1.00054 0
1.8461e-15 1.00054 0
-1.05792e-16 1.00052 0
1.61095e-15 1.00052 0
-9.17244e-15 1.00052 0
-1.29322e-14 1.00052 0
1.03026e-14 1.0005 0
1.34646e-14 1.0005 0
-1.29322e-14 1.00052 0
-9.15273e-15 1.00052 0
1.34646e-14 1.0005 0
1.57316e-14 1.0005 0
-9.39486e-15 1.0005 0
-8.05007e-15 1.0005 0
1.01269e-14 1.00048 0
3.36625e-15 1.00048 0
-8.05007e-15 1.0005 0
-8.31418e-15 1.0005 0
3.36625e-15 1.00048 0
3.5282e-15 1.00048 0
-9.15273e-15 1.00052 0
-7.39681e-15 1.00052 0
1.57316e-14 1.0005 0
1.06562e-14 1.0005 0
-7.39681e-15 1.00052 0
-1.85993e-15 1.00052 0
1.06562e-14 1.0005 0
6.79149e-15 1.0005 0
-8.31418e-15 1.0005 0
-6.95026e-15 1.0005 0
3.5282e-15 1.00048 0
6.7194e-15 1.00048 0