# vtk DataFile Version 3.0
#This file was generated by the deal.II library on 2018/10/16 at 2:29:49
ASCII
DATASET UNSTRUCTURED_GRID

POINTS 20480 double
0 0 0
0.19635 0 0
0 0.284679 0
0.19635 0.284679 0
0.19635 0 0
0.392699 0 0
0.19635 0.284679 0
0.392699 0.284679 0
0 0.284679 0
0.19635 0.284679 0
0 0.597192 0
0.19635 0.597192 0
0.19635 0.284679 0
0.392699 0.284679 0
0.19635 0.597192 0
0.392699 0.597192 0
0.392699 0 0
0.589049 0 0
0.392699 0.284679 0
0.589049 0.284679 0
0.589049 0 0
0.785398 0 0
0.589049 0.284679 0
0.785398 0.284679 0
0.392699 0.284679 0
0.589049 0.284679 0
0.392699 0.597192 0
0.589049 0.597192 0
0.589049 0.284679 0
0.785398 0.284679 0
0.589049 0.597192 0
0.785398 0.597192 0
0 0.597192 0
0.19635 0.597192 0
0 0.909626 0
0.19635 0.909626 0
0.19635 0.597192 0
0.392699 0.597192 0
0.19635 0.909626 0
0.392699 0.909626 0
0 0.909626 0
0.19635 0.909626 0
0 1.22354 0
0.19635 1.22354 0
0.19635 0.909626 0
0.392699 0.909626 0
0.19635 1.22354 0
0.392699 1.22354 0
0.392699 0.597192 0
0.589049 0.597192 0
0.392699 0.909626 0
0.589049 0.909626 0
0.589049 0.597192 0
0.785398 0.597192 0
0.589049 0.909626 0
0.785398 0.909626 0
0.392699 0.909626 0
0.589049 0.909626 0
0.392699 1.22354 0
0.589049 1.22354 0
0.589049 0.909626 0
0.785398 0.909626 0
0.589049 1.22354 0
0.785398 1.22354 0
0.785398 0 0
0.981748 0 0
0.785398 0.284679 0
0.981748 0.284679 0
0.981748 0 0
1.1781 0 0
0.981748 0.284679 0
1.1781 0.284679 0
0.785398 0.284679 0
0.981748 0.284679 0
0.785398 0.597192 0
0.981748 0.597192 0
0.981748 0.284679 0
1.1781 0.284679 0
0.981748 0.597192 0
1.1781 0.597192 0
1.1781 0 0
1.37445 0 0
1.1781 0.284679 0
1.37445 0.284679 0
1.37445 0 0
1.5708 0 0
1.37445 0.284679 0
1.5708 0.284679 0
1.1781 0.284679 0
1.37445 0.284679 0
1.1781 0.597192 0
1.37445 0.597192 0
1.37445 0.284679 0
1.5708 0.284679 0
1.37445 0.597192 0
1.5708 0.597192 0
0.785398 0.597192 0
0.981748 0.597192 0
0.785398 0.909626 0
0.981748 0.909626 0
0.981748 0.597192 0
1.1781 0.597192 0
0.981748 0.909626 0
1.1781 0.909626 0
0.785398 0.909626 0
0.981748 0.909626 0
0.785398 1.22354 0
0.981748 1.22354 0
0.981748 0.909626 0
1.1781 0.909626 0
0.981748 1.22354 0
1.1781 1.22354 0
1.1781 0.597192 0
1.37445 0.597192 0
1.1781 0.909626 0
1.37445 0.909626 0
1.37445 0.597192 0
1.5708 0.597192 0
1.37445 0.909626 0
1.5708 0.909626 0
1.1781 0.909626 0
1.37445 0.909626 0
1.1781 1.22354 0
1.37445 1.22354 0
1.37445 0.909626 0
1.5708 0.909626 0
1.37445 1.22354 0
1.5708 1.22354 0
0 1.22354 0
0.19635 1.22354 0
0 1.53707 0
0.19635 1.53707 0
0.19635 1.22354 0
0.392699 1.22354 0
0.19635 1.53707 0
0.392699 1.53707 0
0 1.53707 0
0.19635 1.53707 0
0 1.85073 0
0.19635 1.85073 0
0.19635 1.53707 0
0.392699 1.53707 0
0.19635 1.85073 0
0.392699 1.85073 0
0.392699 1.22354 0
0.589049 1.22354 0
0.392699 1.53707 0
0.589049 1.53707 0
0.589049 1.22354 0
0.785398 1.22354 0
0.589049 1.53707 0
0.785398 1.53707 0
0.392699 1.53707 0
0.589049 1.53707 0
0.392699 1.85073 0
0.589049 1.85073 0
0.589049 1.53707 0
0.785398 1.53707 0
0.589049 1.85073 0
0.785398 1.85073 0
0 1.85073 0
0.19635 1.85073 0
0 2.16432 0
0.19635 2.16432 0
0.19635 1.85073 0
0.392699 1.85073 0
0.19635 2.16432 0
0.392699 2.16432 0
0 2.16432 0
0.19635 2.16432 0
0 2.4779 0
0.19635 2.4779 0
0.19635 2.16432 0
0.392699 2.16432 0
0.19635 2.4779 0
0.392699 2.4779 0
0.392699 1.85073 0
0.589049 1.85073 0
0.392699 2.16432 0
0.589049 2.16432 0
0.589049 1.85073 0
0.785398 1.85073 0
0.589049 2.16432 0
0.785398 2.16432 0
0.392699 2.16432 0
0.589049 2.16432 0
0.392699 2.4779 0
0.589049 2.4779 0
0.589049 2.16432 0
0.785398 2.16432 0
0.589049 2.4779 0
0.785398 2.4779 0
0.785398 1.22354 0
0.981748 1.22354 0
0.785398 1.53707 0
0.981748 1.53707 0
0.981748 1.22354 0
1.1781 1.22354 0
0.981748 1.53707 0
1.1781 1.53707 0
0.785398 1.53707 0
0.981748 1.53707 0
0.785398 1.85073 0
0.981748 1.85073 0
0.981748 1.53707 0
1.1781 1.53707 0
0.981748 1.85073 0
1.1781 1.85073 0
1.1781 1.22354 0
1.37445 1.22354 0
1.1781 1.53707 0
1.37445 1.53707 0
1.37445 1.22354 0
1.5708 1.22354 0
1.37445 1.53707 0
1.5708 1.53707 0
1.1781 1.53707 0
1.37445 1.53707 0
1.1781 1.85073 0
1.37445 1.85073 0
1.37445 1.53707 0
1.5708 1.53707 0
1.37445 1.85073 0
1.5708 1.85073 0
0.785398 1.85073 0
0.981748 1.85073 0
0.785398 2.16432 0
0.981748 2.16432 0
0.981748 1.85073 0
1.1781 1.85073 0
0.981748 2.16432 0
1.1781 2.16432 0
0.785398 2.16432 0
0.981748 2.16432 0
0.785398 2.4779 0
0.981748 2.4779 0
0.981748 2.16432 0
1.1781 2.16432 0
0.981748 2.4779 0
1.1781 2.4779 0
1.1781 1.85073 0
1.37445 1.85073 0
1.1781 2.16432 0
1.37445 2.16432 0
1.37445 1.85073 0
1.5708 1.85073 0
1.37445 2.16432 0
1.5708 2.16432 0
1.1781 2.16432 0
1.37445 2.16432 0
1.1781 2.4779 0
1.37445 2.4779 0
1.37445 2.16432 0
1.5708 2.16432 0
1.37445 2.4779 0
1.5708 2.4779 0
1.5708 0 0
1.76715 0 0
1.5708 0.284679 0
1.76715 0.284679 0
1.76715 0 0
1.9635 0 0
1.76715 0.284679 0
1.9635 0.284679 0
1.5708 0.284679 0
1.76715 0.284679 0
1.5708 0.597192 0
1.76715 0.597192 0
1.76715 0.284679 0
1.9635 0.284679 0
1.76715 0.597192 0
1.9635 0.597192 0
1.9635 0 0
2.15984 0 0
1.9635 0.284679 0
2.15984 0.284679 0
2.15984 0 0
2.35619 0 0
2.15984 0.284679 0
2.35619 0.284679 0
1.9635 0.284679 0
2.15984 0.284679 0
1.9635 0.597192 0
2.15984 0.597192 0
2.15984 0.284679 0
2.35619 0.284679 0
2.15984 0.597192 0
2.35619 0.597192 0
1.5708 0.597192 0
1.76715 0.597192 0
1.5708 0.909626 0
1.76715 0.909626 0
1.76715 0.597192 0
1.9635 0.597192 0
1.76715 0.909626 0
1.9635 0.909626 0
1.5708 0.909626 0
1.76715 0.909626 0
1.5708 1.22354 0
1.76715 1.22354 0
1.76715 0.909626 0
1.9635 0.909626 0
1.76715 1.22354 0
1.9635 1.22354 0
1.9635 0.597192 0
2.15984 0.597192 0
1.9635 0.909626 0
2.15984 0.909626 0
2.15984 0.597192 0
2.35619 0.597192 0
2.15984 0.909626 0
2.35619 0.909626 0
1.9635 0.909626 0
2.15984 0.909626 0
1.9635 1.22354 0
2.15984 1.22354 0
2.15984 0.909626 0
2.35619 0.909626 0
2.15984 1.22354 0
2.35619 1.22354 0
2.35619 0 0
2.55254 0 0
2.35619 0.284679 0
2.55254 0.284679 0
2.55254 0 0
2.74889 0 0
2.55254 0.284679 0
2.74889 0.284679 0
2.35619 0.284679 0
2.55254 0.284679 0
2.35619 0.597192 0
2.55254 0.597192 0
2.55254 0.284679 0
2.74889 0.284679 0
2.55254 0.597192 0
2.74889 0.597192 0
2.74889 0 0
2.94524 0 0
2.74889 0.284679 0
2.94524 0.284679 0
2.94524 0 0
3.14159 0 0
2.94524 0.284679 0
3.14159 0.284679 0
2.74889 0.284679 0
2.94524 0.284679 0
2.74889 0.597192 0
2.94524 0.597192 0
2.94524 0.284679 0
3.14159 0.284679 0
2.94524 0.597192 0
3.14159 0.597192 0
2.35619 0.597192 0
2.55254 0.597192 0
2.35619 0.909626 0
2.55254 0.909626 0
2.55254 0.597192 0
2.74889 0.597192 0
2.55254 0.909626 0
2.74889 0.909626 0
2.35619 0.909626 0
2.55254 0.909626 0
2.35619 1.22354 0
2.55254 1.22354 0
2.55254 0.909626 0
2.74889 0.909626 0
2.55254 1.22354 0
2.74889 1.22354 0
2.74889 0.597192 0
2.94524 0.597192 0
2.74889 0.909626 0
2.94524 0.909626 0
2.94524 0.597192 0
3.14159 0.597192 0
2.94524 0.909626 0
3.14159 0.909626 0
2.74889 0.909626 0
2.94524 0.909626 0
2.74889 1.22354 0
2.94524 1.22354 0
2.94524 0.909626 0
3.14159 0.909626 0
2.94524 1.22354 0
3.14159 1.22354 0
1.5708 1.22354 0
1.76715 1.22354 0
1.5708 1.53707 0
1.76715 1.53707 0
1.76715 1.22354 0
1.9635 1.22354 0
1.76715 1.53707 0
1.9635 1.53707 0
1.5708 1.53707 0
1.76715 1.53707 0
1.5708 1.85073 0
1.76715 1.85073 0
1.76715 1.53707 0
1.9635 1.53707 0
1.76715 1.85073 0
1.9635 1.85073 0
1.9635 1.22354 0
2.15984 1.22354 0
1.9635 1.53707 0
2.15984 1.53707 0
2.15984 1.22354 0
2.35619 1.22354 0
2.15984 1.53707 0
2.35619 1.53707 0
1.9635 1.53707 0
2.15984 1.53707 0
1.9635 1.85073 0
2.15984 1.85073 0
2.15984 1.53707 0
2.35619 1.53707 0
2.15984 1.85073 0
2.35619 1.85073 0
1.5708 1.85073 0
1.76715 1.85073 0
1.5708 2.16432 0
1.76715 2.16432 0
1.76715 1.85073 0
1.9635 1.85073 0
1.76715 2.16432 0
1.9635 2.16432 0
1.5708 2.16432 0
1.76715 2.16432 0
1.5708 2.4779 0
1.76715 2.4779 0
1.76715 2.16432 0
1.9635 2.16432 0
1.76715 2.4779 0
1.9635 2.4779 0
1.9635 1.85073 0
2.15984 1.85073 0
1.9635 2.16432 0
2.15984 2.16432 0
2.15984 1.85073 0
2.35619 1.85073 0
2.15984 2.16432 0
2.35619 2.16432 0
1.9635 2.16432 0
2.15984 2.16432 0
1.9635 2.4779 0
2.15984 2.4779 0
2.15984 2.16432 0
2.35619 2.16432 0
2.15984 2.4779 0
2.35619 2.4779 0
2.35619 1.22354 0
2.55254 1.22354 0
2.35619 1.53707 0
2.55254 1.53707 0
2.55254 1.22354 0
2.74889 1.22354 0
2.55254 1.53707 0
2.74889 1.53707 0
2.35619 1.53707 0
2.55254 1.53707 0
2.35619 1.85073 0
2.55254 1.85073 0
2.55254 1.53707 0
2.74889 1.53707 0
2.55254 1.85073 0
2.74889 1.85073 0
2.74889 1.22354 0
2.94524 1.22354 0
2.74889 1.53707 0
2.94524 1.53707 0
2.94524 1.22354 0
3.14159 1.22354 0
2.94524 1.53707 0
3.14159 1.53707 0
2.74889 1.53707 0
2.94524 1.53707 0
2.74889 1.85073 0
2.94524 1.85073 0
2.94524 1.53707 0
3.14159 1.53707 0
2.94524 1.85073 0
3.14159 1.85073 0
2.35619 1.85073 0
2.55254 1.85073 0
2.35619 2.16432 0
2.55254 2.16432 0
2.55254 1.85073 0
2.74889 1.85073 0
2.55254 2.16432 0
2.74889 2.16432 0
2.35619 2.16432 0
2.55254 2.16432 0
2.35619 2.4779 0
2.55254 2.4779 0
2.55254 2.16432 0
2.74889 2.16432 0
2.55254 2.4779 0
2.74889 2.4779 0
2.74889 1.85073 0
2.94524 1.85073 0
2.74889 2.16432 0
2.94524 2.16432 0
2.94524 1.85073 0
3.14159 1.85073 0
2.94524 2.16432 0
3.14159 2.16432 0
2.74889 2.16432 0
2.94524 2.16432 0
2.74889 2.4779 0
2.94524 2.4779 0
2.94524 2.16432 0
3.14159 2.16432 0
2.94524 2.4779 0
3.14159 2.4779 0
0 2.4779 0
0.19635 2.4779 0
0 2.79145 0
0.19635 2.79145 0
0.19635 2.4779 0
0.392699 2.4779 0
0.19635 2.79145 0
0.392699 2.79145 0
0 2.79145 0
0.19635 2.79145 0
0 3.10498 0
0.19635 3.10498 0
0.19635 2.79145 0
0.392699 2.79145 0
0.19635 3.10498 0
0.392699 3.10498 0
0.392699 2.4779 0
0.589049 2.4779 0
0.392699 2.79145 0
0.589049 2.79145 0
0.589049 2.4779 0
0.785398 2.4779 0
0.589049 2.79145 0
0.785398 2.79145 0
0.392699 2.79145 0
0.589049 2.79145 0
0.392699 3.10498 0
0.589049 3.10498 0
0.589049 2.79145 0
0.785398 2.79145 0
0.589049 3.10498 0
0.785398 3.10498 0
0 3.10498 0
0.19635 3.10498 0
0 3.41849 0
0.19635 3.41849 0
0.19635 3.10498 0
0.392699 3.10498 0
0.19635 3.41849 0
0.392699 3.41849 0
0 3.41849 0
[...]
POINT_DATA 20480
VECTORS uf double
0 1 0
-1.69244e-15 1 0
0 1.00102 0
-1.29389e-14 1.00102 0
-1.69244e-15 1 0
1.47542e-15 1 0
-1.29389e-14 1.00102 0
-7.91796e-16 1.00102 0
0 1.00102 0
1.35135e-14 1.00102 0
0 1.0008 0
-5.47028e-15 1.0008 0
1.35135e-14 1.00102 0
5.52309e-15 1.00102 0
-5.47028e-15 1.0008 0
-4.38569e-15 1.0008 0
1.47542e-15 1 0
-2.77192e-15 1 0
-7.91796e-16 1.00102 0
5.19344e-15 1.00102 0
-2.77192e-15 1 0
-6.73672e-15 1 0
5.19344e-15 1.00102 0
-7.15735e-16 1.00102 0
5.52309e-15 1.00102 0
-2.56341e-15 1.00102 0
-4.38569e-15 1.0008 0
-1.10722e-15 1.0008 0
-2.56341e-15 1.00102 0
1.71075e-14 1.00102 0
-1.10722e-15 1.0008 0
-1.56159e-14 1.0008 0
0 1.0008 0
1.18484e-14 1.0008 0
0 1.00085 0
1.74161e-14 1.00085 0
1.18484e-14 1.0008 0
1.77661e-15 1.0008 0
1.74161e-14 1.00085 0
-4.28122e-15 1.00085 0
0 1.00085 0
-4.0402e-14 1.00085 0
0 1.0008 0
-1.90639e-14 1.0008 0
-4.0402e-14 1.00085 0
4.59401e-16 1.00085 0
-1.90639e-14 1.0008 0
1.22017e-15 1.0008 0
1.77661e-15 1.0008 0
-2.25067e-15 1.0008 0
-4.28122e-15 1.00085 0
-1.83368e-15 1.00085 0
-2.25067e-15 1.0008 0
4.23033e-15 1.0008 0
-1.83368e-15 1.00085 0
-3.02839e-15 1.00085 0
4.59401e-16 1.00085 0
-3.51342e-15 1.00085 0
1.22017e-15 1.0008 0
7.92232e-15 1.0008 0
-3.51342e-15 1.00085 0
8.31602e-15 1.00085 0
7.92232e-15 1.0008 0
-4.46159e-15 1.0008 0
-6.73672e-15 1 0
-8.42335e-15 1 0
-7.15735e-16 1.00102 0
9.46252e-15 1.00102 0
-8.42335e-15 1 0
4.90429e-15 1 0
9.46252e-15 1.00102 0
-1.00257e-14 1.00102 0
1.71075e-14 1.00102 0
-1.32288e-14 1.00102 0
-1.56159e-14 1.0008 0
2.96711e-14 1.0008 0
-1.32288e-14 1.00102 0
1.16789e-15 1.00102 0
2.96711e-14 1.0008 0
1.16785e-14 1.0008 0
4.90429e-15 1 0
6.87259e-15 1 0
-1.00257e-14 1.00102 0
3.65834e-15 1.00102 0
6.87259e-15 1 0
5.57806e-15 1 0
3.65834e-15 1.00102 0
2.8044e-15 1.00102 0
1.16789e-15 1.00102 0
-2.10008e-14 1.00102 0
1.16785e-14 1.0008 0
1.90483e-14 1.0008 0
-2.10008e-14 1.00102 0
-1.06907e-14 1.00102 0
1.90483e-14 1.0008 0
-2.45308e-15 1.0008 0
4.23033e-15 1.0008 0
-2.10795e-14 1.0008 0
-3.02839e-15 1.00085 0
-2.25149e-15 1.00085 0
-2.10795e-14 1.0008 0
2.77473e-16 1.0008 0
-2.25149e-15 1.00085 0
-1.23261e-15 1.00085 0
8.31602e-15 1.00085 0
1.5995e-14 1.00085 0
-4.46159e-15 1.0008 0
-4.7082e-15 1.0008 0
1.5995e-14 1.00085 0
-8.41639e-15 1.00085 0
-4.7082e-15 1.0008 0
3.50388e-15 1.0008 0
2.77473e-16 1.0008 0
-6.89629e-15 1.0008 0
-1.23261e-15 1.00085 0
2.89712e-15 1.00085 0
-6.89629e-15 1.0008 0
8.70131e-15 1.0008 0
2.89712e-15 1.00085 0
2.61965e-15 1.00085 0
-8.41639e-15 1.00085 0
-4.36847e-15 1.00085 0
3.50388e-15 1.0008 0
6.15961e-15 1.0008 0
-4.36847e-15 1.00085 0
-3.97466e-15 1.00085 0
6.15961e-15 1.0008 0
1.06014e-15 1.0008 0
0 1.0008 0
2.82645e-14 1.0008 0
0 1.00078 0
3.36863e-14 1.00078 0
2.82645e-14 1.0008 0
-1.79702e-14 1.0008 0
3.36863e-14 1.00078 0
-2.02964e-14 1.00078 0
0 1.00078 0
-2.91537e-14 1.00078 0
0 1.00075 0
-2.75081e-14 1.00075 0
-2.91537e-14 1.00078 0
3.8786e-14 1.00078 0
-2.75081e-14 1.00075 0
3.21656e-14 1.00075 0
-1.79702e-14 1.0008 0
1.07914e-15 1.0008 0
-2.02964e-14 1.00078 0
1.74481e-15 1.00078 0
1.07914e-15 1.0008 0
4.68023e-15 1.0008 0
1.74481e-15 1.00078 0
-2.39796e-15 1.00078 0
3.8786e-14 1.00078 0
-4.54427e-15 1.00078 0
3.21656e-14 1.00075 0
1.09484e-14 1.00075 0
-4.54427e-15 1.00078 0
4.30755e-15 1.00078 0
1.09484e-14 1.00075 0
-5.06366e-15 1.00075 0
0 1.00075 0
3.648e-15 1.00075 0
0 1.00073 0
5.09655e-15 1.00073 0
3.648e-15 1.00075 0
-6.0975e-14 1.00075 0
5.09655e-15 1.00073 0
-5.12661e-14 1.00073 0
0 1.00073 0
5.85317e-14 1.00073 0
0 1.0007 0
5.75377e-14 1.0007 0
5.85317e-14 1.00073 0
5.46505e-14 1.00073 0
5.75377e-14 1.0007 0
5.04247e-14 1.0007 0
-6.0975e-14 1.00075 0
1.74922e-15 1.00075 0
-5.12661e-14 1.00073 0
-3.1622e-15 1.00073 0
1.74922e-15 1.00075 0
-1.96518e-16 1.00075 0
-3.1622e-15 1.00073 0
1.65778e-15 1.00073 0
5.46505e-14 1.00073 0
-4.08923e-15 1.00073 0
5.04247e-14 1.0007 0
-1.09737e-14 1.0007 0
-4.08923e-15 1.00073 0
-1.79009e-15 1.00073 0
-1.09737e-14 1.0007 0
6.27149e-15 1.0007 0
4.68023e-15 1.0008 0
-3.27667e-15 1.0008 0
-2.39796e-15 1.00078 0
3.05332e-15 1.00078 0
-3.27667e-15 1.0008 0
2.98461e-15 1.0008 0
3.05332e-15 1.00078 0
4.05194e-15 1.00078 0
4.30755e-15 1.00078 0
-3.27287e-15 1.00078 0
-5.06366e-15 1.00075 0
5.49951e-15 1.00075 0
-3.27287e-15 1.00078 0
-8.6658e-16 1.00078 0
5.49951e-15 1.00075 0
-1.44068e-15 1.00075 0
2.98461e-15 1.0008 0
-3.74864e-15 1.0008 0
4.05194e-15 1.00078 0
1.28972e-14 1.00078 0
-3.74864e-15 1.0008 0
1.24257e-14 1.0008 0
1.28972e-14 1.00078 0
3.85061e-15 1.00078 0
-8.6658e-16 1.00078 0
-1.11741e-14 1.00078 0
-1.44068e-15 1.00075 0
1.27467e-14 1.00075 0
-1.11741e-14 1.00078 0
-9.252e-15 1.00078 0
1.27467e-14 1.00075 0
6.2073e-15 1.00075 0
-1.96518e-16 1.00075 0
-7.85703e-15 1.00075 0
1.65778e-15 1.00073 0
4.86753e-15 1.00073 0
-7.85703e-15 1.00075 0
-4.93947e-15 1.00075 0
4.86753e-15 1.00073 0
3.85941e-15 1.00073 0
-1.79009e-15 1.00073 0
-3.75449e-15 1.00073 0
6.27149e-15 1.0007 0
1.62094e-14 1.0007 0
-3.75449e-15 1.00073 0
2.07128e-15 1.00073 0
1.62094e-14 1.0007 0
4.33915e-15 1.0007 0
-4.93947e-15 1.00075 0
-1.60007e-14 1.00075 0
3.85941e-15 1.00073 0
1.80261e-14 1.00073 0
-1.60007e-14 1.00075 0
3.90192e-15 1.00075 0
1.80261e-14 1.00073 0
-4.27814e-15 1.00073 0
2.07128e-15 1.00073 0
-6.88024e-15 1.00073 0
4.33915e-15 1.0007 0
9.62234e-15 1.0007 0
-6.88024e-15 1.00073 0
-3.11622e-15 1.00073 0
9.62234e-15 1.0007 0
9.75543e-15 1.0007 0
5.57806e-15 1 0
9.86904e-15 1 0
2.8044e-15 1.00102 0
-1.7184e-14 1.00102 0
9.86904e-15 1 0
6.71471e-15 1 0
-1.7184e-14 1.00102 0
-1.09649e-14 1.00102 0
-1.06907e-14 1.00102 0
1.2921e-14 1.00102 0
-2.45308e-15 1.0008 0
-4.31977e-15 1.0008 0
1.2921e-14 1.00102 0
9.87826e-15 1.00102 0
-4.31977e-15 1.0008 0
4.57343e-15 1.0008 0
6.71471e-15 1 0
-8.94171e-15 1 0
-1.09649e-14 1.00102 0
1.34071e-14 1.00102 0
-8.94171e-15 1 0
8.56715e-15 1 0
1.34071e-14 1.00102 0
-1.61717e-14 1.00102 0
9.87826e-15 1.00102 0
1.13503e-15 1.00102 0
4.57343e-15 1.0008 0
3.99966e-15 1.0008 0
1.13503e-15 1.00102 0
1.89754e-14 1.00102 0
3.99966e-15 1.0008 0
-8.57991e-15 1.0008 0
8.70131e-15 1.0008 0
-3.28584e-15 1.0008 0
2.61965e-15 1.00085 0
2.85933e-15 1.00085 0
-3.28584e-15 1.0008 0
-2.51545e-14 1.0008 0
2.85933e-15 1.00085 0
1.66958e-14 1.00085 0
-3.97466e-15 1.00085 0
-1.09473e-14 1.00085 0
1.06014e-15 1.0008 0
2.45766e-14 1.0008 0
-1.09473e-14 1.00085 0
2.71531e-16 1.00085 0
2.45766e-14 1.0008 0
7.44385e-15 1.0008 0
-2.51545e-14 1.0008 0
-6.99667e-15 1.0008 0
1.66958e-14 1.00085 0
6.21633e-15 1.00085 0
-6.99667e-15 1.0008 0
9.28714e-15 1.0008 0
6.21633e-15 1.00085 0
-1.33092e-14 1.00085 0
2.71531e-16 1.00085 0
-5.38722e-15 1.00085 0
7.44385e-15 1.0008 0
1.32437e-14 1.0008 0
-5.38722e-15 1.00085 0
1.05629e-14 1.00085 0
1.32437e-14 1.0008 0
1.30128e-14 1.0008 0
8.56715e-15 1 0
6.77955e-16 1 0
-1.61717e-14 1.00102 0
5.96162e-15 1.00102 0
6.77955e-16 1 0
6.28667e-15 1 0
5.96162e-15 1.00102 0
-9.80076e-15 1.00102 0
1.89754e-14 1.00102 0
-4.36507e-15 1.00102 0
-8.57991e-15 1.0008 0
4.67766e-15 1.0008 0
-4.36507e-15 1.00102 0
7.86345e-15 1.00102 0
4.67766e-15 1.0008 0
1.4287e-14 1.0008 0
6.28667e-15 1 0
3.74383e-15 1 0
-9.80076e-15 1.00102 0
7.70895e-15 1.00102 0
3.74383e-15 1 0
2.33518e-16 1 0
7.70895e-15 1.00102 0
1.39409e-14 1.00102 0
7.86345e-15 1.00102 0
-4.74367e-15 1.00102 0
1.4287e-14 1.0008 0
2.73962e-15 1.0008 0
-4.74367e-15 1.00102 0
-8.06979e-15 1.00102 0
2.73962e-15 1.0008 0
1.01997e-14 1.0008 0
9.28714e-15 1.0008 0
1.20185e-14 1.0008 0
-1.33092e-14 1.00085 0
1.67353e-16 1.00085 0
1.20185e-14 1.0008 0
-2.44157e-14 1.0008 0
1.67353e-16 1.00085 0
2.97554e-14 1.00085 0
1.05629e-14 1.00085 0
-8.41146e-15 1.00085 0
1.30128e-14 1.0008 0
1.10936e-16 1.0008 0
-8.41146e-15 1.00085 0
-9.862e-15 1.00085 0
1.10936e-16 1.0008 0
-1.55239e-15 1.0008 0
-2.44157e-14 1.0008 0
-4.08758e-16 1.0008 0
2.97554e-14 1.00085 0
1.27369e-14 1.00085 0
-4.08758e-16 1.0008 0
-4.43948e-15 1.0008 0
1.27369e-14 1.00085 0
9.34431e-15 1.00085 0
-9.862e-15 1.00085 0
-1.99393e-14 1.00085 0
-1.55239e-15 1.0008 0
2.36181e-14 1.0008 0
-1.99393e-14 1.00085 0
-1.0887e-14 1.00085 0
2.36181e-14 1.0008 0
1.2223e-14 1.0008 0
1.24257e-14 1.0008 0
-1.16739e-14 1.0008 0
3.85061e-15 1.00078 0
1.74791e-14 1.00078 0
-1.16739e-14 1.0008 0
-9.64704e-17 1.0008 0
1.74791e-14 1.00078 0
1.2703e-14 1.00078 0
-9.252e-15 1.00078 0
-1.22559e-14 1.00078 0
6.2073e-15 1.00075 0
1.3732e-14 1.00075 0
-1.22559e-14 1.00078 0
-8.31074e-15 1.00078 0
1.3732e-14 1.00075 0
8.62375e-15 1.00075 0
-9.64704e-17 1.0008 0
-3.63268e-15 1.0008 0
1.2703e-14 1.00078 0
7.88836e-15 1.00078 0
-3.63268e-15 1.0008 0
-4.36359e-15 1.0008 0
7.88836e-15 1.00078 0
5.20247e-15 1.00078 0
-8.31074e-15 1.00078 0
-3.07748e-15 1.00078 0
8.62375e-15 1.00075 0
5.88496e-15 1.00075 0
-3.07748e-15 1.00078 0
-5.29017e-15 1.00078 0
5.88496e-15 1.00075 0
8.40926e-15 1.00075 0
3.90192e-15 1.00075 0
-7.12849e-15 1.00075 0
-4.27814e-15 1.00073 0
9.75058e-15 1.00073 0
-7.12849e-15 1.00075 0
-8.06877e-15 1.00075 0
9.75058e-15 1.00073 0
7.07313e-15 1.00073 0
-3.11622e-15 1.00073 0
-1.09429e-14 1.00073 0
9.75543e-15 1.0007 0
1.14638e-14 1.0007 0
-1.09429e-14 1.00073 0
3.22605e-16 1.00073 0
1.14638e-14 1.0007 0
9.9039e-16 1.0007 0
-8.06877e-15 1.00075 0
-1.25641e-14 1.00075 0
7.07313e-15 1.00073 0
1.25503e-14 1.00073 0
-1.25641e-14 1.00075 0
-9.50088e-15 1.00075 0
1.25503e-14 1.00073 0
9.14492e-15 1.00073 0
3.22605e-16 1.00073 0
-1.58019e-15 1.00073 0
9.9039e-16 1.0007 0
5.08316e-15 1.0007 0
-1.58019e-15 1.00073 0
-3.33322e-15 1.00073 0
5.08316e-15 1.0007 0
1.50776e-14 1.0007 0
-4.36359e-15 1.0008 0
8.83275e-15 1.0008 0
5.20247e-15 1.00078 0
5.14484e-15 1.00078 0
8.83275e-15 1.0008 0
1.04779e-14 1.0008 0
5.14484e-15 1.00078 0
5.52247e-15 1.00078 0
-5.29017e-15 1.00078 0
-1.78631e-15 1.00078 0
8.40926e-15 1.00075 0
9.28311e-16 1.00075 0
-1.78631e-15 1.00078 0
-7.51808e-15 1.00078 0
9.28311e-16 1.00075 0
1.14483e-14 1.00075 0
1.04779e-14 1.0008 0
-1.07524e-14 1.0008 0
5.52247e-15 1.00078 0
1.34908e-14 1.00078 0
-1.07524e-14 1.0008 0
3.89877e-15 1.0008 0
1.34908e-14 1.00078 0
2.59494e-15 1.00078 0
-7.51808e-15 1.00078 0
1.67254e-15 1.00078 0
1.14483e-14 1.00075 0
5.02612e-15 1.00075 0
1.67254e-15 1.00078 0
-4.94525e-15 1.00078 0
5.02612e-15 1.00075 0
1.64635e-14 1.00075 0
-9.50088e-15 1.00075 0
-4.80767e-16 1.00075 0
9.14492e-15 1.00073 0
8.55061e-15 1.00073 0
-4.80767e-16 1.00075 0
-4.97535e-15 1.00075 0
8.55061e-15 1.00073 0
8.81929e-15 1.00073 0
-3.33322e-15 1.00073 0
8.77035e-16 1.00073 0
1.50776e-14 1.0007 0
-5.91464e-15 1.0007 0
8.77035e-16 1.00073 0
-7.47386e-15 1.00073 0
-5.91464e-15 1.0007 0
4.15442e-15 1.0007 0
-4.97535e-15 1.00075 0
-1.33563e-15 1.00075 0
8.81929e-15 1.00073 0
8.78382e-15 1.00073 0
-1.33563e-15 1.00075 0
-2.28914e-15 1.00075 0
8.78382e-15 1.00073 0
3.8534e-15 1.00073 0
-7.47386e-15 1.00073 0
-7.11916e-15 1.00073 0
4.15442e-15 1.0007 0
3.74054e-15 1.0007 0
-7.11916e-15 1.00073 0
-5.30054e-16 1.00073 0
3.74054e-15 1.0007 0
4.89117e-15 1.0007 0
0 1.0007 0
-1.01269e-13 1.0007 0
0 1.00067 0
-9.77026e-14 1.00067 0
-1.01269e-13 1.0007 0
-5.18197e-15 1.0007 0
-9.77026e-14 1.00067 0
-6.10876e-15 1.00067 0
0 1.00067 0
8.59719e-14 1.00067 0
0 1.00065 0
1.03361e-13 1.00065 0
8.59719e-14 1.00067 0
-6.48527e-15 1.00067 0
1.03361e-13 1.00065 0
-1.31755e-14 1.00065 0
-5.18197e-15 1.0007 0
1.54358e-14 1.0007 0
-6.10876e-15 1.00067 0
1.14304e-14 1.00067 0
1.54358e-14 1.0007 0
-1.90385e-14 1.0007 0
1.14304e-14 1.00067 0
1.76501e-14 1.00067 0
-6.48527e-15 1.00067 0
-1.06233e-14 1.00067 0
-1.31755e-14 1.00065 0
-1.69814e-14 1.00065 0
-1.06233e-14 1.00067 0
-8.14809e-16 1.00067 0
-1.69814e-14 1.00065 0
6.32419e-15 1.00065 0
0 1.00065 0
-7.44109e-14 1.00065 0
0 1.00062 0
-7.17902e-14 1.00062 0
-7.44109e-14 1.00065 0
-9.51521e-15 1.00065 0
-7.17902e-14 1.00062 0
-1.06193e-14 1.00062 0
0 1.00062 0
7.22633e-14 1.00062 0
0 1.0006 0
5.52829e-14 1.0006 0
7.22633e-14 1.00062 0
5.06825e-14 1.00062 0
5.52829e-14 1.0006 0
4.4098e-14 1.0006 0
-9.51521e-15 1.00065 0
1.17153e-14 1.00065 0
-1.06193e-14 1.00062 0
1.48412e-14 1.00062 0
1.17153e-14 1.00065 0
3.77935e-15 1.00065 0
1.48412e-14 1.00062 0
5.15118e-15 1.00062 0
5.06825e-14 1.00062 0
-1.9145e-14 1.00062 0
4.4098e-14 1.0006 0
-2.06232e-14 1.0006 0
-1.9145e-14 1.00062 0
-8.82928e-15 1.00062 0
-2.06232e-14 1.0006 0
-1.08667e-14 1.0006 0
-1.90385e-14 1.0007 0
-9.0677e-15 1.0007 0
1.76501e-14 1.00067 0
5.85568e-15 1.00067 0
-9.0677e-15 1.0007 0
-1.06791e-14 1.0007 0
5.85568e-15 1.00067 0
1.36258e-14 1.00067 0
-8.14809e-16 1.00067 0
3.47876e-16 1.00067 0
6.32419e-15 1.00065 0
8.23548e-15 1.00065 0
3.47876e-16 1.00067 0
-4.33224e-15 1.00067 0
8.23548e-15 1.00065 0
4.41972e-15 1.00065 0
-1.06791e-14 1.0007 0
-7.83186e-15 1.0007 0
1.36258e-14 1.00067 0
1.2795e-15 1.00067 0
-7.83186e-15 1.0007 0
-1.49675e-14 1.0007 0
1.2795e-15 1.00067 0
1.33569e-14 1.00067 0
-4.33224e-15 1.00067 0
6.81431e-15 1.00067 0
4.41972e-15 1.00065 0
-2.47301e-15 1.00065 0
6.81431e-15 1.00067 0
-5.145e-15 1.00067 0
-2.47301e-15 1.00065 0
9.00177e-15 1.00065 0
3.77935e-15 1.00065 0
-4.35204e-15 1.00065 0
5.15118e-15 1.00062 0
5.53508e-15 1.00062 0
-4.35204e-15 1.00065 0
2.84356e-16 1.00065 0
5.53508e-15 1.00062 0
1.94982e-16 1.00062 0
-8.82928e-15 1.00062 0
-1.38936e-14 1.00062 0
-1.08667e-14 1.0006 0
-1.48176e-15 1.0006 0
-1.38936e-14 1.00062 0
-6.66308e-15 1.00062 0
-1.48176e-15 1.0006 0
5.10631e-15 1.0006 0
2.84356e-16 1.00065 0
-1.09361e-15 1.00065 0
1.94982e-16 1.00062 0
5.92909e-15 1.00062 0
-1.09361e-15 1.00065 0
-7.84088e-15 1.00065 0
5.92909e-15 1.00062 0
1.47137e-15 1.00062 0
-6.66308e-15 1.00062 0
-9.88178e-15 1.00062 0
5.10631e-15 1.0006 0
6.7045e-15 1.0006 0
-9.88178e-15 1.00062 0
3.76133e-15 1.00062 0
6.7045e-15 1.0006 0
-1.21577e-17 1.0006 0
0 1.0006 0
-5.77653e-14 1.0006 0
0 1.00057 0
-7.1045e-14 1.00057 0
-5.77653e-14 1.0006 0
-6.76251e-14 1.0006 0
-7.1045e-14 1.00057 0
-5.92977e-14 1.00057 0
0 1.00057 0
8.33382e-14 1.00057 0
0 1.00055 0
6.64499e-14 1.00055 0
8.33382e-14 1.00057 0
3.00107e-14 1.00057 0
6.64499e-14 1.00055 0
2.59518e-14 1.00055 0
-6.76251e-14 1.0006 0
3.85238e-14 1.0006 0
-5.92977e-14 1.00057 0
4.24561e-14 1.00057 0
3.85238e-14 1.0006 0
1.96928e-14 1.0006 0
4.24561e-14 1.00057 0
2.84746e-14 1.00057 0
3.00107e-14 1.00057 0
-3.22559e-14 1.00057 0
2.59518e-14 1.00055 0
-3.66215e-14 1.00055 0
-3.22559e-14 1.00057 0
9.32509e-15 1.00057 0
-3.66215e-14 1.00055 0
1.28217e-14 1.00055 0
0 1.00055 0
-7.36305e-14 1.00055 0
0 1.00052 0
-7.33654e-14 1.00052 0
-7.36305e-14 1.00055 0
4.36535e-14 1.00055 0
-7.33654e-14 1.00052 0
3.00838e-14 1.00052 0
0 1.00052 0
4.45486e-14 1.00052 0
0 1.0005 0
3.38744e-14 1.0005 0
4.45486e-14 1.00052 0
-4.89146e-14 1.00052 0
3.38744e-14 1.0005 0
-3.49833e-14 1.0005 0
4.36535e-14 1.00055 0
3.0131e-14 1.00055 0
3.00838e-14 1.00052 0
1.36577e-14 1.00052 0
3.0131e-14 1.00055 0
-3.7972e-14 1.00055 0
1.36577e-14 1.00052 0
-2.43686e-14 1.00052 0
-4.89146e-14 1.00052 0
-1.44593e-14 1.00052 0
-3.49833e-14 1.0005 0
-2.54436e-14 1.0005 0
-1.44593e-14 1.00052 0
-1.61162e-14 1.00052 0
-2.54436e-14 1.0005 0
-1.72529e-15 1.0005 0
1.96928e-14 1.0006 0
-1.22563e-14 1.0006 0
2.84746e-14 1.00057 0
-9.54674e-16 1.00057 0
-1.22563e-14 1.0006 0
8.75187e-16 1.0006 0
-9.54674e-16 1.00057 0
-6.28332e-15 1.00057 0
9.32509e-15 1.00057 0
3.79024e-14 1.00057 0
1.28217e-14 1.00055 0
4.29417e-14 1.00055 0
3.79024e-14 1.00057 0
6.6699e-15 1.00057 0
4.29417e-14 1.00055 0
4.36514e-15 1.00055 0
8.75187e-16 1.0006 0
-4.60219e-15 1.0006 0
-6.28332e-15 1.00057 0
9.08901e-15 1.00057 0
-4.60219e-15 1.0006 0
-5.80035e-15 1.0006 0
9.08901e-15 1.00057 0
1.20405e-14 1.00057 0
6.6699e-15 1.00057 0
-6.58991e-15 1.00057 0
4.36514e-15 1.00055 0
5.80416e-15 1.00055 0
-6.58991e-15 1.00057 0
-1.19405e-14 1.00057 0
5.80416e-15 1.00055 0
1.07504e-14 1.00055 0
-3.7972e-14 1.00055 0
-3.7958e-14 1.00055 0
-2.43686e-14 1.00052 0
-2.91707e-14 1.00052 0
-3.7958e-14 1.00055 0
-1.20716e-14 1.00055 0
-2.91707e-14 1.00052 0
1.02674e-14 1.00052 0
-1.61162e-14 1.00052 0
1.62255e-14 1.00052 0
-1.72529e-15 1.0005 0
1.80972e-14 1.0005 0
1.62255e-14 1.00052 0
6.37346e-17 1.00052 0
1.80972e-14 1.0005 0
1.74414e-14 1.0005 0
-1.20716e-14 1.00055 0
-3.88424e-15 1.00055 0
1.02674e-14 1.00052 0
5.54296e-15 1.00052 0
-3.88424e-15 1.00055 0
-5.64141e-15 1.00055 0
5.54296e-15 1.00052 0
3.98315e-15 1.00052 0
6.37346e-17 1.00052 0
-9.46452e-15 1.00052 0
1.74414e-14 1.0005 0
1.21394e-14 1.0005 0
-9.46452e-15 1.00052 0
-2.89338e-15 1.00052 0
1.21394e-14 1.0005 0
3.57232e-15 1.0005 0
-1.49675e-14 1.0007 0
-2.09873e-14 1.0007 0
1.33569e-14 1.00067 0
2.37665e-14 1.00067 0
-2.09873e-14 1.0007 0
-1.80503e-15 1.0007 0
2.37665e-14 1.00067 0
-1.72414e-15 1.00067 0
-5.145e-15 1.00067 0
-9.91086e-15 1.00067 0
9.00177e-15 1.00065 0
3.43614e-15 1.00065 0
-9.91086e-15 1.00067 0
-2.35804e-15 1.00067 0
3.43614e-15 1.00065 0
6.8903e-15 1.00065 0
-1.80503e-15 1.0007 0
-1.45931e-14 1.0007 0
-1.72414e-15 1.00067 0
8.18815e-15 1.00067 0
-1.45931e-14 1.0007 0
-1.53554e-14 1.0007 0
8.18815e-15 1.00067 0
3.02419e-15 1.00067 0
-2.35804e-15 1.00067 0
9.23767e-17 1.00067 0
6.8903e-15 1.00065 0
8.51523e-15 1.00065 0
9.23767e-17 1.00067 0
-1.87825e-15 1.00067 0
8.51523e-15 1.00065 0
1.11562e-14 1.00065 0
-7.84088e-15 1.00065 0
-5.022e-15 1.00065 0
1.47137e-15 1.00062 0
1.50961e-15 1.00062 0
-5.022e-15 1.00065 0
-5.97891e-15 1.00065 0
1.50961e-15 1.00062 0
8.04449e-15 1.00062 0
3.76133e-15 1.00062 0
1.08368e-14 1.00062 0
-1.21577e-17 1.0006 0
-9.88684e-15 1.0006 0
1.08368e-14 1.00062 0
-7.20515e-15 1.00062 0
-9.88684e-15 1.0006 0
9.81154e-15 1.0006 0
-5.97891e-15 1.00065 0
-8.92528e-15 1.00065 0
8.04449e-15 1.00062 0
2.85341e-15 1.00062 0
-8.92528e-15 1.00065 0
-3.63448e-15 1.00065 0
2.85341e-15 1.00062 0
-2.29697e-15 1.00062 0
-7.20515e-15 1.00062 0
1.54049e-18 1.00062 0
9.81154e-15 1.0006 0
7.18472e-15 1.0006 0
1.54049e-18 1.00062 0
3.61917e-15 1.00062 0
7.18472e-15 1.0006 0
8.66307e-15 1.0006 0
-1.53554e-14 1.0007 0
2.54203e-15 1.0007 0
3.02419e-15 1.00067 0
1.76694e-15 1.00067 0
2.54203e-15 1.0007 0
-4.94035e-15 1.0007 0
1.76694e-15 1.00067 0
1.37772e-14 1.00067 0
-1.87825e-15 1.00067 0
-1.12935e-15 1.00067 0
1.11562e-14 1.00065 0
1.76544e-15 1.00065 0
-1.12935e-15 1.00067 0
-4.88472e-15 1.00067 0
1.76544e-15 1.00065 0
6.25507e-15 1.00065 0
-4.94035e-15 1.0007 0
-7.78468e-16 1.0007 0
1.37772e-14 1.00067 0
8.2694e-15 1.00067 0
-7.78468e-16 1.0007 0
-5.2679e-15 1.0007 0
8.2694e-15 1.00067 0
7.46588e-15 1.00067 0
-4.88472e-15 1.00067 0
-4.6511e-15 1.00067 0
6.25507e-15 1.00065 0
4.97262e-15 1.00065 0
-4.6511e-15 1.00067 0
-2.53803e-17 1.00067 0
4.97262e-15 1.00065 0
-1.77588e-15 1.00065 0
-3.63448e-15 1.00065 0
1.54607e-15 1.00065 0
-2.29697e-15 1.00062 0
3.56826e-15 1.00062 0
1.54607e-15 1.00065 0
-8.56067e-15 1.00065 0
3.56826e-15 1.00062 0
6.09631e-15 1.00062 0
3.61917e-15 1.00062 0
-7.05424e-15 1.00062 0
8.66307e-15 1.0006 0
1.38931e-14 1.0006 0
-7.05424e-15 1.00062 0
-1.66189e-15 1.00062 0
1.38931e-14 1.0006 0
1.09899e-15 1.0006 0
-8.56067e-15 1.00065 0
-5.34387e-15 1.00065 0
6.09631e-15 1.00062 0
9.97988e-15 1.00062 0
-5.34387e-15 1.00065 0
-6.13673e-15 1.00065 0
9.97988e-15 1.00062 0
7.3844e-15 1.00062 0
-1.66189e-15 1.00062 0
-4.22611e-16 1.00062 0
1.09899e-15 1.0006 0
-1.70732e-15 1.0006 0
-4.22611e-16 1.00062 0
2.00423e-15 1.00062 0
-1.70732e-15 1.0006 0
5.07696e-15 1.0006 0
-5.80035e-15 1.0006 0
5.71819e-15 1.0006 0
1.20405e-14 1.00057 0
5.76685e-15 1.00057 0
5.71819e-15 1.0006 0
-6.98618e-15 1.0006 0
5.76685e-15 1.00057 0
9.29869e-15 1.00057 0
-1.19405e-14 1.00057 0
-5.6839e-15 1.00057 0
1.07504e-14 1.00055 0
5.57877e-15 1.00055 0
-5.6839e-15 1.00057 0
-1.30401e-15 1.00057 0
5.57877e-15 1.00055 0
-1.4778e-15 1.00055 0
-6.98618e-15 1.0006 0
-7.57518e-15 1.0006 0
9.29869e-15 1.00057 0
8.25955e-15 1.00057 0
-7.57518e-15 1.0006 0
-9.50241e-15 1.0006 0
8.25955e-15 1.00057 0
4.13467e-15 1.00057 0
-1.30401e-15 1.00057 0
-1.31168e-15 1.00057 0
-1.4778e-15 1.00055 0
2.20355e-16 1.00055 0
-1.31168e-15 1.00057 0
-1.90282e-16 1.00057 0
2.20355e-16 1.00055 0