# vtk DataFile Version 3.0
#This file was generated by the deal.II library on 2018/10/15 at 19:23:00
ASCII
DATASET UNSTRUCTURED_GRID

POINTS 20480 double
0 0 0
0.19635 0 0
0 0.291978 0
0.19635 0.291978 0
0.19635 0 0
0.392699 0 0
0.19635 0.291978 0
0.392699 0.291978 0
0 0.291978 0
0.19635 0.291978 0
0 0.604758 0
0.19635 0.604758 0
0.19635 0.291978 0
0.392699 0.291978 0
0.19635 0.604758 0
0.392699 0.604758 0
0.392699 0 0
0.589049 0 0
0.392699 0.291978 0
0.589049 0.291978 0
0.589049 0 0
0.785398 0 0
0.589049 0.291978 0
0.785398 0.291978 0
0.392699 0.291978 0
0.589049 0.291978 0
0.392699 0.604758 0
0.589049 0.604758 0
0.589049 0.291978 0
0.785398 0.291978 0
0.589049 0.604758 0
0.785398 0.604758 0
0 0.604758 0
0.19635 0.604758 0
0 0.917281 0
0.19635 0.917281 0
0.19635 0.604758 0
0.392699 0.604758 0
0.19635 0.917281 0
0.392699 0.917281 0
0 0.917281 0
0.19635 0.917281 0
0 1.23079 0
0.19635 1.23079 0
0.19635 0.917281 0
0.392699 0.917281 0
0.19635 1.23079 0
0.392699 1.23079 0
0.392699 0.604758 0
0.589049 0.604758 0
0.392699 0.917281 0
0.589049 0.917281 0
0.589049 0.604758 0
0.785398 0.604758 0
0.589049 0.917281 0
0.785398 0.917281 0
0.392699 0.917281 0
0.589049 0.917281 0
0.392699 1.23079 0
0.589049 1.23079 0
0.589049 0.917281 0
0.785398 0.917281 0
0.589049 1.23079 0
0.785398 1.23079 0
0.785398 0 0
0.981748 0 0
0.785398 0.291978 0
0.981748 0.291978 0
0.981748 0 0
1.1781 0 0
0.981748 0.291978 0
1.1781 0.291978 0
0.785398 0.291978 0
0.981748 0.291978 0
0.785398 0.604758 0
0.981748 0.604758 0
0.981748 0.291978 0
1.1781 0.291978 0
0.981748 0.604758 0
1.1781 0.604758 0
1.1781 0 0
1.37445 0 0
1.1781 0.291978 0
1.37445 0.291978 0
1.37445 0 0
1.5708 0 0
1.37445 0.291978 0
1.5708 0.291978 0
1.1781 0.291978 0
1.37445 0.291978 0
1.1781 0.604758 0
1.37445 0.604758 0
1.37445 0.291978 0
1.5708 0.291978 0
1.37445 0.604758 0
1.5708 0.604758 0
0.785398 0.604758 0
0.981748 0.604758 0
0.785398 0.917281 0
0.981748 0.917281 0
0.981748 0.604758 0
1.1781 0.604758 0
0.981748 0.917281 0
1.1781 0.917281 0
0.785398 0.917281 0
0.981748 0.917281 0
0.785398 1.23079 0
0.981748 1.23079 0
0.981748 0.917281 0
1.1781 0.917281 0
0.981748 1.23079 0
1.1781 1.23079 0
1.1781 0.604758 0
1.37445 0.604758 0
1.1781 0.917281 0
1.37445 0.917281 0
1.37445 0.604758 0
1.5708 0.604758 0
1.37445 0.917281 0
1.5708 0.917281 0
1.1781 0.917281 0
1.37445 0.917281 0
1.1781 1.23079 0
1.37445 1.23079 0
1.37445 0.917281 0
1.5708 0.917281 0
1.37445 1.23079 0
1.5708 1.23079 0
0 1.23079 0
0.19635 1.23079 0
0 1.54404 0
0.19635 1.54404 0
0.19635 1.23079 0
0.392699 1.23079 0
0.19635 1.54404 0
0.392699 1.54404 0
0 1.54404 0
0.19635 1.54404 0
0 1.85737 0
0.19635 1.85737 0
0.19635 1.54404 0
0.392699 1.54404 0
0.19635 1.85737 0
0.392699 1.85737 0
0.392699 1.23079 0
0.589049 1.23079 0
0.392699 1.54404 0
0.589049 1.54404 0
0.589049 1.23079 0
0.785398 1.23079 0
0.589049 1.54404 0
0.785398 1.54404 0
0.392699 1.54404 0
0.589049 1.54404 0
0.392699 1.85737 0
0.589049 1.85737 0
0.589049 1.54404 0
0.785398 1.54404 0
0.589049 1.85737 0
0.785398 1.85737 0
0 1.85737 0
0.19635 1.85737 0
0 2.17066 0
0.19635 2.17066 0
0.19635 1.85737 0
0.392699 1.85737 0
0.19635 2.17066 0
0.392699 2.17066 0
0 2.17066 0
0.19635 2.17066 0
0 2.48394 0
0.19635 2.48394 0
0.19635 2.17066 0
0.392699 2.17066 0
0.19635 2.48394 0
0.392699 2.48394 0
0.392699 1.85737 0
0.589049 1.85737 0
0.392699 2.17066 0
0.589049 2.17066 0
0.589049 1.85737 0
0.785398 1.85737 0
0.589049 2.17066 0
0.785398 2.17066 0
0.392699 2.17066 0
0.589049 2.17066 0
0.392699 2.48394 0
0.589049 2.48394 0
0.589049 2.17066 0
0.785398 2.17066 0
0.589049 2.48394 0
0.785398 2.48394 0
0.785398 1.23079 0
0.981748 1.23079 0
0.785398 1.54404 0
0.981748 1.54404 0
0.981748 1.23079 0
1.1781 1.23079 0
0.981748 1.54404 0
1.1781 1.54404 0
0.785398 1.54404 0
0.981748 1.54404 0
0.785398 1.85737 0
0.981748 1.85737 0
0.981748 1.54404 0
1.1781 1.54404 0
0.981748 1.85737 0
1.1781 1.85737 0
1.1781 1.23079 0
1.37445 1.23079 0
1.1781 1.54404 0
1.37445 1.54404 0
1.37445 1.23079 0
1.5708 1.23079 0
1.37445 1.54404 0
1.5708 1.54404 0
1.1781 1.54404 0
1.37445 1.54404 0
1.1781 1.85737 0
1.37445 1.85737 0
1.37445 1.54404 0
1.5708 1.54404 0
1.37445 1.85737 0
1.5708 1.85737 0
0.785398 1.85737 0
0.981748 1.85737 0
0.785398 2.17066 0
0.981748 2.17066 0
0.981748 1.85737 0
1.1781 1.85737 0
0.981748 2.17066 0
1.1781 2.17066 0
0.785398 2.17066 0
0.981748 2.17066 0
0.785398 2.48394 0
0.981748 2.48394 0
0.981748 2.17066 0
1.1781 2.17066 0
0.981748 2.48394 0
1.1781 2.48394 0
1.1781 1.85737 0
1.37445 1.85737 0
1.1781 2.17066 0
1.37445 2.17066 0
1.37445 1.85737 0
1.5708 1.85737 0
1.37445 2.17066 0
1.5708 2.17066 0
1.1781 2.17066 0
1.37445 2.17066 0
1.1781 2.48394 0
1.37445 2.48394 0
1.37445 2.17066 0
1.5708 2.17066 0
1.37445 2.48394 0
1.5708 2.48394 0
1.5708 0 0
1.76715 0 0
1.5708 0.291978 0
1.76715 0.291978 0
1.76715 0 0
1.9635 0 0
1.76715 0.291978 0
1.9635 0.291978 0
1.5708 0.291978 0
1.76715 0.291978 0
1.5708 0.604758 0
1.76715 0.604758 0
1.76715 0.291978 0
1.9635 0.291978 0
1.76715 0.604758 0
1.9635 0.604758 0
1.9635 0 0
2.15984 0 0
1.9635 0.291978 0
2.15984 0.291978 0
2.15984 0 0
2.35619 0 0
2.15984 0.291978 0
2.35619 0.291978 0
1.9635 0.291978 0
2.15984 0.291978 0
1.9635 0.604758 0
2.15984 0.604758 0
2.15984 0.291978 0
2.35619 0.291978 0
2.15984 0.604758 0
2.35619 0.604758 0
1.5708 0.604758 0
1.76715 0.604758 0
1.5708 0.917281 0
1.76715 0.917281 0
1.76715 0.604758 0
1.9635 0.604758 0
1.76715 0.917281 0
1.9635 0.917281 0
1.5708 0.917281 0
1.76715 0.917281 0
1.5708 1.23079 0
1.76715 1.23079 0
1.76715 0.917281 0
1.9635 0.917281 0
1.76715 1.23079 0
1.9635 1.23079 0
1.9635 0.604758 0
2.15984 0.604758 0
1.9635 0.917281 0
2.15984 0.917281 0
2.15984 0.604758 0
2.35619 0.604758 0
2.15984 0.917281 0
2.35619 0.917281 0
1.9635 0.917281 0
2.15984 0.917281 0
1.9635 1.23079 0
2.15984 1.23079 0
2.15984 0.917281 0
2.35619 0.917281 0
2.15984 1.23079 0
2.35619 1.23079 0
2.35619 0 0
2.55254 0 0
2.35619 0.291978 0
2.55254 0.291978 0
2.55254 0 0
2.74889 0 0
2.55254 0.291978 0
2.74889 0.291978 0
2.35619 0.291978 0
2.55254 0.291978 0
2.35619 0.604758 0
2.55254 0.604758 0
2.55254 0.291978 0
2.74889 0.291978 0
2.55254 0.604758 0
2.74889 0.604758 0
2.74889 0 0
2.94524 0 0
2.74889 0.291978 0
2.94524 0.291978 0
2.94524 0 0
3.14159 0 0
2.94524 0.291978 0
3.14159 0.291978 0
2.74889 0.291978 0
2.94524 0.291978 0
2.74889 0.604758 0
2.94524 0.604758 0
2.94524 0.291978 0
3.14159 0.291978 0
2.94524 0.604758 0
3.14159 0.604758 0
2.35619 0.604758 0
2.55254 0.604758 0
2.35619 0.917281 0
2.55254 0.917281 0
2.55254 0.604758 0
2.74889 0.604758 0
2.55254 0.917281 0
2.74889 0.917281 0
2.35619 0.917281 0
2.55254 0.917281 0
2.35619 1.23079 0
2.55254 1.23079 0
2.55254 0.917281 0
2.74889 0.917281 0
2.55254 1.23079 0
2.74889 1.23079 0
2.74889 0.604758 0
2.94524 0.604758 0
2.74889 0.917281 0
2.94524 0.917281 0
2.94524 0.604758 0
3.14159 0.604758 0
2.94524 0.917281 0
3.14159 0.917281 0
2.74889 0.917281 0
2.94524 0.917281 0
2.74889 1.23079 0
2.94524 1.23079 0
2.94524 0.917281 0
3.14159 0.917281 0
2.94524 1.23079 0
3.14159 1.23079 0
1.5708 1.23079 0
1.76715 1.23079 0
1.5708 1.54404 0
1.76715 1.54404 0
1.76715 1.23079 0
1.9635 1.23079 0
1.76715 1.54404 0
1.9635 1.54404 0
1.5708 1.54404 0
1.76715 1.54404 0
1.5708 1.85737 0
1.76715 1.85737 0
1.76715 1.54404 0
1.9635 1.54404 0
1.76715 1.85737 0
1.9635 1.85737 0
1.9635 1.23079 0
2.15984 1.23079 0
1.9635 1.54404 0
2.15984 1.54404 0
2.15984 1.23079 0
2.35619 1.23079 0
2.15984 1.54404 0
2.35619 1.54404 0
1.9635 1.54404 0
2.15984 1.54404 0
1.9635 1.85737 0
2.15984 1.85737 0
2.15984 1.54404 0
2.35619 1.54404 0
2.15984 1.85737 0
2.35619 1.85737 0
1.5708 1.85737 0
1.76715 1.85737 0
1.5708 2.17066 0
1.76715 2.17066 0
1.76715 1.85737 0
1.9635 1.85737 0
1.76715 2.17066 0
1.9635 2.17066 0
1.5708 2.17066 0
1.76715 2.17066 0
1.5708 2.48394 0
1.76715 2.48394 0
1.76715 2.17066 0
1.9635 2.17066 0
1.76715 2.48394 0
1.9635 2.48394 0
1.9635 1.85737 0
2.15984 1.85737 0
1.9635 2.17066 0
2.15984 2.17066 0
2.15984 1.85737 0
2.35619 1.85737 0
2.15984 2.17066 0
2.35619 2.17066 0
1.9635 2.17066 0
2.15984 2.17066 0
1.9635 2.48394 0
2.15984 2.48394 0
2.15984 2.17066 0
2.35619 2.17066 0
2.15984 2.48394 0
2.35619 2.48394 0
2.35619 1.23079 0
2.55254 1.23079 0
2.35619 1.54404 0
2.55254 1.54404 0
2.55254 1.23079 0
2.74889 1.23079 0
2.55254 1.54404 0
2.74889 1.54404 0
2.35619 1.54404 0
2.55254 1.54404 0
2.35619 1.85737 0
2.55254 1.85737 0
2.55254 1.54404 0
2.74889 1.54404 0
2.55254 1.85737 0
2.74889 1.85737 0
2.74889 1.23079 0
2.94524 1.23079 0
2.74889 1.54404 0
2.94524 1.54404 0
2.94524 1.23079 0
3.14159 1.23079 0
2.94524 1.54404 0
3.14159 1.54404 0
2.74889 1.54404 0
2.94524 1.54404 0
2.74889 1.85737 0
2.94524 1.85737 0
2.94524 1.54404 0
3.14159 1.54404 0
2.94524 1.85737 0
3.14159 1.85737 0
2.35619 1.85737 0
2.55254 1.85737 0
2.35619 2.17066 0
2.55254 2.17066 0
2.55254 1.85737 0
2.74889 1.85737 0
2.55254 2.17066 0
2.74889 2.17066 0
2.35619 2.17066 0
2.55254 2.17066 0
2.35619 2.48394 0
2.55254 2.48394 0
2.55254 2.17066 0
2.74889 2.17066 0
2.55254 2.48394 0
2.74889 2.48394 0
2.74889 1.85737 0
2.94524 1.85737 0
2.74889 2.17066 0
2.94524 2.17066 0
2.94524 1.85737 0
3.14159 1.85737 0
2.94524 2.17066 0
3.14159 2.17066 0
2.74889 2.17066 0
2.94524 2.17066 0
2.74889 2.48394 0
2.94524 2.48394 0
2.94524 2.17066 0
3.14159 2.17066 0
2.94524 2.48394 0
3.14159 2.48394 0
0 2.48394 0
0.19635 2.48394 0
0 2.7972 0
0.19635 2.7972 0
0.19635 2.48394 0
0.392699 2.48394 0
0.19635 2.7972 0
0.392699 2.7972 0
0 2.7972 0
0.19635 2.7972 0
0 3.11045 0
0.19635 3.11045 0
0.19635 2.7972 0
0.392699 2.7972 0
0.19635 3.11045 0
0.392699 3.11045 0
0.392699 2.48394 0
0.589049 2.48394 0
0.392699 2.7972 0
0.589049 2.7972 0
0.589049 2.48394 0
0.785398 2.48394 0
0.589049 2.7972 0
0.785398 2.7972 0
0.392699 2.7972 0
0.589049 2.7972 0
0.392699 3.11045 0
0.589049 3.11045 0
0.589049 2.7972 0
0.785398 2.7972 0
0.589049 3.11045 0
0.785398 3.11045 0
0 3.11045 0
0.19635 3.11045 0
0 3.42368 0
0.19635 3.42368 0
0.19635 3.11045 0
0.392699 3.11045 0
0.19635 3.42368 0
0.392699 3.42368 0
[...]
POINT_DATA 20480
VECTORS uf double
0 1 0
-1.05562e-15 1 0
0 1.00099 0
-1.81848e-15 1.00099 0
-1.05562e-15 1 0
9.45573e-15 1 0
-1.81848e-15 1.00099 0
-1.78658e-14 1.00099 0
0 1.00099 0
3.23182e-15 1.00099 0
0 1.00076 0
-6.24271e-15 1.00076 0
3.23182e-15 1.00099 0
1.78634e-14 1.00099 0
-6.24271e-15 1.00076 0
-1.07517e-14 1.00076 0
9.45573e-15 1 0
4.23597e-15 1 0
-1.78658e-14 1.00099 0
-1.10176e-14 1.00099 0
4.23597e-15 1 0
-1.55865e-14 1 0
-1.10176e-14 1.00099 0
1.42963e-14 1.00099 0
1.78634e-14 1.00099 0
9.28313e-15 1.00099 0
-1.07517e-14 1.00076 0
1.14731e-15 1.00076 0
9.28313e-15 1.00099 0
1.427e-15 1.00099 0
1.14731e-15 1.00076 0
3.55363e-15 1.00076 0
0 1.00076 0
1.46301e-14 1.00076 0
0 1.00081 0
1.38736e-14 1.00081 0
1.46301e-14 1.00076 0
-3.44894e-15 1.00076 0
1.38736e-14 1.00081 0
4.7559e-15 1.00081 0
0 1.00081 0
-2.15312e-14 1.00081 0
0 1.00076 0
-2.71539e-14 1.00076 0
-2.15312e-14 1.00081 0
5.31409e-15 1.00081 0
-2.71539e-14 1.00076 0
3.43086e-15 1.00076 0
-3.44894e-15 1.00076 0
-1.89702e-15 1.00076 0
4.7559e-15 1.00081 0
4.71606e-15 1.00081 0
-1.89702e-15 1.00076 0
1.68017e-15 1.00076 0
4.71606e-15 1.00081 0
-2.44992e-15 1.00081 0
5.31409e-15 1.00081 0
-2.40823e-15 1.00081 0
3.43086e-15 1.00076 0
-3.94855e-15 1.00076 0
-2.40823e-15 1.00081 0
1.07419e-14 1.00081 0
-3.94855e-15 1.00076 0
-1.10614e-14 1.00076 0
-1.55865e-14 1 0
-1.33068e-14 1 0
1.42963e-14 1.00099 0
9.35036e-15 1.00099 0
-1.33068e-14 1 0
-4.03004e-15 1 0
9.35036e-15 1.00099 0
3.78607e-15 1.00099 0
1.427e-15 1.00099 0
6.45211e-15 1.00099 0
3.55363e-15 1.00076 0
-2.73395e-15 1.00076 0
6.45211e-15 1.00099 0
-1.18087e-15 1.00099 0
-2.73395e-15 1.00076 0
1.05282e-14 1.00076 0
-4.03004e-15 1 0
2.16174e-16 1 0
3.78607e-15 1.00099 0
2.04584e-15 1.00099 0
2.16174e-16 1 0
6.58717e-16 1 0
2.04584e-15 1.00099 0
6.20115e-15 1.00099 0
-1.18087e-15 1.00099 0
-9.48987e-15 1.00099 0
1.05282e-14 1.00076 0
1.62409e-14 1.00076 0
-9.48987e-15 1.00099 0
-6.21559e-15 1.00099 0
1.62409e-14 1.00076 0
1.13747e-14 1.00076 0
1.68017e-15 1.00076 0
7.64047e-15 1.00076 0
-2.44992e-15 1.00081 0
1.06756e-16 1.00081 0
7.64047e-15 1.00076 0
3.5951e-15 1.00076 0
1.06756e-16 1.00081 0
-3.38425e-15 1.00081 0
1.07419e-14 1.00081 0
-2.67492e-15 1.00081 0
-1.10614e-14 1.00076 0
3.08932e-15 1.00076 0
-2.67492e-15 1.00081 0
-1.07244e-15 1.00081 0
3.08932e-15 1.00076 0
-5.64161e-15 1.00076 0
3.5951e-15 1.00076 0
-6.18944e-15 1.00076 0
-3.38425e-15 1.00081 0
1.47708e-15 1.00081 0
-6.18944e-15 1.00076 0
-8.21651e-15 1.00076 0
1.47708e-15 1.00081 0
7.30725e-15 1.00081 0
-1.07244e-15 1.00081 0
5.0092e-15 1.00081 0
-5.64161e-15 1.00076 0
8.39396e-15 1.00076 0
5.0092e-15 1.00081 0
7.31585e-16 1.00081 0
8.39396e-15 1.00076 0
-1.17715e-15 1.00076 0
0 1.00076 0
2.48537e-14 1.00076 0
0 1.00074 0
1.56503e-14 1.00074 0
2.48537e-14 1.00076 0
-1.85904e-14 1.00076 0
1.56503e-14 1.00074 0
-1.67434e-14 1.00074 0
0 1.00074 0
-1.38221e-14 1.00074 0
0 1.00071 0
-2.55293e-14 1.00071 0
-1.38221e-14 1.00074 0
3.41883e-14 1.00074 0
-2.55293e-14 1.00071 0
2.64615e-14 1.00071 0
-1.85904e-14 1.00076 0
4.87679e-15 1.00076 0
-1.67434e-14 1.00074 0
6.66458e-15 1.00074 0
4.87679e-15 1.00076 0
7.55151e-15 1.00076 0
6.66458e-15 1.00074 0
1.11992e-15 1.00074 0
3.41883e-14 1.00074 0
-1.35832e-14 1.00074 0
2.64615e-14 1.00071 0
8.13811e-15 1.00071 0
-1.35832e-14 1.00074 0
-6.73177e-16 1.00074 0
8.13811e-15 1.00071 0
-5.67098e-15 1.00071 0
0 1.00071 0
1.10122e-14 1.00071 0
0 1.00069 0
9.80005e-15 1.00069 0
1.10122e-14 1.00071 0
-5.16191e-14 1.00071 0
9.80005e-15 1.00069 0
-5.05016e-14 1.00069 0
0 1.00069 0
3.79252e-14 1.00069 0
0 1.00066 0
3.07376e-14 1.00066 0
3.79252e-14 1.00069 0
4.93956e-14 1.00069 0
3.07376e-14 1.00066 0
5.10535e-14 1.00066 0
-5.16191e-14 1.00071 0
2.4762e-15 1.00071 0
-5.05016e-14 1.00069 0
-6.92076e-15 1.00069 0
2.4762e-15 1.00071 0
-1.22977e-15 1.00071 0
-6.92076e-15 1.00069 0
-3.00246e-15 1.00069 0
4.93956e-14 1.00069 0
3.95734e-16 1.00069 0
5.10535e-14 1.00066 0
-4.65907e-15 1.00066 0
3.95734e-16 1.00069 0
1.17125e-15 1.00069 0
-4.65907e-15 1.00066 0
7.76577e-15 1.00066 0
7.55151e-15 1.00076 0
7.12463e-15 1.00076 0
1.11992e-15 1.00074 0
-3.48475e-15 1.00074 0
7.12463e-15 1.00076 0
6.98716e-15 1.00076 0
-3.48475e-15 1.00074 0
6.41077e-16 1.00074 0
-6.73177e-16 1.00074 0
3.12245e-15 1.00074 0
-5.67098e-15 1.00071 0
-4.61072e-15 1.00071 0
3.12245e-15 1.00074 0
5.08885e-15 1.00074 0
-4.61072e-15 1.00071 0
7.54917e-16 1.00071 0
6.98716e-15 1.00076 0
-9.65137e-15 1.00076 0
6.41077e-16 1.00074 0
1.3279e-14 1.00074 0
-9.65137e-15 1.00076 0
-2.48973e-16 1.00076 0
1.3279e-14 1.00074 0
4.96427e-15 1.00074 0
5.08885e-15 1.00074 0
-1.72409e-15 1.00074 0
7.54917e-16 1.00071 0
-5.76264e-15 1.00071 0
-1.72409e-15 1.00074 0
-3.77387e-15 1.00074 0
-5.76264e-15 1.00071 0
1.62455e-14 1.00071 0
-1.22977e-15 1.00071 0
-1.38358e-14 1.00071 0
-3.00246e-15 1.00069 0
4.24892e-15 1.00069 0
-1.38358e-14 1.00071 0
-1.18092e-14 1.00071 0
4.24892e-15 1.00069 0
6.04757e-15 1.00069 0
1.17125e-15 1.00069 0
2.81118e-15 1.00069 0
7.76577e-15 1.00066 0
1.35152e-14 1.00066 0
2.81118e-15 1.00069 0
-9.01605e-15 1.00069 0
1.35152e-14 1.00066 0
8.17334e-15 1.00066 0
-1.18092e-14 1.00071 0
5.04342e-15 1.00071 0
6.04757e-15 1.00069 0
-4.73925e-15 1.00069 0
5.04342e-15 1.00071 0
-1.36066e-14 1.00071 0
-4.73925e-15 1.00069 0
-9.38435e-16 1.00069 0
-9.01605e-15 1.00069 0
-1.36318e-15 1.00069 0
8.17334e-15 1.00066 0
3.1729e-15 1.00066 0
-1.36318e-15 1.00069 0
-4.17237e-15 1.00069 0
3.1729e-15 1.00066 0
1.36676e-14 1.00066 0
6.58717e-16 1 0
-7.7036e-17 1 0
6.20115e-15 1.00099 0
8.66174e-15 1.00099 0
-7.7036e-17 1 0
1.44012e-15 1 0
8.66174e-15 1.00099 0
1.64398e-15 1.00099 0
-6.21559e-15 1.00099 0
-8.14349e-15 1.00099 0
1.13747e-14 1.00076 0
1.29166e-14 1.00076 0
-8.14349e-15 1.00099 0
-2.53128e-15 1.00099 0
1.29166e-14 1.00076 0
5.16777e-15 1.00076 0
1.44012e-15 1 0
-7.93654e-15 1 0
1.64398e-15 1.00099 0
9.45288e-15 1.00099 0
-7.93654e-15 1 0
-7.17133e-15 1 0
9.45288e-15 1.00099 0
1.69072e-14 1.00099 0
-2.53128e-15 1.00099 0
4.49506e-15 1.00099 0
5.16777e-15 1.00076 0
-1.34444e-15 1.00076 0
4.49506e-15 1.00099 0
-5.06093e-15 1.00099 0
-1.34444e-15 1.00076 0
-5.03745e-15 1.00076 0
-8.21651e-15 1.00076 0
-9.68922e-15 1.00076 0
7.30725e-15 1.00081 0
1.0728e-14 1.00081 0
-9.68922e-15 1.00076 0
-4.20063e-15 1.00076 0
1.0728e-14 1.00081 0
1.60418e-15 1.00081 0
7.31585e-16 1.00081 0
-8.23703e-15 1.00081 0
-1.17715e-15 1.00076 0
5.70279e-15 1.00076 0
-8.23703e-15 1.00081 0
3.08154e-15 1.00081 0
5.70279e-15 1.00076 0
6.30656e-15 1.00076 0
-4.20063e-15 1.00076 0
1.02096e-16 1.00076 0
1.60418e-15 1.00081 0
-1.61849e-15 1.00081 0
1.02096e-16 1.00076 0
-6.88053e-16 1.00076 0
-1.61849e-15 1.00081 0
1.39404e-14 1.00081 0
3.08154e-15 1.00081 0
-3.04348e-15 1.00081 0
6.30656e-15 1.00076 0
5.98591e-15 1.00076 0
-3.04348e-15 1.00081 0
-9.47575e-15 1.00081 0
5.98591e-15 1.00076 0
6.39823e-15 1.00076 0
-7.17133e-15 1 0
1.38916e-15 1 0
1.69072e-14 1.00099 0
-2.4369e-15 1.00099 0
1.38916e-15 1 0
-6.35357e-15 1 0
-2.4369e-15 1.00099 0
8.31603e-15 1.00099 0
-5.06093e-15 1.00099 0
9.30319e-16 1.00099 0
-5.03745e-15 1.00076 0
2.34206e-15 1.00076 0
9.30319e-16 1.00099 0
-1.05652e-14 1.00099 0
2.34206e-15 1.00076 0
1.25942e-14 1.00076 0
-6.35357e-15 1 0
-8.62064e-15 1 0
8.31603e-15 1.00099 0
2.02739e-15 1.00099 0
-8.62064e-15 1 0
-7.02548e-15 1 0
2.02739e-15 1.00099 0
9.52728e-15 1.00099 0
-1.05652e-14 1.00099 0
2.72538e-15 1.00099 0
1.25942e-14 1.00076 0
1.07748e-14 1.00076 0
2.72538e-15 1.00099 0
1.39237e-15 1.00099 0
1.07748e-14 1.00076 0
3.11853e-15 1.00076 0
-6.88053e-16 1.00076 0
8.05839e-15 1.00076 0
1.39404e-14 1.00081 0
1.79407e-15 1.00081 0
8.05839e-15 1.00076 0
-5.5288e-15 1.00076 0
1.79407e-15 1.00081 0
1.91542e-14 1.00081 0
-9.47575e-15 1.00081 0
-2.97145e-15 1.00081 0
6.39823e-15 1.00076 0
-4.86933e-15 1.00076 0
-2.97145e-15 1.00081 0
-1.25111e-14 1.00081 0
-4.86933e-15 1.00076 0
9.91476e-15 1.00076 0
-5.5288e-15 1.00076 0
-7.40091e-15 1.00076 0
1.91542e-14 1.00081 0
1.01017e-14 1.00081 0
-7.40091e-15 1.00076 0
3.71865e-15 1.00076 0
1.01017e-14 1.00081 0
3.63355e-15 1.00081 0
-1.25111e-14 1.00081 0
-4.20116e-15 1.00081 0
9.91476e-15 1.00076 0
1.66257e-14 1.00076 0
-4.20116e-15 1.00081 0
-4.29328e-15 1.00081 0
1.66257e-14 1.00076 0
1.42419e-14 1.00076 0
-2.48973e-16 1.00076 0
-7.01606e-17 1.00076 0
4.96427e-15 1.00074 0
-1.05739e-15 1.00074 0
-7.01606e-17 1.00076 0
-5.77136e-15 1.00076 0
-1.05739e-15 1.00074 0
8.22469e-15 1.00074 0
-3.77387e-15 1.00074 0
5.32763e-15 1.00074 0
1.62455e-14 1.00071 0
8.41961e-15 1.00071 0
5.32763e-15 1.00074 0
-6.49288e-15 1.00074 0
8.41961e-15 1.00071 0
1.87082e-14 1.00071 0
-5.77136e-15 1.00076 0
3.72229e-15 1.00076 0
8.22469e-15 1.00074 0
9.78606e-16 1.00074 0
3.72229e-15 1.00076 0
8.0466e-15 1.00076 0
9.78606e-16 1.00074 0
-9.24208e-15 1.00074 0
-6.49288e-15 1.00074 0
2.25662e-15 1.00074 0
1.87082e-14 1.00071 0
5.3062e-15 1.00071 0
2.25662e-15 1.00074 0
8.11667e-15 1.00074 0
5.3062e-15 1.00071 0
7.01465e-15 1.00071 0
-1.36066e-14 1.00071 0
-1.67396e-14 1.00071 0
-9.38435e-16 1.00069 0
1.47246e-14 1.00069 0
-1.67396e-14 1.00071 0
-1.92026e-14 1.00071 0
1.47246e-14 1.00069 0
1.24302e-14 1.00069 0
-4.17237e-15 1.00069 0
-1.3457e-14 1.00069 0
1.36676e-14 1.00066 0
1.25175e-14 1.00066 0
-1.3457e-14 1.00069 0
-1.0352e-15 1.00069 0
1.25175e-14 1.00066 0
4.59719e-15 1.00066 0
-1.92026e-14 1.00071 0
-9.55723e-15 1.00071 0
1.24302e-14 1.00069 0
1.33126e-14 1.00069 0
-9.55723e-15 1.00071 0
-6.53488e-15 1.00071 0
1.33126e-14 1.00069 0
1.15426e-14 1.00069 0
-1.0352e-15 1.00069 0
-1.50765e-15 1.00069 0
4.59719e-15 1.00066 0
2.08383e-15 1.00066 0
-1.50765e-15 1.00069 0
-7.75866e-15 1.00069 0
2.08383e-15 1.00066 0
1.16735e-14 1.00066 0
8.0466e-15 1.00076 0
9.27887e-15 1.00076 0
-9.24208e-15 1.00074 0
6.1623e-15 1.00074 0
9.27887e-15 1.00076 0
-1.68315e-16 1.00076 0
6.1623e-15 1.00074 0
5.46878e-15 1.00074 0
8.11667e-15 1.00074 0
-4.61497e-15 1.00074 0
7.01465e-15 1.00071 0
1.25022e-14 1.00071 0
-4.61497e-15 1.00074 0
-1.09475e-15 1.00074 0
1.25022e-14 1.00071 0
1.09489e-14 1.00071 0
-1.68315e-16 1.00076 0
-9.46354e-15 1.00076 0
5.46878e-15 1.00074 0
4.56662e-15 1.00074 0
-9.46354e-15 1.00076 0
-6.08952e-15 1.00076 0
4.56662e-15 1.00074 0
7.95877e-15 1.00074 0
-1.09475e-15 1.00074 0
9.00164e-15 1.00074 0
1.09489e-14 1.00071 0
1.03866e-15 1.00071 0
9.00164e-15 1.00074 0
-2.01352e-15 1.00074 0
1.03866e-15 1.00071 0
1.32e-14 1.00071 0
-6.53488e-15 1.00071 0
6.72941e-16 1.00071 0
1.15426e-14 1.00069 0
-5.25032e-16 1.00069 0
6.72941e-16 1.00071 0
-7.7599e-15 1.00071 0
-5.25032e-16 1.00069 0
1.49845e-14 1.00069 0
-7.75866e-15 1.00069 0
-8.94291e-15 1.00069 0
1.16735e-14 1.00066 0
1.44113e-14 1.00066 0
-8.94291e-15 1.00069 0
-1.17707e-14 1.00069 0
1.44113e-14 1.00066 0
8.60273e-15 1.00066 0
-7.7599e-15 1.00071 0
7.01657e-15 1.00071 0
1.49845e-14 1.00069 0
4.87378e-15 1.00069 0
7.01657e-15 1.00071 0
-7.89564e-15 1.00071 0
4.87378e-15 1.00069 0
5.08753e-15 1.00069 0
-1.17707e-14 1.00069 0
-5.41916e-15 1.00069 0
8.60273e-15 1.00066 0
-3.75189e-15 1.00066 0
-5.41916e-15 1.00069 0
4.59347e-15 1.00069 0
-3.75189e-15 1.00066 0
-4.04e-15 1.00066 0
0 1.00066 0
-5.12347e-14 1.00066 0
0 1.00064 0
-6.96501e-14 1.00064 0
-5.12347e-14 1.00066 0
-2.32432e-15 1.00066 0
-6.96501e-14 1.00064 0
-7.49421e-15 1.00064 0
0 1.00064 0
5.75159e-14 1.00064 0
0 1.00061 0
5.24155e-14 1.00061 0
5.75159e-14 1.00064 0
-1.05836e-14 1.00064 0
5.24155e-14 1.00061 0
-1.40898e-14 1.00061 0
-2.32432e-15 1.00066 0
1.15517e-14 1.00066 0
-7.49421e-15 1.00064 0
1.57828e-14 1.00064 0
1.15517e-14 1.00066 0
-6.4902e-15 1.00066 0
1.57828e-14 1.00064 0
4.4876e-15 1.00064 0
-1.05836e-14 1.00064 0
-2.33615e-14 1.00064 0
-1.40898e-14 1.00061 0
-1.08839e-15 1.00061 0
-2.33615e-14 1.00064 0
1.01159e-14 1.00064 0
-1.08839e-15 1.00061 0
4.16921e-15 1.00061 0
0 1.00061 0
-4.30432e-14 1.00061 0
0 1.00059 0
-4.28397e-14 1.00059 0
-4.30432e-14 1.00061 0
-1.25833e-14 1.00061 0
-4.28397e-14 1.00059 0
-5.05986e-15 1.00059 0
0 1.00059 0
4.77517e-14 1.00059 0
0 1.00056 0
3.08887e-14 1.00056 0
4.77517e-14 1.00059 0
2.88695e-14 1.00059 0
3.08887e-14 1.00056 0
3.50244e-14 1.00056 0
-1.25833e-14 1.00061 0
8.07886e-15 1.00061 0
-5.05986e-15 1.00059 0
4.17753e-15 1.00059 0
8.07886e-15 1.00061 0
-6.20201e-15 1.00061 0
4.17753e-15 1.00059 0
-4.53756e-15 1.00059 0
2.88695e-14 1.00059 0
-2.14872e-14 1.00059 0
3.50244e-14 1.00056 0
-6.96369e-15 1.00056 0
-2.14872e-14 1.00059 0
5.93962e-15 1.00059 0
-6.96369e-15 1.00056 0
-2.28998e-14 1.00056 0
-6.4902e-15 1.00066 0
7.38318e-16 1.00066 0
4.4876e-15 1.00064 0
-4.50391e-15 1.00064 0
7.38318e-16 1.00066 0
2.385e-16 1.00066 0
-4.50391e-15 1.00064 0
6.57161e-15 1.00064 0
1.01159e-14 1.00064 0
2.67227e-15 1.00064 0
4.16921e-15 1.00061 0
8.01679e-16 1.00061 0
2.67227e-15 1.00064 0
-2.62832e-15 1.00064 0
8.01679e-16 1.00061 0
2.97958e-15 1.00061 0
2.385e-16 1.00066 0
-4.69157e-15 1.00066 0
6.57161e-15 1.00064 0
1.43921e-14 1.00064 0
-4.69157e-15 1.00066 0
-6.22281e-15 1.00066 0
1.43921e-14 1.00064 0
9.69951e-15 1.00064 0
-2.62832e-15 1.00064 0
-1.28308e-14 1.00064 0
2.97958e-15 1.00061 0
1.74682e-14 1.00061 0
-1.28308e-14 1.00064 0
-8.0183e-15 1.00064 0
1.74682e-14 1.00061 0
1.18402e-14 1.00061 0
-6.20201e-15 1.00061 0
1.62809e-15 1.00061 0
-4.53756e-15 1.00059 0
-2.57314e-15 1.00059 0
1.62809e-15 1.00061 0
1.9041e-15 1.00061 0
-2.57314e-15 1.00059 0
-6.27654e-15 1.00059 0
5.93962e-15 1.00059 0
-1.32758e-14 1.00059 0
-2.28998e-14 1.00056 0
3.35741e-15 1.00056 0
-1.32758e-14 1.00059 0
-1.2833e-15 1.00059 0
3.35741e-15 1.00056 0
-3.65257e-15 1.00056 0
1.9041e-15 1.00061 0
-1.45742e-14 1.00061 0
-6.27654e-15 1.00059 0
6.18987e-15 1.00059 0
-1.45742e-14 1.00061 0
-1.02949e-14 1.00061 0
6.18987e-15 1.00059 0
9.54212e-15 1.00059 0
-1.2833e-15 1.00059 0
-4.51836e-15 1.00059 0
-3.65257e-15 1.00056 0
1.38194e-15 1.00056 0
-4.51836e-15 1.00059 0
-4.13442e-15 1.00059 0
1.38194e-15 1.00056 0
1.55054e-15 1.00056 0
0 1.00056 0
-3.47079e-14 1.00056 0
0 1.00054 0
-5.8728e-14 1.00054 0
-3.47079e-14 1.00056 0
-4.69129e-14 1.00056 0
-5.8728e-14 1.00054 0
-5.10411e-14 1.00054 0
0 1.00054 0
5.85391e-14 1.00054 0
0 1.00052 0
4.64992e-14 1.00052 0
5.85391e-14 1.00054 0
1.90384e-14 1.00054 0
4.64992e-14 1.00052 0
3.27733e-14 1.00052 0
-4.69129e-14 1.00056 0
2.12648e-14 1.00056 0
-5.10411e-14 1.00054 0
4.93388e-14 1.00054 0
2.12648e-14 1.00056 0
2.7238e-14 1.00056 0
4.93388e-14 1.00054 0
1.04922e-14 1.00054 0
1.90384e-14 1.00054 0
-3.32529e-14 1.00054 0
3.27733e-14 1.00052 0
-2.73029e-14 1.00052 0
-3.32529e-14 1.00054 0
3.60648e-15 1.00054 0
-2.73029e-14 1.00052 0
9.82511e-15 1.00052 0
0 1.00052 0
-4.10684e-14 1.00052 0
0 1.00049 0
-5.40992e-14 1.00049 0
-4.10684e-14 1.00052 0
3.17765e-14 1.00052 0
-5.40992e-14 1.00049 0
2.72377e-14 1.00049 0
0 1.00049 0
2.88323e-14 1.00049 0
0 1.00047 0
2.29237e-14 1.00047 0
2.88323e-14 1.00049 0
-2.58963e-14 1.00049 0
2.29237e-14 1.00047 0
-2.78211e-14 1.00047 0
3.17765e-14 1.00052 0
1.30463e-14 1.00052 0
2.72377e-14 1.00049 0
1.42494e-14 1.00049 0
1.30463e-14 1.00052 0
-4.01642e-14 1.00052 0
1.42494e-14 1.00049 0
-3.50474e-15 1.00049 0
-2.58963e-14 1.00049 0
-9.10677e-15 1.00049 0
-2.78211e-14 1.00047 0
6.6872e-16 1.00047 0
-9.10677e-15 1.00049 0
-9.8065e-15 1.00049 0
6.6872e-16 1.00047 0
1.1122e-14 1.00047 0
2.7238e-14 1.00056 0
-1.30232e-14 1.00056 0
1.04922e-14 1.00054 0
2.18174e-14 1.00054 0
-1.30232e-14 1.00056 0
3.28726e-15 1.00056 0
2.18174e-14 1.00054 0
9.81201e-15 1.00054 0
3.60648e-15 1.00054 0
4.04672e-15 1.00054 0
9.82511e-15 1.00052 0
2.02813e-14 1.00052 0
4.04672e-15 1.00054 0
-5.06228e-15 1.00054 0
2.02813e-14 1.00052 0
-5.17557e-15 1.00052 0
3.28726e-15 1.00056 0
-1.4188e-15 1.00056 0
9.81201e-15 1.00054 0
7.79892e-15 1.00054 0
-1.4188e-15 1.00056 0
-8.11638e-15 1.00056 0
7.79892e-15 1.00054 0
5.92718e-15 1.00054 0
-5.06228e-15 1.00054 0
-1.02974e-14 1.00054 0
-5.17557e-15 1.00052 0
6.86387e-15 1.00052 0
-1.02974e-14 1.00054 0
-6.9022e-15 1.00054 0
6.86387e-15 1.00052 0
1.05542e-14 1.00052 0
-4.01642e-14 1.00052 0
-6.89121e-15 1.00052 0
-3.50474e-15 1.00049 0
-2.62461e-14 1.00049 0
-6.89121e-15 1.00052 0
-4.89374e-15 1.00052 0
-2.62461e-14 1.00049 0
1.21582e-14 1.00049 0
-9.8065e-15 1.00049 0
9.78893e-15 1.00049 0
1.1122e-14 1.00047 0
1.45276e-14 1.00047 0
9.78893e-15 1.00049 0
-1.79053e-15 1.00049 0
1.45276e-14 1.00047 0
1.42667e-14 1.00047 0
-4.89374e-15 1.00052 0
-9.33724e-15 1.00052 0
1.21582e-14 1.00049 0
1.11462e-14 1.00049 0
-9.33724e-15 1.00052 0
-1.18255e-14 1.00052 0
1.11462e-14 1.00049 0
7.41368e-15 1.00049 0
-1.79053e-15 1.00049 0
-1.22383e-14 1.00049 0
1.42667e-14 1.00047 0
1.94678e-14 1.00047 0
-1.22383e-14 1.00049 0
-2.56982e-15 1.00049 0
1.94678e-14 1.00047 0
1.31323e-14 1.00047 0
-6.22281e-15 1.00066 0
-7.1383e-17 1.00066 0
9.69951e-15 1.00064 0
1.32268e-15 1.00064 0
-7.1383e-17 1.00066 0
-9.3594e-15 1.00066 0
1.32268e-15 1.00064 0
1.26635e-14 1.00064 0
-8.0183e-15 1.00064 0
-5.55094e-17 1.00064 0
1.18402e-14 1.00061 0
6.46222e-15 1.00061 0
-5.55094e-17 1.00064 0
-4.44507e-15 1.00064 0
6.46222e-15 1.00061 0
2.8604e-15 1.00061 0
-9.3594e-15 1.00066 0
-2.55757e-15 1.00066 0
1.26635e-14 1.00064 0
1.47826e-14 1.00064 0
-2.55757e-15 1.00066 0
-9.40988e-15 1.00066 0
1.47826e-14 1.00064 0
1.35429e-14 1.00064 0
-4.44507e-15 1.00064 0
-2.09646e-14 1.00064 0
2.8604e-15 1.00061 0
2.31878e-14 1.00061 0
-2.09646e-14 1.00064 0
-8.13727e-15 1.00064 0
2.31878e-14 1.00061 0
1.16428e-14 1.00061 0
-1.02949e-14 1.00061 0
-1.29401e-14 1.00061 0
9.54212e-15 1.00059 0
1.27364e-14 1.00059 0
-1.29401e-14 1.00061 0
-3.14281e-15 1.00061 0
1.27364e-14 1.00059 0
4.96515e-15 1.00059 0
-4.13442e-15 1.00059 0
-1.99872e-15 1.00059 0
1.55054e-15 1.00056 0
3.00288e-15 1.00056 0
-1.99872e-15 1.00059 0
-6.73154e-15 1.00059 0
3.00288e-15 1.00056 0
8.83894e-15 1.00056 0
-3.14281e-15 1.00061 0
-2.00243e-14 1.00061 0
4.96515e-15 1.00059 0
8.61805e-15 1.00059 0
-2.00243e-14 1.00061 0
-1.29846e-14 1.00061 0
8.61805e-15 1.00059 0
6.61045e-15 1.00059 0
-6.73154e-15 1.00059 0
-3.40494e-15 1.00059 0
8.83894e-15 1.00056 0
5.24456e-15 1.00056 0
-3.40494e-15 1.00059 0
-1.05029e-15 1.00059 0
5.24456e-15 1.00056 0
1.06559e-15 1.00056 0
-9.40988e-15 1.00066 0
-5.5997e-15 1.00066 0
1.35429e-14 1.00064 0
1.26478e-14 1.00064 0
-5.5997e-15 1.00066 0
8.70754e-15 1.00066 0
1.26478e-14 1.00064 0
-5.80964e-15 1.00064 0
-8.13727e-15 1.00064 0
-1.06269e-14 1.00064 0
1.16428e-14 1.00061 0
1.20732e-14 1.00061 0
-1.06269e-14 1.00064 0
5.15138e-15 1.00064 0
1.20732e-14 1.00061 0
-6.25218e-15 1.00061 0
8.70754e-15 1.00066 0
9.859e-15 1.00066 0
-5.80964e-15 1.00064 0
-3.5769e-15 1.00064 0
9.859e-15 1.00066 0
-9.5936e-15 1.00066 0
-3.5769e-15 1.00064 0
2.19734e-14 1.00064 0
5.15138e-15 1.00064 0
4.40592e-15 1.00064 0
-6.25218e-15 1.00061 0
4.28574e-15 1.00061 0
4.40592e-15 1.00064 0
-1.29119e-14 1.00064 0
4.28574e-15 1.00061 0
1.36908e-14 1.00061 0
-1.29846e-14 1.00061 0
-1.0715e-14 1.00061 0
6.61045e-15 1.00059 0
3.36549e-15 1.00059 0
-1.0715e-14 1.00061 0
-5.07608e-15 1.00061 0
3.36549e-15 1.00059 0
1.48744e-14 1.00059 0
-1.05029e-15 1.00059 0
-4.68515e-15 1.00059 0
1.06559e-15 1.00056 0
1.19114e-14 1.00056 0
-4.68515e-15 1.00059 0
-5.73957e-15 1.00059 0
1.19114e-14 1.00056 0
1.07879e-16 1.00056 0
-5.07608e-15 1.00061 0
-6.50731e-15 1.00061 0
1.48744e-14 1.00059 0
5.70293e-15 1.00059 0
-6.50731e-15 1.00061 0
-2.02735e-14 1.00061 0
5.70293e-15 1.00059 0
1.49462e-14 1.00059 0
-5.73957e-15 1.00059 0
3.94956e-15 1.00059 0
1.07879e-16 1.00056 0
-3.03101e-15 1.00056 0
3.94956e-15 1.00059 0
-9.87225e-16 1.00059 0
-3.03101e-15 1.00056 0
4.09367e-15 1.00056 0
-8.11638e-15 1.00056 0
-1.26051e-14 1.00056 0
5.92718e-15 1.00054 0
1.70861e-14 1.00054 0
-1.26051e-14 1.00056 0
-9.89651e-15 1.00056 0
1.70861e-14 1.00054 0
1.01254e-14 1.00054 0
-6.9022e-15 1.00054 0
-1.01044e-14 1.00054 0
1.05542e-14 1.00052 0
6.04162e-15 1.00052 0
-1.01044e-14 1.00054 0
-3.97444e-15 1.00054 0
6.04162e-15 1.00052 0
9.42617e-15 1.00052 0
-9.89651e-15 1.00056 0
-8.47739e-15 1.00056 0
1.01254e-14 1.00054 0
1.29798e-14 1.00054 0