# vtk DataFile Version 3.0
#This file was generated by the deal.II library on 2018/10/16 at 6:34:38
ASCII
DATASET UNSTRUCTURED_GRID

POINTS 20480 double
0 0 0
0.19635 0 0
0 0.281001 0
0.19635 0.281001 0
0.19635 0 0
0.392699 0 0
0.19635 0.281001 0
0.392699 0.281001 0
0 0.281001 0
0.19635 0.281001 0
0 0.593304 0
0.19635 0.593304 0
0.19635 0.281001 0
0.392699 0.281001 0
0.19635 0.593304 0
0.392699 0.593304 0
0.392699 0 0
0.589049 0 0
0.392699 0.281001 0
0.589049 0.281001 0
0.589049 0 0
0.785398 0 0
0.589049 0.281001 0
0.785398 0.281001 0
0.392699 0.281001 0
0.589049 0.281001 0
0.392699 0.593304 0
0.589049 0.593304 0
0.589049 0.281001 0
0.785398 0.281001 0
0.589049 0.593304 0
0.785398 0.593304 0
0 0.593304 0
0.19635 0.593304 0
0 0.905671 0
0.19635 0.905671 0
0.19635 0.593304 0
0.392699 0.593304 0
0.19635 0.905671 0
0.392699 0.905671 0
0 0.905671 0
0.19635 0.905671 0
0 1.2198 0
0.19635 1.2198 0
0.19635 0.905671 0
0.392699 0.905671 0
0.19635 1.2198 0
0.392699 1.2198 0
0.392699 0.593304 0
0.589049 0.593304 0
0.392699 0.905671 0
0.589049 0.905671 0
0.589049 0.593304 0
0.785398 0.593304 0
0.589049 0.905671 0
0.785398 0.905671 0
0.392699 0.905671 0
0.589049 0.905671 0
0.392699 1.2198 0
0.589049 1.2198 0
0.589049 0.905671 0
0.785398 0.905671 0
0.589049 1.2198 0
0.785398 1.2198 0
0.785398 0 0
0.981748 0 0
0.785398 0.281001 0
0.981748 0.281001 0
0.981748 0 0
1.1781 0 0
0.981748 0.281001 0
1.1781 0.281001 0
0.785398 0.281001 0
0.981748 0.281001 0
0.785398 0.593304 0
0.981748 0.593304 0
0.981748 0.281001 0
1.1781 0.281001 0
0.981748 0.593304 0
1.1781 0.593304 0
1.1781 0 0
1.37445 0 0
1.1781 0.281001 0
1.37445 0.281001 0
1.37445 0 0
1.5708 0 0
1.37445 0.281001 0
1.5708 0.281001 0
1.1781 0.281001 0
1.37445 0.281001 0
1.1781 0.593304 0
1.37445 0.593304 0
1.37445 0.281001 0
1.5708 0.281001 0
1.37445 0.593304 0
1.5708 0.593304 0
0.785398 0.593304 0
0.981748 0.593304 0
0.785398 0.905671 0
0.981748 0.905671 0
0.981748 0.593304 0
1.1781 0.593304 0
0.981748 0.905671 0
1.1781 0.905671 0
0.785398 0.905671 0
0.981748 0.905671 0
0.785398 1.2198 0
0.981748 1.2198 0
0.981748 0.905671 0
1.1781 0.905671 0
0.981748 1.2198 0
1.1781 1.2198 0
1.1781 0.593304 0
1.37445 0.593304 0
1.1781 0.905671 0
1.37445 0.905671 0
1.37445 0.593304 0
1.5708 0.593304 0
1.37445 0.905671 0
1.5708 0.905671 0
1.1781 0.905671 0
1.37445 0.905671 0
1.1781 1.2198 0
1.37445 1.2198 0
1.37445 0.905671 0
1.5708 0.905671 0
1.37445 1.2198 0
1.5708 1.2198 0
0 1.2198 0
0.19635 1.2198 0
0 1.53347 0
0.19635 1.53347 0
0.19635 1.2198 0
0.392699 1.2198 0
0.19635 1.53347 0
0.392699 1.53347 0
0 1.53347 0
0.19635 1.53347 0
0 1.8473 0
0.19635 1.8473 0
0.19635 1.53347 0
0.392699 1.53347 0
0.19635 1.8473 0
0.392699 1.8473 0
0.392699 1.2198 0
0.589049 1.2198 0
0.392699 1.53347 0
0.589049 1.53347 0
0.589049 1.2198 0
0.785398 1.2198 0
0.589049 1.53347 0
0.785398 1.53347 0
0.392699 1.53347 0
0.589049 1.53347 0
0.392699 1.8473 0
0.589049 1.8473 0
0.589049 1.53347 0
0.785398 1.53347 0
0.589049 1.8473 0
0.785398 1.8473 0
0 1.8473 0
0.19635 1.8473 0
0 2.16104 0
0.19635 2.16104 0
0.19635 1.8473 0
0.392699 1.8473 0
0.19635 2.16104 0
0.392699 2.16104 0
0 2.16104 0
0.19635 2.16104 0
0 2.47478 0
0.19635 2.47478 0
0.19635 2.16104 0
0.392699 2.16104 0
0.19635 2.47478 0
0.392699 2.47478 0
0.392699 1.8473 0
0.589049 1.8473 0
0.392699 2.16104 0
0.589049 2.16104 0
0.589049 1.8473 0
0.785398 1.8473 0
0.589049 2.16104 0
0.785398 2.16104 0
0.392699 2.16104 0
0.589049 2.16104 0
0.392699 2.47478 0
0.589049 2.47478 0
0.589049 2.16104 0
0.785398 2.16104 0
0.589049 2.47478 0
0.785398 2.47478 0
0.785398 1.2198 0
0.981748 1.2198 0
0.785398 1.53347 0
0.981748 1.53347 0
0.981748 1.2198 0
1.1781 1.2198 0
0.981748 1.53347 0
1.1781 1.53347 0
0.785398 1.53347 0
0.981748 1.53347 0
0.785398 1.8473 0
0.981748 1.8473 0
0.981748 1.53347 0
1.1781 1.53347 0
0.981748 1.8473 0
1.1781 1.8473 0
1.1781 1.2198 0
1.37445 1.2198 0
1.1781 1.53347 0
1.37445 1.53347 0
1.37445 1.2198 0
1.5708 1.2198 0
1.37445 1.53347 0
1.5708 1.53347 0
1.1781 1.53347 0
1.37445 1.53347 0
1.1781 1.8473 0
1.37445 1.8473 0
1.37445 1.53347 0
1.5708 1.53347 0
1.37445 1.8473 0
1.5708 1.8473 0
0.785398 1.8473 0
0.981748 1.8473 0
0.785398 2.16104 0
0.981748 2.16104 0
0.981748 1.8473 0
1.1781 1.8473 0
0.981748 2.16104 0
1.1781 2.16104 0
0.785398 2.16104 0
0.981748 2.16104 0
0.785398 2.47478 0
0.981748 2.47478 0
0.981748 2.16104 0
1.1781 2.16104 0
0.981748 2.47478 0
1.1781 2.47478 0
1.1781 1.8473 0
1.37445 1.8473 0
1.1781 2.16104 0
1.37445 2.16104 0
1.37445 1.8473 0
1.5708 1.8473 0
1.37445 2.16104 0
1.5708 2.16104 0
1.1781 2.16104 0
1.37445 2.16104 0
1.1781 2.47478 0
1.37445 2.47478 0
1.37445 2.16104 0
1.5708 2.16104 0
1.37445 2.47478 0
1.5708 2.47478 0
1.5708 0 0
1.76715 0 0
1.5708 0.281001 0
1.76715 0.281001 0
1.76715 0 0
1.9635 0 0
1.76715 0.281001 0
1.9635 0.281001 0
1.5708 0.281001 0
1.76715 0.281001 0
1.5708 0.593304 0
1.76715 0.593304 0
1.76715 0.281001 0
1.9635 0.281001 0
1.76715 0.593304 0
1.9635 0.593304 0
1.9635 0 0
2.15984 0 0
1.9635 0.281001 0
2.15984 0.281001 0
2.15984 0 0
2.35619 0 0
2.15984 0.281001 0
2.35619 0.281001 0
1.9635 0.281001 0
2.15984 0.281001 0
1.9635 0.593304 0
2.15984 0.593304 0
2.15984 0.281001 0
2.35619 0.281001 0
2.15984 0.593304 0
2.35619 0.593304 0
1.5708 0.593304 0
1.76715 0.593304 0
1.5708 0.905671 0
1.76715 0.905671 0
1.76715 0.593304 0
1.9635 0.593304 0
1.76715 0.905671 0
1.9635 0.905671 0
1.5708 0.905671 0
1.76715 0.905671 0
1.5708 1.2198 0
1.76715 1.2198 0
1.76715 0.905671 0
1.9635 0.905671 0
1.76715 1.2198 0
1.9635 1.2198 0
1.9635 0.593304 0
2.15984 0.593304 0
1.9635 0.905671 0
2.15984 0.905671 0
2.15984 0.593304 0
2.35619 0.593304 0
2.15984 0.905671 0
2.35619 0.905671 0
1.9635 0.905671 0
2.15984 0.905671 0
1.9635 1.2198 0
2.15984 1.2198 0
2.15984 0.905671 0
2.35619 0.905671 0
2.15984 1.2198 0
2.35619 1.2198 0
2.35619 0 0
2.55254 0 0
2.35619 0.281001 0
2.55254 0.281001 0
2.55254 0 0
2.74889 0 0
2.55254 0.281001 0
2.74889 0.281001 0
2.35619 0.281001 0
2.55254 0.281001 0
2.35619 0.593304 0
2.55254 0.593304 0
2.55254 0.281001 0
2.74889 0.281001 0
2.55254 0.593304 0
2.74889 0.593304 0
2.74889 0 0
2.94524 0 0
2.74889 0.281001 0
2.94524 0.281001 0
2.94524 0 0
3.14159 0 0
2.94524 0.281001 0
3.14159 0.281001 0
2.74889 0.281001 0
2.94524 0.281001 0
2.74889 0.593304 0
2.94524 0.593304 0
2.94524 0.281001 0
3.14159 0.281001 0
2.94524 0.593304 0
3.14159 0.593304 0
2.35619 0.593304 0
2.55254 0.593304 0
2.35619 0.905671 0
2.55254 0.905671 0
2.55254 0.593304 0
2.74889 0.593304 0
2.55254 0.905671 0
2.74889 0.905671 0
2.35619 0.905671 0
2.55254 0.905671 0
2.35619 1.2198 0
2.55254 1.2198 0
2.55254 0.905671 0
2.74889 0.905671 0
2.55254 1.2198 0
2.74889 1.2198 0
2.74889 0.593304 0
2.94524 0.593304 0
2.74889 0.905671 0
2.94524 0.905671 0
2.94524 0.593304 0
3.14159 0.593304 0
2.94524 0.905671 0
3.14159 0.905671 0
2.74889 0.905671 0
2.94524 0.905671 0
2.74889 1.2198 0
2.94524 1.2198 0
2.94524 0.905671 0
3.14159 0.905671 0
2.94524 1.2198 0
3.14159 1.2198 0
1.5708 1.2198 0
1.76715 1.2198 0
1.5708 1.53347 0
1.76715 1.53347 0
1.76715 1.2198 0
1.9635 1.2198 0
1.76715 1.53347 0
1.9635 1.53347 0
1.5708 1.53347 0
1.76715 1.53347 0
1.5708 1.8473 0
1.76715 1.8473 0
1.76715 1.53347 0
1.9635 1.53347 0
1.76715 1.8473 0
1.9635 1.8473 0
1.9635 1.2198 0
2.15984 1.2198 0
1.9635 1.53347 0
2.15984 1.53347 0
2.15984 1.2198 0
2.35619 1.2198 0
2.15984 1.53347 0
2.35619 1.53347 0
1.9635 1.53347 0
2.15984 1.53347 0
1.9635 1.8473 0
2.15984 1.8473 0
2.15984 1.53347 0
2.35619 1.53347 0
2.15984 1.8473 0
2.35619 1.8473 0
1.5708 1.8473 0
1.76715 1.8473 0
1.5708 2.16104 0
1.76715 2.16104 0
1.76715 1.8473 0
1.9635 1.8473 0
1.76715 2.16104 0
1.9635 2.16104 0
1.5708 2.16104 0
1.76715 2.16104 0
1.5708 2.47478 0
1.76715 2.47478 0
1.76715 2.16104 0
1.9635 2.16104 0
1.76715 2.47478 0
1.9635 2.47478 0
1.9635 1.8473 0
2.15984 1.8473 0
1.9635 2.16104 0
2.15984 2.16104 0
2.15984 1.8473 0
2.35619 1.8473 0
2.15984 2.16104 0
2.35619 2.16104 0
1.9635 2.16104 0
2.15984 2.16104 0
1.9635 2.47478 0
2.15984 2.47478 0
2.15984 2.16104 0
2.35619 2.16104 0
2.15984 2.47478 0
2.35619 2.47478 0
2.35619 1.2198 0
2.55254 1.2198 0
2.35619 1.53347 0
2.55254 1.53347 0
2.55254 1.2198 0
2.74889 1.2198 0
2.55254 1.53347 0
2.74889 1.53347 0
2.35619 1.53347 0
2.55254 1.53347 0
2.35619 1.8473 0
2.55254 1.8473 0
2.55254 1.53347 0
2.74889 1.53347 0
2.55254 1.8473 0
2.74889 1.8473 0
2.74889 1.2198 0
2.94524 1.2198 0
2.74889 1.53347 0
2.94524 1.53347 0
2.94524 1.2198 0
3.14159 1.2198 0
2.94524 1.53347 0
3.14159 1.53347 0
2.74889 1.53347 0
2.94524 1.53347 0
2.74889 1.8473 0
2.94524 1.8473 0
2.94524 1.53347 0
3.14159 1.53347 0
2.94524 1.8473 0
3.14159 1.8473 0
2.35619 1.8473 0
2.55254 1.8473 0
2.35619 2.16104 0
2.55254 2.16104 0
2.55254 1.8473 0
2.74889 1.8473 0
2.55254 2.16104 0
2.74889 2.16104 0
2.35619 2.16104 0
2.55254 2.16104 0
2.35619 2.47478 0
2.55254 2.47478 0
2.55254 2.16104 0
2.74889 2.16104 0
2.55254 2.47478 0
2.74889 2.47478 0
2.74889 1.8473 0
2.94524 1.8473 0
2.74889 2.16104 0
2.94524 2.16104 0
2.94524 1.8473 0
3.14159 1.8473 0
2.94524 2.16104 0
3.14159 2.16104 0
2.74889 2.16104 0
2.94524 2.16104 0
2.74889 2.47478 0
2.94524 2.47478 0
2.94524 2.16104 0
3.14159 2.16104 0
2.94524 2.47478 0
3.14159 2.47478 0
0 2.47478 0
0.19635 2.47478 0
0 2.78848 0
0.19635 2.78848 0
0.19635 2.47478 0
0.392699 2.47478 0
0.19635 2.78848 0
0.392699 2.78848 0
0 2.78848 0
0.19635 2.78848 0
0 3.10216 0
0.19635 3.10216 0
0.19635 2.78848 0
0.392699 2.78848 0
0.19635 3.10216 0
0.392699 3.10216 0
0.392699 2.47478 0
0.589049 2.47478 0
0.392699 2.78848 0
0.589049 2.78848 0
0.589049 2.47478 0
0.785398 2.47478 0
0.589049 2.78848 0
0.785398 2.78848 0
0.392699 2.78848 0
0.589049 2.78848 0
0.392699 3.10216 0
0.589049 3.10216 0
0.589049 2.78848 0
0.785398 2.78848 0
0.589049 3.10216 0
0.785398 3.10216 0
0 3.10216 0
0.19635 3.10216 0
0 3.41581 0
0.19635 3.41581 0
0.19635 3.10216 0
0.392699 3.10216 0
0.19635 3.41581 0
0.392699 3.41581 0
0 3.41581 0
0.19635 3.41581 0
0 3.72944 0
0.19635 3.72944 0
0.19635 3.41581 0
0.392699 3.41581 0
0.19635 3.72944 0
[...]
POINT_DATA 20480
VECTORS uf double
0 1 0
-6.73546e-15 1 0
0 1.00102 0
1.34932e-15 1.00102 0
-6.73546e-15 1 0
9.67478e-15 1 0
1.34932e-15 1.00102 0
-1.75899e-14 1.00102 0
0 1.00102 0
8.23778e-15 1.00102 0
0 1.00082 0
-1.37361e-14 1.00082 0
8.23778e-15 1.00102 0
1.59403e-14 1.00102 0
-1.37361e-14 1.00082 0
-4.06888e-15 1.00082 0
9.67478e-15 1 0
8.43897e-15 1 0
-1.75899e-14 1.00102 0
-4.51074e-15 1.00102 0
8.43897e-15 1 0
-6.02215e-15 1 0
-4.51074e-15 1.00102 0
9.59284e-15 1.00102 0
1.59403e-14 1.00102 0
8.18569e-15 1.00102 0
-4.06888e-15 1.00082 0
-1.8524e-14 1.00082 0
8.18569e-15 1.00102 0
7.94314e-15 1.00102 0
-1.8524e-14 1.00082 0
-1.80409e-14 1.00082 0
0 1.00082 0
8.68381e-15 1.00082 0
0 1.00087 0
2.15145e-14 1.00087 0
8.68381e-15 1.00082 0
-1.39829e-14 1.00082 0
2.15145e-14 1.00087 0
8.44085e-15 1.00087 0
0 1.00087 0
-2.74154e-14 1.00087 0
0 1.00082 0
-3.15586e-14 1.00082 0
-2.74154e-14 1.00087 0
3.86491e-15 1.00087 0
-3.15586e-14 1.00082 0
9.95821e-15 1.00082 0
-1.39829e-14 1.00082 0
6.72047e-15 1.00082 0
8.44085e-15 1.00087 0
6.3718e-15 1.00087 0
6.72047e-15 1.00082 0
1.39001e-14 1.00082 0
6.3718e-15 1.00087 0
1.56158e-15 1.00087 0
3.86491e-15 1.00087 0
-6.14548e-15 1.00087 0
9.95821e-15 1.00082 0
6.99004e-15 1.00082 0
-6.14548e-15 1.00087 0
3.46518e-16 1.00087 0
6.99004e-15 1.00082 0
-1.17835e-14 1.00082 0
-6.02215e-15 1 0
-9.04392e-15 1 0
9.59284e-15 1.00102 0
1.26834e-14 1.00102 0
-9.04392e-15 1 0
2.0365e-15 1 0
1.26834e-14 1.00102 0
1.28747e-15 1.00102 0
7.94314e-15 1.00102 0
-1.37832e-14 1.00102 0
-1.80409e-14 1.00082 0
2.95225e-14 1.00082 0
-1.37832e-14 1.00102 0
7.18162e-15 1.00102 0
2.95225e-14 1.00082 0
-1.36638e-15 1.00082 0
2.0365e-15 1 0
6.0183e-15 1 0
1.28747e-15 1.00102 0
1.70864e-15 1.00102 0
6.0183e-15 1 0
1.04869e-14 1 0
1.70864e-15 1.00102 0
-9.43381e-15 1.00102 0
7.18162e-15 1.00102 0
-7.51424e-15 1.00102 0
-1.36638e-15 1.00082 0
1.2296e-14 1.00082 0
-7.51424e-15 1.00102 0
-9.99254e-17 1.00102 0
1.2296e-14 1.00082 0
1.00865e-14 1.00082 0
1.39001e-14 1.00082 0
-2.00303e-14 1.00082 0
1.56158e-15 1.00087 0
9.27076e-15 1.00087 0
-2.00303e-14 1.00082 0
2.48952e-15 1.00082 0
9.27076e-15 1.00087 0
1.34917e-15 1.00087 0
3.46518e-16 1.00087 0
-1.56566e-15 1.00087 0
-1.17835e-14 1.00082 0
3.39907e-15 1.00082 0
-1.56566e-15 1.00087 0
-6.4453e-15 1.00087 0
3.39907e-15 1.00082 0
2.96912e-15 1.00082 0
2.48952e-15 1.00082 0
-5.83656e-15 1.00082 0
1.34917e-15 1.00087 0
7.18876e-15 1.00087 0
-5.83656e-15 1.00082 0
-5.20454e-15 1.00082 0
7.18876e-15 1.00087 0
8.72231e-15 1.00087 0
-6.4453e-15 1.00087 0
-9.20835e-15 1.00087 0
2.96912e-15 1.00082 0
1.71635e-14 1.00082 0
-9.20835e-15 1.00087 0
-4.65994e-15 1.00087 0
1.71635e-14 1.00082 0
-1.95447e-15 1.00082 0
0 1.00082 0
4.10596e-14 1.00082 0
0 1.0008 0
3.32871e-14 1.0008 0
4.10596e-14 1.00082 0
-3.14193e-14 1.00082 0
3.32871e-14 1.0008 0
-1.24642e-14 1.0008 0
0 1.0008 0
-3.27043e-14 1.0008 0
0 1.00077 0
-5.36744e-14 1.00077 0
-3.27043e-14 1.0008 0
3.2342e-14 1.0008 0
-5.36744e-14 1.00077 0
4.82131e-14 1.00077 0
-3.14193e-14 1.00082 0
-7.96186e-15 1.00082 0
-1.24642e-14 1.0008 0
1.45927e-14 1.0008 0
-7.96186e-15 1.00082 0
1.16434e-14 1.00082 0
1.45927e-14 1.0008 0
-8.84282e-15 1.0008 0
3.2342e-14 1.0008 0
-1.74108e-14 1.0008 0
4.82131e-14 1.00077 0
1.25747e-14 1.00077 0
-1.74108e-14 1.0008 0
5.05144e-15 1.0008 0
1.25747e-14 1.00077 0
1.1051e-14 1.00077 0
0 1.00077 0
1.95555e-14 1.00077 0
0 1.00074 0
1.04929e-14 1.00074 0
1.95555e-14 1.00077 0
-8.41298e-14 1.00077 0
1.04929e-14 1.00074 0
-4.94771e-14 1.00074 0
0 1.00074 0
7.06609e-14 1.00074 0
0 1.00071 0
6.71535e-14 1.00071 0
7.06609e-14 1.00074 0
5.21945e-14 1.00074 0
6.71535e-14 1.00071 0
5.95578e-14 1.00071 0
-8.41298e-14 1.00077 0
1.57996e-15 1.00077 0
-4.94771e-14 1.00074 0
-4.69851e-16 1.00074 0
1.57996e-15 1.00077 0
-1.5101e-14 1.00077 0
-4.69851e-16 1.00074 0
1.01441e-14 1.00074 0
5.21945e-14 1.00074 0
-8.63301e-15 1.00074 0
5.95578e-14 1.00071 0
-5.30075e-16 1.00071 0
-8.63301e-15 1.00074 0
-8.46275e-15 1.00074 0
-5.30075e-16 1.00071 0
9.05638e-15 1.00071 0
1.16434e-14 1.00082 0
-9.23402e-15 1.00082 0
-8.84282e-15 1.0008 0
6.98058e-15 1.0008 0
-9.23402e-15 1.00082 0
-2.90206e-16 1.00082 0
6.98058e-15 1.0008 0
-2.30248e-15 1.0008 0
5.05144e-15 1.0008 0
-1.51669e-15 1.0008 0
1.1051e-14 1.00077 0
-1.12224e-15 1.00077 0
-1.51669e-15 1.0008 0
-1.02196e-15 1.0008 0
-1.12224e-15 1.00077 0
-6.07966e-15 1.00077 0
-2.90206e-16 1.00082 0
-1.79156e-14 1.00082 0
-2.30248e-15 1.0008 0
1.3792e-14 1.0008 0
-1.79156e-14 1.00082 0
2.68337e-15 1.00082 0
1.3792e-14 1.0008 0
4.82411e-15 1.0008 0
-1.02196e-15 1.0008 0
-1.16145e-14 1.0008 0
-6.07966e-15 1.00077 0
1.22523e-14 1.00077 0
-1.16145e-14 1.0008 0
2.99064e-15 1.0008 0
1.22523e-14 1.00077 0
-3.14534e-15 1.00077 0
-1.5101e-14 1.00077 0
-4.9666e-15 1.00077 0
1.01441e-14 1.00074 0
8.25768e-15 1.00074 0
-4.9666e-15 1.00077 0
1.13281e-14 1.00077 0
8.25768e-15 1.00074 0
3.95074e-15 1.00074 0
-8.46275e-15 1.00074 0
-3.03755e-15 1.00074 0
9.05638e-15 1.00071 0
1.64754e-14 1.00071 0
-3.03755e-15 1.00074 0
-8.0646e-15 1.00074 0
1.64754e-14 1.00071 0
1.97408e-14 1.00071 0
1.13281e-14 1.00077 0
-1.1424e-14 1.00077 0
3.95074e-15 1.00074 0
1.45628e-14 1.00074 0
-1.1424e-14 1.00077 0
-3.39516e-15 1.00077 0
1.45628e-14 1.00074 0
7.91567e-15 1.00074 0
-8.0646e-15 1.00074 0
-7.6809e-15 1.00074 0
1.97408e-14 1.00071 0
1.9648e-14 1.00071 0
-7.6809e-15 1.00074 0
2.03004e-15 1.00074 0
1.9648e-14 1.00071 0
1.52002e-14 1.00071 0
1.04869e-14 1 0
9.26459e-15 1 0
-9.43381e-15 1.00102 0
3.60021e-15 1.00102 0
9.26459e-15 1 0
1.4811e-14 1 0
3.60021e-15 1.00102 0
-3.57894e-17 1.00102 0
-9.99254e-17 1.00102 0
-5.74597e-15 1.00102 0
1.00865e-14 1.00082 0
8.89306e-15 1.00082 0
-5.74597e-15 1.00102 0
2.8441e-16 1.00102 0
8.89306e-15 1.00082 0
8.35828e-15 1.00082 0
1.4811e-14 1 0
5.34889e-15 1 0
-3.57894e-17 1.00102 0
6.15876e-15 1.00102 0
5.34889e-15 1 0
1.07348e-15 1 0
6.15876e-15 1.00102 0
5.66971e-15 1.00102 0
2.8441e-16 1.00102 0
4.47545e-15 1.00102 0
8.35828e-15 1.00082 0
1.64009e-15 1.00082 0
4.47545e-15 1.00102 0
5.91137e-15 1.00102 0
1.64009e-15 1.00082 0
3.21811e-15 1.00082 0
-5.20454e-15 1.00082 0
-5.03137e-15 1.00082 0
8.72231e-15 1.00087 0
3.28672e-15 1.00087 0
-5.03137e-15 1.00082 0
-1.24261e-14 1.00082 0
3.28672e-15 1.00087 0
5.90176e-15 1.00087 0
-4.65994e-15 1.00087 0
-7.07767e-15 1.00087 0
-1.95447e-15 1.00082 0
8.60078e-15 1.00082 0
-7.07767e-15 1.00087 0
2.55216e-15 1.00087 0
8.60078e-15 1.00082 0
2.17504e-15 1.00082 0
-1.24261e-14 1.00082 0
-1.02133e-14 1.00082 0
5.90176e-15 1.00087 0
2.42298e-14 1.00087 0
-1.02133e-14 1.00082 0
-4.27058e-16 1.00082 0
2.42298e-14 1.00087 0
6.60364e-15 1.00087 0
2.55216e-15 1.00087 0
-2.09482e-14 1.00087 0
2.17504e-15 1.00082 0
2.04325e-14 1.00082 0
-2.09482e-14 1.00087 0
-6.64259e-15 1.00087 0
2.04325e-14 1.00082 0
1.16712e-14 1.00082 0
1.07348e-15 1 0
1.00739e-15 1 0
5.66971e-15 1.00102 0
-1.63221e-15 1.00102 0
1.00739e-15 1 0
1.0565e-16 1 0
-1.63221e-15 1.00102 0
-2.12876e-15 1.00102 0
5.91137e-15 1.00102 0
3.6359e-15 1.00102 0
3.21811e-15 1.00082 0
7.02513e-15 1.00082 0
3.6359e-15 1.00102 0
-2.69281e-15 1.00102 0
7.02513e-15 1.00082 0
1.65722e-14 1.00082 0
1.0565e-16 1 0
-5.14996e-15 1 0
-2.12876e-15 1.00102 0
3.56557e-15 1.00102 0
-5.14996e-15 1 0
-9.49155e-15 1 0
3.56557e-15 1.00102 0
8.15505e-15 1.00102 0
-2.69281e-15 1.00102 0
3.85141e-15 1.00102 0
1.65722e-14 1.00082 0
7.72797e-15 1.00082 0
3.85141e-15 1.00102 0
5.90915e-15 1.00102 0
7.72797e-15 1.00082 0
1.46604e-14 1.00082 0
-4.27058e-16 1.00082 0
5.69254e-15 1.00082 0
6.60364e-15 1.00087 0
3.22835e-15 1.00087 0
5.69254e-15 1.00082 0
-1.29803e-14 1.00082 0
3.22835e-15 1.00087 0
2.65412e-14 1.00087 0
-6.64259e-15 1.00087 0
3.96668e-15 1.00087 0
1.16712e-14 1.00082 0
6.66075e-17 1.00082 0
3.96668e-15 1.00087 0
-1.40258e-14 1.00087 0
6.66075e-17 1.00082 0
1.59986e-14 1.00082 0
-1.29803e-14 1.00082 0
2.96413e-15 1.00082 0
2.65412e-14 1.00087 0
1.13113e-14 1.00087 0
2.96413e-15 1.00082 0
-8.95722e-15 1.00082 0
1.13113e-14 1.00087 0
9.38298e-15 1.00087 0
-1.40258e-14 1.00087 0
-2.13967e-14 1.00087 0
1.59986e-14 1.00082 0
2.2745e-14 1.00082 0
-2.13967e-14 1.00087 0
-1.00765e-14 1.00087 0
2.2745e-14 1.00082 0
2.04361e-14 1.00082 0
2.68337e-15 1.00082 0
-4.16236e-15 1.00082 0
4.82411e-15 1.0008 0
4.88428e-15 1.0008 0
-4.16236e-15 1.00082 0
-8.33893e-15 1.00082 0
4.88428e-15 1.0008 0
8.2086e-15 1.0008 0
2.99064e-15 1.0008 0
-2.35633e-15 1.0008 0
-3.14534e-15 1.00077 0
1.46562e-14 1.00077 0
-2.35633e-15 1.0008 0
-1.55361e-15 1.0008 0
1.46562e-14 1.00077 0
1.54181e-14 1.00077 0
-8.33893e-15 1.00082 0
-1.89763e-14 1.00082 0
8.2086e-15 1.0008 0
1.30412e-14 1.0008 0
-1.89763e-14 1.00082 0
-1.18031e-14 1.00082 0
1.30412e-14 1.0008 0
1.71452e-14 1.0008 0
-1.55361e-15 1.0008 0
-1.36754e-14 1.0008 0
1.54181e-14 1.00077 0
2.17507e-14 1.00077 0
-1.36754e-14 1.0008 0
-1.99053e-14 1.0008 0
2.17507e-14 1.00077 0
2.39631e-14 1.00077 0
-3.39516e-15 1.00077 0
-1.17087e-14 1.00077 0
7.91567e-15 1.00074 0
1.35678e-14 1.00074 0
-1.17087e-14 1.00077 0
-1.95066e-14 1.00077 0
1.35678e-14 1.00074 0
2.33944e-14 1.00074 0
2.03004e-15 1.00074 0
-1.07684e-14 1.00074 0
1.52002e-14 1.00071 0
1.74498e-14 1.00071 0
-1.07684e-14 1.00074 0
-1.8831e-14 1.00074 0
1.74498e-14 1.00071 0
1.87989e-14 1.00071 0
-1.95066e-14 1.00077 0
-8.93301e-15 1.00077 0
2.33944e-14 1.00074 0
2.34164e-15 1.00074 0
-8.93301e-15 1.00077 0
-8.21192e-15 1.00077 0
2.34164e-15 1.00074 0
7.42614e-15 1.00074 0
-1.8831e-14 1.00074 0
7.67651e-15 1.00074 0
1.87989e-14 1.00071 0
3.32839e-15 1.00071 0
7.67651e-15 1.00074 0
-4.23738e-15 1.00074 0
3.32839e-15 1.00071 0
1.99734e-14 1.00071 0
-1.18031e-14 1.00082 0
-6.52839e-15 1.00082 0
1.71452e-14 1.0008 0
-1.39544e-16 1.0008 0
-6.52839e-15 1.00082 0
1.65228e-15 1.00082 0
-1.39544e-16 1.0008 0
-7.28739e-15 1.0008 0
-1.99053e-14 1.0008 0
7.87691e-15 1.0008 0
2.39631e-14 1.00077 0
1.11259e-14 1.00077 0
7.87691e-15 1.0008 0
1.46923e-15 1.0008 0
1.11259e-14 1.00077 0
1.61303e-14 1.00077 0
1.65228e-15 1.00082 0
-9.03209e-15 1.00082 0
-7.28739e-15 1.0008 0
1.17241e-14 1.0008 0
-9.03209e-15 1.00082 0
5.68641e-15 1.00082 0
1.17241e-14 1.0008 0
-5.16294e-15 1.0008 0
1.46923e-15 1.0008 0
-9.55343e-16 1.0008 0
1.61303e-14 1.00077 0
1.24354e-14 1.00077 0
-9.55343e-16 1.0008 0
1.04773e-15 1.0008 0
1.24354e-14 1.00077 0
5.19579e-15 1.00077 0
-8.21192e-15 1.00077 0
-4.0067e-15 1.00077 0
7.42614e-15 1.00074 0
9.70356e-15 1.00074 0
-4.0067e-15 1.00077 0
-9.81116e-15 1.00077 0
9.70356e-15 1.00074 0
1.43529e-14 1.00074 0
-4.23738e-15 1.00074 0
-1.16858e-14 1.00074 0
1.99734e-14 1.00071 0
1.11671e-14 1.00071 0
-1.16858e-14 1.00074 0
-1.24145e-15 1.00074 0
1.11671e-14 1.00071 0
-4.77388e-15 1.00071 0
-9.81116e-15 1.00077 0
-6.68341e-15 1.00077 0
1.43529e-14 1.00074 0
2.17011e-14 1.00074 0
-6.68341e-15 1.00077 0
8.18125e-15 1.00077 0
2.17011e-14 1.00074 0
-1.26725e-14 1.00074 0
-1.24145e-15 1.00074 0
-1.90714e-14 1.00074 0
-4.77388e-15 1.00071 0
1.26007e-14 1.00071 0
-1.90714e-14 1.00074 0
1.69108e-14 1.00074 0
1.26007e-14 1.00071 0
2.58995e-15 1.00071 0
0 1.00071 0
-1.2579e-13 1.00071 0
0 1.00069 0
-1.1971e-13 1.00069 0
-1.2579e-13 1.00071 0
-5.40636e-15 1.00071 0
-1.1971e-13 1.00069 0
2.89376e-16 1.00069 0
0 1.00069 0
1.18697e-13 1.00069 0
0 1.00066 0
1.10654e-13 1.00066 0
1.18697e-13 1.00069 0
-9.86807e-15 1.00069 0
1.10654e-13 1.00066 0
-7.53681e-15 1.00066 0
-5.40636e-15 1.00071 0
3.30998e-15 1.00071 0
2.89376e-16 1.00069 0
1.572e-14 1.00069 0
3.30998e-15 1.00071 0
-1.79675e-14 1.00071 0
1.572e-14 1.00069 0
1.10002e-14 1.00069 0
-9.86807e-15 1.00069 0
-1.68676e-14 1.00069 0
-7.53681e-15 1.00066 0
-1.09584e-14 1.00066 0
-1.68676e-14 1.00069 0
1.89339e-15 1.00069 0
-1.09584e-14 1.00066 0
2.12164e-14 1.00066 0
0 1.00066 0
-8.21297e-14 1.00066 0
0 1.00064 0
-8.02136e-14 1.00064 0
-8.21297e-14 1.00066 0
-1.83828e-14 1.00066 0
-8.02136e-14 1.00064 0
-2.5515e-15 1.00064 0
0 1.00064 0
7.23803e-14 1.00064 0
0 1.00061 0
8.6743e-14 1.00061 0
7.23803e-14 1.00064 0
6.66091e-14 1.00064 0
8.6743e-14 1.00061 0
5.74207e-14 1.00061 0
-1.83828e-14 1.00066 0
7.20231e-15 1.00066 0
-2.5515e-15 1.00064 0
3.06123e-14 1.00064 0
7.20231e-15 1.00066 0
-1.09476e-14 1.00066 0
3.06123e-14 1.00064 0
1.69312e-14 1.00064 0
6.66091e-14 1.00064 0
-3.30435e-14 1.00064 0
5.74207e-14 1.00061 0
-7.10005e-15 1.00061 0
-3.30435e-14 1.00064 0
-1.63356e-14 1.00064 0
-7.10005e-15 1.00061 0
-1.09951e-14 1.00061 0
-1.79675e-14 1.00071 0
-4.34398e-15 1.00071 0
1.10002e-14 1.00069 0
5.98221e-15 1.00069 0
-4.34398e-15 1.00071 0
-9.8947e-15 1.00071 0
5.98221e-15 1.00069 0
3.2141e-15 1.00069 0
1.89339e-15 1.00069 0
-1.2286e-14 1.00069 0
2.12164e-14 1.00066 0
1.61961e-14 1.00066 0
-1.2286e-14 1.00069 0
-9.10795e-15 1.00069 0
1.61961e-14 1.00066 0
1.31998e-14 1.00066 0
-9.8947e-15 1.00071 0
-1.0058e-14 1.00071 0
3.2141e-15 1.00069 0
5.58484e-15 1.00069 0
-1.0058e-14 1.00071 0
-1.75225e-14 1.00071 0
5.58484e-15 1.00069 0
1.65247e-14 1.00069 0
-9.10795e-15 1.00069 0
-7.74774e-16 1.00069 0
1.31998e-14 1.00066 0
4.86278e-15 1.00066 0
-7.74774e-16 1.00069 0
-1.79254e-14 1.00069 0
4.86278e-15 1.00066 0
2.04387e-14 1.00066 0
-1.09476e-14 1.00066 0
-1.00243e-15 1.00066 0
1.69312e-14 1.00064 0
9.14183e-15 1.00064 0
-1.00243e-15 1.00066 0
-2.25353e-15 1.00066 0
9.14183e-15 1.00064 0
-1.84874e-15 1.00064 0
-1.63356e-14 1.00064 0
-1.72002e-14 1.00064 0
-1.09951e-14 1.00061 0
-4.99355e-15 1.00061 0
-1.72002e-14 1.00064 0
-1.38666e-14 1.00064 0
-4.99355e-15 1.00061 0
2.12582e-14 1.00061 0
-2.25353e-15 1.00066 0
-1.28755e-14 1.00066 0
-1.84874e-15 1.00064 0
1.29992e-14 1.00064 0
-1.28755e-14 1.00066 0
-1.49394e-14 1.00066 0
1.29992e-14 1.00064 0
6.338e-15 1.00064 0
-1.38666e-14 1.00064 0
-1.92545e-14 1.00064 0
2.12582e-14 1.00061 0
9.49487e-15 1.00061 0
-1.92545e-14 1.00064 0
-4.07012e-15 1.00064 0
9.49487e-15 1.00061 0
-4.4818e-16 1.00061 0
0 1.00061 0
-8.66983e-14 1.00061 0
0 1.00058 0
-8.52512e-14 1.00058 0
-8.66983e-14 1.00061 0
-8.41084e-14 1.00061 0
-8.52512e-14 1.00058 0
-9.11605e-14 1.00058 0
0 1.00058 0
8.50719e-14 1.00058 0
0 1.00056 0
8.51373e-14 1.00056 0
8.50719e-14 1.00058 0
2.92683e-14 1.00058 0
8.51373e-14 1.00056 0
3.54043e-14 1.00056 0
-8.41084e-14 1.00061 0
2.95562e-14 1.00061 0
-9.11605e-14 1.00058 0
3.83448e-14 1.00058 0
2.95562e-14 1.00061 0
2.08731e-14 1.00061 0
3.83448e-14 1.00058 0
4.2993e-14 1.00058 0
2.92683e-14 1.00058 0
-3.51434e-14 1.00058 0
3.54043e-14 1.00056 0
-4.17103e-14 1.00056 0
-3.51434e-14 1.00058 0
-1.52929e-14 1.00058 0
-4.17103e-14 1.00056 0
7.89985e-15 1.00056 0
0 1.00056 0
-8.69013e-14 1.00056 0
0 1.00054 0
-8.29204e-14 1.00054 0
-8.69013e-14 1.00056 0
4.99162e-14 1.00056 0
-8.29204e-14 1.00054 0
4.42744e-14 1.00054 0
0 1.00054 0
5.36151e-14 1.00054 0
0 1.00051 0
4.77437e-14 1.00051 0
5.36151e-14 1.00054 0
-6.10946e-14 1.00054 0
4.77437e-14 1.00051 0
-4.69815e-14 1.00051 0
4.99162e-14 1.00056 0
3.90106e-14 1.00056 0
4.42744e-14 1.00054 0
3.13773e-14 1.00054 0
3.90106e-14 1.00056 0
-3.2459e-14 1.00056 0
3.13773e-14 1.00054 0
-1.74753e-14 1.00054 0
-6.10946e-14 1.00054 0
-3.66489e-14 1.00054 0
-4.69815e-14 1.00051 0
-3.65545e-14 1.00051 0
-3.66489e-14 1.00054 0
-1.99812e-14 1.00054 0
-3.65545e-14 1.00051 0
-6.39683e-15 1.00051 0
2.08731e-14 1.00061 0
-1.07225e-14 1.00061 0
4.2993e-14 1.00058 0
5.65655e-15 1.00058 0
-1.07225e-14 1.00061 0
-1.28061e-14 1.00061 0
5.65655e-15 1.00058 0
6.03573e-15 1.00058 0
-1.52929e-14 1.00058 0
2.84594e-14 1.00058 0
7.89985e-15 1.00056 0
4.89275e-14 1.00056 0
2.84594e-14 1.00058 0
-5.2618e-15 1.00058 0
4.89275e-14 1.00056 0
6.90512e-15 1.00056 0
-1.28061e-14 1.00061 0
-1.45033e-15 1.00061 0
6.03573e-15 1.00058 0
4.89237e-15 1.00058 0
-1.45033e-15 1.00061 0
-8.52516e-15 1.00061 0
4.89237e-15 1.00058 0
1.20738e-14 1.00058 0
-5.2618e-15 1.00058 0
-7.40718e-15 1.00058 0
6.90512e-15 1.00056 0
7.39382e-15 1.00056 0
-7.40718e-15 1.00058 0
-1.92998e-14 1.00058 0
7.39382e-15 1.00056 0
2.12235e-14 1.00056 0
-3.2459e-14 1.00056 0
-5.31345e-14 1.00056 0
-1.74753e-14 1.00054 0
-2.5957e-14 1.00054 0
-5.31345e-14 1.00056 0
-1.45323e-14 1.00056 0
-2.5957e-14 1.00054 0
7.99699e-15 1.00054 0
-1.99812e-14 1.00054 0
1.68238e-14 1.00054 0
-6.39683e-15 1.00051 0
3.07807e-14 1.00051 0
1.68238e-14 1.00054 0
1.09877e-15 1.00054 0
3.07807e-14 1.00051 0
1.45849e-14 1.00051 0
-1.45323e-14 1.00056 0
-1.09399e-14 1.00056 0
7.99699e-15 1.00054 0
2.9763e-15 1.00054 0
-1.09399e-14 1.00056 0
-1.88313e-14 1.00056 0
2.9763e-15 1.00054 0
1.63464e-14 1.00054 0
1.09877e-15 1.00054 0
-1.60194e-15 1.00054 0
1.45849e-14 1.00051 0
1.89676e-15 1.00051 0
-1.60194e-15 1.00054 0
-1.13146e-14 1.00054 0
1.89676e-15 1.00051 0
1.45073e-14 1.00051 0
-1.75225e-14 1.00071 0
-1.27116e-14 1.00071 0
1.65247e-14 1.00069 0
1.17656e-14 1.00069 0
-1.27116e-14 1.00071 0
-1.44869e-14 1.00071 0
1.17656e-14 1.00069 0
1.74914e-14 1.00069 0
-1.79254e-14 1.00069 0
-4.65829e-15 1.00069 0
2.04387e-14 1.00066 0
7.4321e-15 1.00066 0
-4.65829e-15 1.00069 0
-1.2868e-14 1.00069 0
7.4321e-15 1.00066 0
1.4159e-14 1.00066 0
-1.44869e-14 1.00071 0
-8.80937e-15 1.00071 0
1.74914e-14 1.00069 0
1.43431e-14 1.00069 0
-8.80937e-15 1.00071 0
-2.65932e-14 1.00071 0
1.43431e-14 1.00069 0
2.29517e-14 1.00069 0
-1.2868e-14 1.00069 0
-1.8442e-14 1.00069 0
1.4159e-14 1.00066 0
1.71788e-14 1.00066 0
-1.8442e-14 1.00069 0
-1.53282e-14 1.00069 0
1.71788e-14 1.00066 0
1.24733e-14 1.00066 0
-1.49394e-14 1.00066 0
-1.1437e-14 1.00066 0
6.338e-15 1.00064 0
9.88166e-15 1.00064 0
-1.1437e-14 1.00066 0
-1.64925e-14 1.00066 0
9.88166e-15 1.00064 0
9.94311e-15 1.00064 0
-4.07012e-15 1.00064 0
-1.12803e-14 1.00064 0
-4.4818e-16 1.00061 0
5.04401e-15 1.00061 0
-1.12803e-14 1.00064 0
-1.36992e-14 1.00064 0
5.04401e-15 1.00061 0
1.10197e-14 1.00061 0
-1.64925e-14 1.00066 0
-2.30958e-14 1.00066 0
9.94311e-15 1.00064 0
1.41238e-14 1.00064 0
-2.30958e-14 1.00066 0
-1.42541e-14 1.00066 0
1.41238e-14 1.00064 0
1.62998e-14 1.00064 0
-1.36992e-14 1.00064 0
-1.23894e-14 1.00064 0
1.10197e-14 1.00061 0
1.28827e-14 1.00061 0
-1.23894e-14 1.00064 0
-1.24622e-14 1.00064 0
1.28827e-14 1.00061 0
5.92758e-15 1.00061 0
-2.65932e-14 1.00071 0
2.03956e-15 1.00071 0
2.29517e-14 1.00069 0
-2.1003e-15 1.00069 0
2.03956e-15 1.00071 0
1.25165e-14 1.00071 0
-2.1003e-15 1.00069 0
-2.16942e-15 1.00069 0
-1.53282e-14 1.00069 0
6.0484e-15 1.00069 0
1.24733e-14 1.00066 0
4.07698e-15 1.00066 0
6.0484e-15 1.00069 0
-1.23471e-15 1.00069 0
4.07698e-15 1.00066 0
-1.46843e-15 1.00066 0
1.25165e-14 1.00071 0
-7.85979e-15 1.00071 0
-2.16942e-15 1.00069 0
1.2397e-14 1.00069 0
-7.85979e-15 1.00071 0
-1.20472e-14 1.00071 0
1.2397e-14 1.00069 0
1.2622e-14 1.00069 0
-1.23471e-15 1.00069 0
-1.09802e-14 1.00069 0
-1.46843e-15 1.00066 0
1.22593e-14 1.00066 0
-1.09802e-14 1.00069 0
-6.06787e-15 1.00069 0
1.22593e-14 1.00066 0
1.01088e-14 1.00066 0
-1.42541e-14 1.00066 0
-1.70578e-14 1.00066 0
1.62998e-14 1.00064 0
8.99933e-15 1.00064 0
-1.70578e-14 1.00066 0
-5.60599e-15 1.00066 0
8.99933e-15 1.00064 0
3.80778e-15 1.00064 0
-1.24622e-14 1.00064 0
-1.29681e-14 1.00064 0
5.92758e-15 1.00061 0
1.35791e-14 1.00061 0
-1.29681e-14 1.00064 0
-1.18094e-14 1.00064 0
1.35791e-14 1.00061 0
1.49338e-14 1.00061 0
-5.60599e-15 1.00066 0
-1.74576e-14 1.00066 0
3.80778e-15 1.00064 0
2.00552e-14 1.00064 0
-1.74576e-14 1.00066 0
-1.84983e-14 1.00066 0
2.00552e-14 1.00064 0
1.30106e-14 1.00064 0
-1.18094e-14 1.00064 0
-1.08877e-14 1.00064 0
1.49338e-14 1.00061 0
-1.49148e-15 1.00061 0
-1.08877e-14 1.00064 0
2.4519e-16 1.00064 0
-1.49148e-15 1.00061 0
8.3147e-16 1.00061 0
-8.52516e-15 1.00061 0
-1.032e-14 1.00061 0
1.20738e-14 1.00058 0
8.3759e-15 1.00058 0
-1.032e-14 1.00061 0
-8.12332e-15 1.00061 0
8.3759e-15 1.00058 0
9.89713e-15 1.00058 0
-1.92998e-14 1.00058 0
-2.14558e-15 1.00058 0
2.12235e-14 1.00056 0
2.45162e-15 1.00056 0
-2.14558e-15 1.00058 0
-7.91352e-15 1.00058 0
2.45162e-15 1.00056 0
4.01476e-15 1.00056 0
-8.12332e-15 1.00061 0
-7.54098e-15 1.00061 0
9.89713e-15 1.00058 0
3.74212e-15 1.00058 0
-7.54098e-15 1.00061 0
-6.66677e-15 1.00061 0
3.74212e-15 1.00058 0
2.11978e-15 1.00058 0