# vtk DataFile Version 3.0
#This file was generated by the deal.II library on 2018/10/15 at 15:56:31
ASCII
DATASET UNSTRUCTURED_GRID

POINTS 20480 double
0 0 0
0.19635 0 0
0 0.295571 0
0.19635 0.295571 0
0.19635 0 0
0.392699 0 0
0.19635 0.295571 0
0.392699 0.295571 0
0 0.295571 0
0.19635 0.295571 0
0 0.608412 0
0.19635 0.608412 0
0.19635 0.295571 0
0.392699 0.295571 0
0.19635 0.608412 0
0.392699 0.608412 0
0.392699 0 0
0.589049 0 0
0.392699 0.295571 0
0.589049 0.295571 0
0.589049 0 0
0.785398 0 0
0.589049 0.295571 0
0.785398 0.295571 0
0.392699 0.295571 0
0.589049 0.295571 0
0.392699 0.608412 0
0.589049 0.608412 0
0.589049 0.295571 0
0.785398 0.295571 0
0.589049 0.608412 0
0.785398 0.608412 0
0 0.608412 0
0.19635 0.608412 0
0 0.920958 0
0.19635 0.920958 0
0.19635 0.608412 0
0.392699 0.608412 0
0.19635 0.920958 0
0.392699 0.920958 0
0 0.920958 0
0.19635 0.920958 0
0 1.23427 0
0.19635 1.23427 0
0.19635 0.920958 0
0.392699 0.920958 0
0.19635 1.23427 0
0.392699 1.23427 0
0.392699 0.608412 0
0.589049 0.608412 0
0.392699 0.920958 0
0.589049 0.920958 0
0.589049 0.608412 0
0.785398 0.608412 0
0.589049 0.920958 0
0.785398 0.920958 0
0.392699 0.920958 0
0.589049 0.920958 0
0.392699 1.23427 0
0.589049 1.23427 0
0.589049 0.920958 0
0.785398 0.920958 0
0.589049 1.23427 0
0.785398 1.23427 0
0.785398 0 0
0.981748 0 0
0.785398 0.295571 0
0.981748 0.295571 0
0.981748 0 0
1.1781 0 0
0.981748 0.295571 0
1.1781 0.295571 0
0.785398 0.295571 0
0.981748 0.295571 0
0.785398 0.608412 0
0.981748 0.608412 0
0.981748 0.295571 0
1.1781 0.295571 0
0.981748 0.608412 0
1.1781 0.608412 0
1.1781 0 0
1.37445 0 0
1.1781 0.295571 0
1.37445 0.295571 0
1.37445 0 0
1.5708 0 0
1.37445 0.295571 0
1.5708 0.295571 0
1.1781 0.295571 0
1.37445 0.295571 0
1.1781 0.608412 0
1.37445 0.608412 0
1.37445 0.295571 0
1.5708 0.295571 0
1.37445 0.608412 0
1.5708 0.608412 0
0.785398 0.608412 0
0.981748 0.608412 0
0.785398 0.920958 0
0.981748 0.920958 0
0.981748 0.608412 0
1.1781 0.608412 0
0.981748 0.920958 0
1.1781 0.920958 0
0.785398 0.920958 0
0.981748 0.920958 0
0.785398 1.23427 0
0.981748 1.23427 0
0.981748 0.920958 0
1.1781 0.920958 0
0.981748 1.23427 0
1.1781 1.23427 0
1.1781 0.608412 0
1.37445 0.608412 0
1.1781 0.920958 0
1.37445 0.920958 0
1.37445 0.608412 0
1.5708 0.608412 0
1.37445 0.920958 0
1.5708 0.920958 0
1.1781 0.920958 0
1.37445 0.920958 0
1.1781 1.23427 0
1.37445 1.23427 0
1.37445 0.920958 0
1.5708 0.920958 0
1.37445 1.23427 0
1.5708 1.23427 0
0 1.23427 0
0.19635 1.23427 0
0 1.54739 0
0.19635 1.54739 0
0.19635 1.23427 0
0.392699 1.23427 0
0.19635 1.54739 0
0.392699 1.54739 0
0 1.54739 0
0.19635 1.54739 0
0 1.86057 0
0.19635 1.86057 0
0.19635 1.54739 0
0.392699 1.54739 0
0.19635 1.86057 0
0.392699 1.86057 0
0.392699 1.23427 0
0.589049 1.23427 0
0.392699 1.54739 0
0.589049 1.54739 0
0.589049 1.23427 0
0.785398 1.23427 0
0.589049 1.54739 0
0.785398 1.54739 0
0.392699 1.54739 0
0.589049 1.54739 0
0.392699 1.86057 0
0.589049 1.86057 0
0.589049 1.54739 0
0.785398 1.54739 0
0.589049 1.86057 0
0.785398 1.86057 0
0 1.86057 0
0.19635 1.86057 0
0 2.17371 0
0.19635 2.17371 0
0.19635 1.86057 0
0.392699 1.86057 0
0.19635 2.17371 0
0.392699 2.17371 0
0 2.17371 0
0.19635 2.17371 0
0 2.48685 0
0.19635 2.48685 0
0.19635 2.17371 0
0.392699 2.17371 0
0.19635 2.48685 0
0.392699 2.48685 0
0.392699 1.86057 0
0.589049 1.86057 0
0.392699 2.17371 0
0.589049 2.17371 0
0.589049 1.86057 0
0.785398 1.86057 0
0.589049 2.17371 0
0.785398 2.17371 0
0.392699 2.17371 0
0.589049 2.17371 0
0.392699 2.48685 0
0.589049 2.48685 0
0.589049 2.17371 0
0.785398 2.17371 0
0.589049 2.48685 0
0.785398 2.48685 0
0.785398 1.23427 0
0.981748 1.23427 0
0.785398 1.54739 0
0.981748 1.54739 0
0.981748 1.23427 0
1.1781 1.23427 0
0.981748 1.54739 0
1.1781 1.54739 0
0.785398 1.54739 0
0.981748 1.54739 0
0.785398 1.86057 0
0.981748 1.86057 0
0.981748 1.54739 0
1.1781 1.54739 0
0.981748 1.86057 0
1.1781 1.86057 0
1.1781 1.23427 0
1.37445 1.23427 0
1.1781 1.54739 0
1.37445 1.54739 0
1.37445 1.23427 0
1.5708 1.23427 0
1.37445 1.54739 0
1.5708 1.54739 0
1.1781 1.54739 0
1.37445 1.54739 0
1.1781 1.86057 0
1.37445 1.86057 0
1.37445 1.54739 0
1.5708 1.54739 0
1.37445 1.86057 0
1.5708 1.86057 0
0.785398 1.86057 0
0.981748 1.86057 0
0.785398 2.17371 0
0.981748 2.17371 0
0.981748 1.86057 0
1.1781 1.86057 0
0.981748 2.17371 0
1.1781 2.17371 0
0.785398 2.17371 0
0.981748 2.17371 0
0.785398 2.48685 0
0.981748 2.48685 0
0.981748 2.17371 0
1.1781 2.17371 0
0.981748 2.48685 0
1.1781 2.48685 0
1.1781 1.86057 0
1.37445 1.86057 0
1.1781 2.17371 0
1.37445 2.17371 0
1.37445 1.86057 0
1.5708 1.86057 0
1.37445 2.17371 0
1.5708 2.17371 0
1.1781 2.17371 0
1.37445 2.17371 0
1.1781 2.48685 0
1.37445 2.48685 0
1.37445 2.17371 0
1.5708 2.17371 0
1.37445 2.48685 0
1.5708 2.48685 0
1.5708 0 0
1.76715 0 0
1.5708 0.295571 0
1.76715 0.295571 0
1.76715 0 0
1.9635 0 0
1.76715 0.295571 0
1.9635 0.295571 0
1.5708 0.295571 0
1.76715 0.295571 0
1.5708 0.608412 0
1.76715 0.608412 0
1.76715 0.295571 0
1.9635 0.295571 0
1.76715 0.608412 0
1.9635 0.608412 0
1.9635 0 0
2.15984 0 0
1.9635 0.295571 0
2.15984 0.295571 0
2.15984 0 0
2.35619 0 0
2.15984 0.295571 0
2.35619 0.295571 0
1.9635 0.295571 0
2.15984 0.295571 0
1.9635 0.608412 0
2.15984 0.608412 0
2.15984 0.295571 0
2.35619 0.295571 0
2.15984 0.608412 0
2.35619 0.608412 0
1.5708 0.608412 0
1.76715 0.608412 0
1.5708 0.920958 0
1.76715 0.920958 0
1.76715 0.608412 0
1.9635 0.608412 0
1.76715 0.920958 0
1.9635 0.920958 0
1.5708 0.920958 0
1.76715 0.920958 0
1.5708 1.23427 0
1.76715 1.23427 0
1.76715 0.920958 0
1.9635 0.920958 0
1.76715 1.23427 0
1.9635 1.23427 0
1.9635 0.608412 0
2.15984 0.608412 0
1.9635 0.920958 0
2.15984 0.920958 0
2.15984 0.608412 0
2.35619 0.608412 0
2.15984 0.920958 0
2.35619 0.920958 0
1.9635 0.920958 0
2.15984 0.920958 0
1.9635 1.23427 0
2.15984 1.23427 0
2.15984 0.920958 0
2.35619 0.920958 0
2.15984 1.23427 0
2.35619 1.23427 0
2.35619 0 0
2.55254 0 0
2.35619 0.295571 0
2.55254 0.295571 0
2.55254 0 0
2.74889 0 0
2.55254 0.295571 0
2.74889 0.295571 0
2.35619 0.295571 0
2.55254 0.295571 0
2.35619 0.608412 0
2.55254 0.608412 0
2.55254 0.295571 0
2.74889 0.295571 0
2.55254 0.608412 0
2.74889 0.608412 0
2.74889 0 0
2.94524 0 0
2.74889 0.295571 0
2.94524 0.295571 0
2.94524 0 0
3.14159 0 0
2.94524 0.295571 0
3.14159 0.295571 0
2.74889 0.295571 0
2.94524 0.295571 0
2.74889 0.608412 0
2.94524 0.608412 0
2.94524 0.295571 0
3.14159 0.295571 0
2.94524 0.608412 0
3.14159 0.608412 0
2.35619 0.608412 0
2.55254 0.608412 0
2.35619 0.920958 0
2.55254 0.920958 0
2.55254 0.608412 0
2.74889 0.608412 0
2.55254 0.920958 0
2.74889 0.920958 0
2.35619 0.920958 0
2.55254 0.920958 0
2.35619 1.23427 0
2.55254 1.23427 0
2.55254 0.920958 0
2.74889 0.920958 0
2.55254 1.23427 0
2.74889 1.23427 0
2.74889 0.608412 0
2.94524 0.608412 0
2.74889 0.920958 0
2.94524 0.920958 0
2.94524 0.608412 0
3.14159 0.608412 0
2.94524 0.920958 0
3.14159 0.920958 0
2.74889 0.920958 0
2.94524 0.920958 0
2.74889 1.23427 0
2.94524 1.23427 0
2.94524 0.920958 0
3.14159 0.920958 0
2.94524 1.23427 0
3.14159 1.23427 0
1.5708 1.23427 0
1.76715 1.23427 0
1.5708 1.54739 0
1.76715 1.54739 0
1.76715 1.23427 0
1.9635 1.23427 0
1.76715 1.54739 0
1.9635 1.54739 0
1.5708 1.54739 0
1.76715 1.54739 0
1.5708 1.86057 0
1.76715 1.86057 0
1.76715 1.54739 0
1.9635 1.54739 0
1.76715 1.86057 0
1.9635 1.86057 0
1.9635 1.23427 0
2.15984 1.23427 0
1.9635 1.54739 0
2.15984 1.54739 0
2.15984 1.23427 0
2.35619 1.23427 0
2.15984 1.54739 0
2.35619 1.54739 0
1.9635 1.54739 0
2.15984 1.54739 0
1.9635 1.86057 0
2.15984 1.86057 0
2.15984 1.54739 0
2.35619 1.54739 0
2.15984 1.86057 0
2.35619 1.86057 0
1.5708 1.86057 0
1.76715 1.86057 0
1.5708 2.17371 0
1.76715 2.17371 0
1.76715 1.86057 0
1.9635 1.86057 0
1.76715 2.17371 0
1.9635 2.17371 0
1.5708 2.17371 0
1.76715 2.17371 0
1.5708 2.48685 0
1.76715 2.48685 0
1.76715 2.17371 0
1.9635 2.17371 0
1.76715 2.48685 0
1.9635 2.48685 0
1.9635 1.86057 0
2.15984 1.86057 0
1.9635 2.17371 0
2.15984 2.17371 0
2.15984 1.86057 0
2.35619 1.86057 0
2.15984 2.17371 0
2.35619 2.17371 0
1.9635 2.17371 0
2.15984 2.17371 0
1.9635 2.48685 0
2.15984 2.48685 0
2.15984 2.17371 0
2.35619 2.17371 0
2.15984 2.48685 0
2.35619 2.48685 0
2.35619 1.23427 0
2.55254 1.23427 0
2.35619 1.54739 0
2.55254 1.54739 0
2.55254 1.23427 0
2.74889 1.23427 0
2.55254 1.54739 0
2.74889 1.54739 0
2.35619 1.54739 0
2.55254 1.54739 0
2.35619 1.86057 0
2.55254 1.86057 0
2.55254 1.54739 0
2.74889 1.54739 0
2.55254 1.86057 0
2.74889 1.86057 0
2.74889 1.23427 0
2.94524 1.23427 0
2.74889 1.54739 0
2.94524 1.54739 0
2.94524 1.23427 0
3.14159 1.23427 0
2.94524 1.54739 0
3.14159 1.54739 0
2.74889 1.54739 0
2.94524 1.54739 0
2.74889 1.86057 0
2.94524 1.86057 0
2.94524 1.54739 0
3.14159 1.54739 0
2.94524 1.86057 0
3.14159 1.86057 0
2.35619 1.86057 0
2.55254 1.86057 0
2.35619 2.17371 0
2.55254 2.17371 0
2.55254 1.86057 0
2.74889 1.86057 0
2.55254 2.17371 0
2.74889 2.17371 0
2.35619 2.17371 0
2.55254 2.17371 0
2.35619 2.48685 0
2.55254 2.48685 0
2.55254 2.17371 0
2.74889 2.17371 0
2.55254 2.48685 0
2.74889 2.48685 0
2.74889 1.86057 0
2.94524 1.86057 0
2.74889 2.17371 0
2.94524 2.17371 0
2.94524 1.86057 0
3.14159 1.86057 0
2.94524 2.17371 0
3.14159 2.17371 0
2.74889 2.17371 0
2.94524 2.17371 0
2.74889 2.48685 0
2.94524 2.48685 0
2.94524 2.17371 0
3.14159 2.17371 0
2.94524 2.48685 0
3.14159 2.48685 0
0 2.48685 0
0.19635 2.48685 0
0 2.79997 0
0.19635 2.79997 0
0.19635 2.48685 0
0.392699 2.48685 0
0.19635 2.79997 0
0.392699 2.79997 0
0 2.79997 0
0.19635 2.79997 0
0 3.11308 0
0.19635 3.11308 0
0.19635 2.79997 0
0.392699 2.79997 0
0.19635 3.11308 0
0.392699 3.11308 0
0.392699 2.48685 0
0.589049 2.48685 0
0.392699 2.79997 0
0.589049 2.79997 0
0.589049 2.48685 0
0.785398 2.48685 0
0.589049 2.79997 0
0.785398 2.79997 0
0.392699 2.79997 0
0.589049 2.79997 0
0.392699 3.11308 0
0.589049 3.11308 0
0.589049 2.79997 0
0.785398 2.79997 0
0.589049 3.11308 0
0.785398 3.11308 0
0 3.11308 0
0.19635 3.11308 0
0 3.42617 0
0.19635 3.42617 0
0.19635 3.11308 0
0.392699 3.11308 0
0.19635 3.42617 0
[...]
POINT_DATA 20480
VECTORS uf double
0 1 0
4.36311e-15 1 0
0 1.00097 0
-8.66625e-15 1.00097 0
4.36311e-15 1 0
8.796e-15 1 0
-8.66625e-15 1.00097 0
-1.51688e-14 1.00097 0
0 1.00097 0
1.52981e-15 1.00097 0
0 1.00074 0
3.03293e-15 1.00074 0
1.52981e-15 1.00097 0
2.16107e-14 1.00097 0
3.03293e-15 1.00074 0
-2.42421e-14 1.00074 0
8.796e-15 1 0
3.05582e-15 1 0
-1.51688e-14 1.00097 0
-5.1045e-15 1.00097 0
3.05582e-15 1 0
-8.17727e-15 1 0
-5.1045e-15 1.00097 0
8.1689e-15 1.00097 0
2.16107e-14 1.00097 0
2.16089e-15 1.00097 0
-2.42421e-14 1.00074 0
-2.7173e-15 1.00074 0
2.16089e-15 1.00097 0
-3.43355e-15 1.00097 0
-2.7173e-15 1.00074 0
1.91037e-15 1.00074 0
0 1.00074 0
9.16444e-15 1.00074 0
0 1.00078 0
6.16392e-15 1.00078 0
9.16444e-15 1.00074 0
1.04924e-14 1.00074 0
6.16392e-15 1.00078 0
2.12967e-15 1.00078 0
0 1.00078 0
-1.42202e-14 1.00078 0
0 1.00073 0
-3.92073e-14 1.00073 0
-1.42202e-14 1.00078 0
-8.16149e-16 1.00078 0
-3.92073e-14 1.00073 0
7.63524e-15 1.00073 0
1.04924e-14 1.00074 0
2.37642e-15 1.00074 0
2.12967e-15 1.00078 0
9.34709e-15 1.00078 0
2.37642e-15 1.00074 0
9.27108e-15 1.00074 0
9.34709e-15 1.00078 0
-1.11772e-14 1.00078 0
-8.16149e-16 1.00078 0
2.98253e-15 1.00078 0
7.63524e-15 1.00073 0
-4.10942e-15 1.00073 0
2.98253e-15 1.00078 0
1.86637e-14 1.00078 0
-4.10942e-15 1.00073 0
1.64598e-15 1.00073 0
-8.17727e-15 1 0
-1.38088e-14 1 0
8.1689e-15 1.00097 0
9.06177e-15 1.00097 0
-1.38088e-14 1 0
-4.76334e-15 1 0
9.06177e-15 1.00097 0
-3.32605e-15 1.00097 0
-3.43355e-15 1.00097 0
-9.2863e-15 1.00097 0
1.91037e-15 1.00074 0
1.46092e-14 1.00074 0
-9.2863e-15 1.00097 0
5.90822e-15 1.00097 0
1.46092e-14 1.00074 0
6.28196e-15 1.00074 0
-4.76334e-15 1 0
7.23474e-15 1 0
-3.32605e-15 1.00097 0
-4.60469e-15 1.00097 0
7.23474e-15 1 0
-1.54976e-16 1 0
-4.60469e-15 1.00097 0
9.03708e-15 1.00097 0
5.90822e-15 1.00097 0
-7.3323e-15 1.00097 0
6.28196e-15 1.00074 0
1.64403e-14 1.00074 0
-7.3323e-15 1.00097 0
-6.65548e-15 1.00097 0
1.64403e-14 1.00074 0
-1.66685e-16 1.00074 0
9.27108e-15 1.00074 0
1.77881e-15 1.00074 0
-1.11772e-14 1.00078 0
2.18327e-15 1.00078 0
1.77881e-15 1.00074 0
-2.08588e-15 1.00074 0
2.18327e-15 1.00078 0
1.11801e-14 1.00078 0
1.86637e-14 1.00078 0
5.26606e-15 1.00078 0
1.64598e-15 1.00073 0
2.46321e-15 1.00073 0
5.26606e-15 1.00078 0
-1.70064e-14 1.00078 0
2.46321e-15 1.00073 0
2.05355e-14 1.00073 0
-2.08588e-15 1.00074 0
-2.35602e-14 1.00074 0
1.11801e-14 1.00078 0
2.25272e-14 1.00078 0
-2.35602e-14 1.00074 0
3.08913e-15 1.00074 0
2.25272e-14 1.00078 0
2.52553e-15 1.00078 0
-1.70064e-14 1.00078 0
-3.73302e-16 1.00078 0
2.05355e-14 1.00073 0
7.87415e-15 1.00073 0
-3.73302e-16 1.00078 0
-3.98079e-16 1.00078 0
7.87415e-15 1.00073 0
3.69921e-15 1.00073 0
0 1.00073 0
3.94113e-14 1.00073 0
0 1.00071 0
1.06193e-14 1.00071 0
3.94113e-14 1.00073 0
-1.71725e-14 1.00073 0
1.06193e-14 1.00071 0
-1.71297e-14 1.00071 0
0 1.00071 0
-7.00891e-15 1.00071 0
0 1.00069 0
-2.86304e-14 1.00069 0
-7.00891e-15 1.00071 0
3.28265e-14 1.00071 0
-2.86304e-14 1.00069 0
5.83789e-15 1.00069 0
-1.71725e-14 1.00073 0
-7.26534e-15 1.00073 0
-1.71297e-14 1.00071 0
5.67722e-15 1.00071 0
-7.26534e-15 1.00073 0
-8.15629e-15 1.00073 0
5.67722e-15 1.00071 0
-1.84354e-15 1.00071 0
3.28265e-14 1.00071 0
-2.18067e-14 1.00071 0
5.83789e-15 1.00069 0
2.01276e-14 1.00069 0
-2.18067e-14 1.00071 0
-3.71451e-15 1.00071 0
2.01276e-14 1.00069 0
-6.02273e-15 1.00069 0
0 1.00069 0
1.00523e-14 1.00069 0
0 1.00066 0
-4.1289e-15 1.00066 0
1.00523e-14 1.00069 0
-3.59301e-14 1.00069 0
-4.1289e-15 1.00066 0
-3.55736e-14 1.00066 0
0 1.00066 0
3.87696e-14 1.00066 0
0 1.00064 0
2.87572e-14 1.00064 0
3.87696e-14 1.00066 0
3.22424e-14 1.00066 0
2.87572e-14 1.00064 0
5.186e-14 1.00064 0
-3.59301e-14 1.00069 0
-6.20663e-16 1.00069 0
-3.55736e-14 1.00066 0
-2.50163e-16 1.00066 0
-6.20663e-16 1.00069 0
4.63105e-15 1.00069 0
-2.50163e-16 1.00066 0
5.04264e-15 1.00066 0
3.22424e-14 1.00066 0
-6.70297e-15 1.00066 0
5.186e-14 1.00064 0
6.5186e-15 1.00064 0
-6.70297e-15 1.00066 0
-6.50025e-15 1.00066 0
6.5186e-15 1.00064 0
6.49322e-15 1.00064 0
-8.15629e-15 1.00073 0
2.73359e-15 1.00073 0
-1.84354e-15 1.00071 0
-4.41853e-15 1.00071 0
2.73359e-15 1.00073 0
-2.97244e-15 1.00073 0
-4.41853e-15 1.00071 0
1.31358e-15 1.00071 0
-3.71451e-15 1.00071 0
-2.291e-15 1.00071 0
-6.02273e-15 1.00069 0
-8.41176e-15 1.00069 0
-2.291e-15 1.00071 0
-7.05306e-15 1.00071 0
-8.41176e-15 1.00069 0
-2.57641e-15 1.00069 0
-2.97244e-15 1.00073 0
-4.90768e-15 1.00073 0
1.31358e-15 1.00071 0
2.6863e-15 1.00071 0
-4.90768e-15 1.00073 0
-6.11337e-15 1.00073 0
2.6863e-15 1.00071 0
1.35511e-14 1.00071 0
-7.05306e-15 1.00071 0
2.57108e-15 1.00071 0
-2.57641e-15 1.00069 0
1.08092e-15 1.00069 0
2.57108e-15 1.00071 0
3.07415e-15 1.00071 0
1.08092e-15 1.00069 0
-7.29801e-15 1.00069 0
4.63105e-15 1.00069 0
-5.13434e-15 1.00069 0
5.04264e-15 1.00066 0
6.34778e-15 1.00066 0
-5.13434e-15 1.00069 0
-1.23211e-15 1.00069 0
6.34778e-15 1.00066 0
6.56719e-15 1.00066 0
-6.50025e-15 1.00066 0
-1.0595e-15 1.00066 0
6.49322e-15 1.00064 0
1.0518e-14 1.00064 0
-1.0595e-15 1.00066 0
-1.14141e-14 1.00066 0
1.0518e-14 1.00064 0
1.86668e-14 1.00064 0
-1.23211e-15 1.00069 0
-1.29784e-14 1.00069 0
6.56719e-15 1.00066 0
1.03839e-14 1.00066 0
-1.29784e-14 1.00069 0
6.42729e-16 1.00069 0
1.03839e-14 1.00066 0
-1.30921e-15 1.00066 0
-1.14141e-14 1.00066 0
-8.17126e-15 1.00066 0
1.86668e-14 1.00064 0
1.04477e-14 1.00064 0
-8.17126e-15 1.00066 0
3.2923e-15 1.00066 0
1.04477e-14 1.00064 0
1.18531e-15 1.00064 0
-1.54976e-16 1 0
4.05253e-16 1 0
9.03708e-15 1.00097 0
-8.33946e-16 1.00097 0
4.05253e-16 1 0
-1.47302e-15 1 0
-8.33946e-16 1.00097 0
-3.94334e-15 1.00097 0
-6.65548e-15 1.00097 0
-3.25975e-15 1.00097 0
-1.66685e-16 1.00074 0
1.17536e-14 1.00074 0
-3.25975e-15 1.00097 0
1.03342e-14 1.00097 0
1.17536e-14 1.00074 0
-1.94193e-15 1.00074 0
-1.47302e-15 1 0
-1.81712e-15 1 0
-3.94334e-15 1.00097 0
8.3206e-16 1.00097 0
-1.81712e-15 1 0
-3.96488e-15 1 0
8.3206e-16 1.00097 0
1.87623e-16 1.00097 0
1.03342e-14 1.00097 0
1.56095e-14 1.00097 0
-1.94193e-15 1.00074 0
-1.35612e-14 1.00074 0
1.56095e-14 1.00097 0
8.98254e-15 1.00097 0
-1.35612e-14 1.00074 0
1.76676e-17 1.00074 0
3.08913e-15 1.00074 0
-2.77981e-15 1.00074 0
2.52553e-15 1.00078 0
4.99128e-15 1.00078 0
-2.77981e-15 1.00074 0
-2.79417e-15 1.00074 0
4.99128e-15 1.00078 0
4.99742e-15 1.00078 0
-3.98079e-16 1.00078 0
-1.87316e-14 1.00078 0
3.69921e-15 1.00073 0
2.22199e-14 1.00073 0
-1.87316e-14 1.00078 0
-3.65051e-15 1.00078 0
2.22199e-14 1.00073 0
8.5884e-15 1.00073 0
-2.79417e-15 1.00074 0
-4.20916e-15 1.00074 0
4.99742e-15 1.00078 0
1.57097e-14 1.00078 0
-4.20916e-15 1.00074 0
3.27901e-15 1.00074 0
1.57097e-14 1.00078 0
1.27566e-15 1.00078 0
-3.65051e-15 1.00078 0
-1.81256e-14 1.00078 0
8.5884e-15 1.00073 0
1.97582e-14 1.00073 0
-1.81256e-14 1.00078 0
-7.19116e-16 1.00078 0
1.97582e-14 1.00073 0
8.29783e-15 1.00073 0
-3.96488e-15 1 0
-1.28674e-15 1 0
1.87623e-16 1.00097 0
-2.12098e-15 1.00097 0
-1.28674e-15 1 0
1.03399e-15 1 0
-2.12098e-15 1.00097 0
-8.02576e-16 1.00097 0
8.98254e-15 1.00097 0
1.01275e-14 1.00097 0
1.76676e-17 1.00074 0
-1.41876e-15 1.00074 0
1.01275e-14 1.00097 0
-3.25261e-15 1.00097 0
-1.41876e-15 1.00074 0
1.70525e-14 1.00074 0
1.03399e-15 1 0
6.88642e-16 1 0
-8.02576e-16 1.00097 0
2.40625e-15 1.00097 0
6.88642e-16 1 0
8.01842e-16 1 0
2.40625e-15 1.00097 0
5.68641e-15 1.00097 0
-3.25261e-15 1.00097 0
-4.88288e-15 1.00097 0
1.70525e-14 1.00074 0
1.91211e-14 1.00074 0
-4.88288e-15 1.00097 0
1.19805e-15 1.00097 0
1.91211e-14 1.00074 0
1.63977e-14 1.00074 0
3.27901e-15 1.00074 0
5.87764e-15 1.00074 0
1.27566e-15 1.00078 0
-1.15517e-16 1.00078 0
5.87764e-15 1.00074 0
-9.86627e-15 1.00074 0
-1.15517e-16 1.00078 0
1.2403e-14 1.00078 0
-7.19116e-16 1.00078 0
6.41075e-15 1.00078 0
8.29783e-15 1.00073 0
-1.88752e-15 1.00073 0
6.41075e-15 1.00078 0
-7.7677e-15 1.00078 0
-1.88752e-15 1.00073 0
5.63828e-15 1.00073 0
-9.86627e-15 1.00074 0
-7.3679e-15 1.00074 0
1.2403e-14 1.00078 0
1.02624e-14 1.00078 0
-7.3679e-15 1.00074 0
-8.0969e-15 1.00074 0
1.02624e-14 1.00078 0
1.00777e-15 1.00078 0
-7.7677e-15 1.00078 0
-1.53477e-14 1.00078 0
5.63828e-15 1.00073 0
1.64436e-14 1.00073 0
-1.53477e-14 1.00078 0
-1.02762e-14 1.00078 0
1.64436e-14 1.00073 0
1.85897e-14 1.00073 0
-6.11337e-15 1.00073 0
-5.68422e-15 1.00073 0
1.35511e-14 1.00071 0
-9.11255e-16 1.00071 0
-5.68422e-15 1.00073 0
-9.9852e-15 1.00073 0
-9.11255e-16 1.00071 0
7.16085e-15 1.00071 0
3.07415e-15 1.00071 0
9.74508e-15 1.00071 0
-7.29801e-15 1.00069 0
2.61543e-15 1.00069 0
9.74508e-15 1.00071 0
-6.8451e-15 1.00071 0
2.61543e-15 1.00069 0
2.12308e-14 1.00069 0
-9.9852e-15 1.00073 0
-3.6575e-15 1.00073 0
7.16085e-15 1.00071 0
-2.71591e-15 1.00071 0
-3.6575e-15 1.00073 0
-5.56743e-15 1.00073 0
-2.71591e-15 1.00071 0
7.3288e-15 1.00071 0
-6.8451e-15 1.00071 0
4.36301e-16 1.00071 0
2.12308e-14 1.00069 0
7.86667e-15 1.00069 0
4.36301e-16 1.00071 0
-6.1937e-15 1.00071 0
7.86667e-15 1.00069 0
3.11871e-15 1.00069 0
6.42729e-16 1.00069 0
-9.6783e-15 1.00069 0
-1.30921e-15 1.00066 0
1.97282e-14 1.00066 0
-9.6783e-15 1.00069 0
-2.45847e-14 1.00069 0
1.97282e-14 1.00066 0
2.99986e-14 1.00066 0
3.2923e-15 1.00066 0
-1.85678e-14 1.00066 0
1.18531e-15 1.00064 0
1.23094e-14 1.00064 0
-1.85678e-14 1.00066 0
-2.19985e-14 1.00066 0
1.23094e-14 1.00064 0
2.46766e-14 1.00064 0
-2.45847e-14 1.00069 0
-1.19395e-14 1.00069 0
2.99986e-14 1.00066 0
1.90754e-14 1.00066 0
-1.19395e-14 1.00069 0
3.97871e-15 1.00069 0
1.90754e-14 1.00066 0
-7.63268e-15 1.00066 0
-2.19985e-14 1.00066 0
-1.11676e-14 1.00066 0
2.46766e-14 1.00064 0
8.77134e-16 1.00064 0
-1.11676e-14 1.00066 0
-5.3908e-16 1.00066 0
8.77134e-16 1.00064 0
1.61568e-14 1.00064 0
-5.56743e-15 1.00073 0
-5.15232e-16 1.00073 0
7.3288e-15 1.00071 0
4.94695e-15 1.00071 0
-5.15232e-16 1.00073 0
1.78249e-15 1.00073 0
4.94695e-15 1.00071 0
1.03318e-14 1.00071 0
-6.1937e-15 1.00071 0
1.49925e-15 1.00071 0
3.11871e-15 1.00069 0
-7.34442e-15 1.00069 0
1.49925e-15 1.00071 0
-1.02656e-14 1.00071 0
-7.34442e-15 1.00069 0
-2.41826e-16 1.00069 0
1.78249e-15 1.00073 0
-6.83695e-15 1.00073 0
1.03318e-14 1.00071 0
1.3593e-14 1.00071 0
-6.83695e-15 1.00073 0
-8.55521e-15 1.00073 0
1.3593e-14 1.00071 0
3.55649e-15 1.00071 0
-1.02656e-14 1.00071 0
-1.71396e-14 1.00071 0
-2.41826e-16 1.00069 0
1.28849e-14 1.00069 0
-1.71396e-14 1.00071 0
-4.73632e-15 1.00071 0
1.28849e-14 1.00069 0
-8.84109e-16 1.00069 0
3.97871e-15 1.00069 0
3.10652e-15 1.00069 0
-7.63268e-15 1.00066 0
9.0884e-16 1.00066 0
3.10652e-15 1.00069 0
-3.51614e-15 1.00069 0
9.0884e-16 1.00066 0
-3.33636e-16 1.00066 0
-5.3908e-16 1.00066 0
1.04546e-15 1.00066 0
1.61568e-14 1.00064 0
3.14053e-15 1.00064 0
1.04546e-15 1.00066 0
5.49513e-15 1.00066 0
3.14053e-15 1.00064 0
5.61506e-15 1.00064 0
-3.51614e-15 1.00069 0
-7.40888e-15 1.00069 0
-3.33636e-16 1.00066 0
5.14989e-15 1.00066 0
-7.40888e-15 1.00069 0
-1.44967e-15 1.00069 0
5.14989e-15 1.00066 0
1.0512e-14 1.00066 0
5.49513e-15 1.00066 0
-3.99726e-15 1.00066 0
5.61506e-15 1.00064 0
6.18819e-15 1.00064 0
-3.99726e-15 1.00066 0
1.58448e-15 1.00066 0
6.18819e-15 1.00064 0
3.71608e-15 1.00064 0
0 1.00064 0
-4.06901e-14 1.00064 0
0 1.00061 0
-4.98559e-14 1.00061 0
-4.06901e-14 1.00064 0
-5.71877e-15 1.00064 0
-4.98559e-14 1.00061 0
-9.98931e-15 1.00061 0
0 1.00061 0
4.54064e-14 1.00061 0
0 1.00059 0
2.3134e-14 1.00059 0
4.54064e-14 1.00061 0
-4.33436e-15 1.00061 0
2.3134e-14 1.00059 0
-2.54797e-15 1.00059 0
-5.71877e-15 1.00064 0
-1.69316e-15 1.00064 0
-9.98931e-15 1.00061 0
6.47633e-15 1.00061 0
-1.69316e-15 1.00064 0
-9.54213e-15 1.00064 0
6.47633e-15 1.00061 0
9.0378e-15 1.00061 0
-4.33436e-15 1.00061 0
-5.34159e-15 1.00061 0
-2.54797e-15 1.00059 0
2.9985e-15 1.00059 0
-5.34159e-15 1.00061 0
-1.55233e-15 1.00061 0
2.9985e-15 1.00059 0
1.45717e-14 1.00059 0
0 1.00059 0
-9.28601e-15 1.00059 0
0 1.00057 0
-3.99111e-14 1.00057 0
-9.28601e-15 1.00059 0
-2.23065e-14 1.00059 0
-3.99111e-14 1.00057 0
-2.88131e-15 1.00057 0
0 1.00057 0
3.12839e-14 1.00057 0
0 1.00054 0
3.20457e-14 1.00054 0
3.12839e-14 1.00057 0
2.94052e-14 1.00057 0
3.20457e-14 1.00054 0
3.05201e-14 1.00054 0
-2.23065e-14 1.00059 0
-1.15845e-14 1.00059 0
-2.88131e-15 1.00057 0
1.53807e-14 1.00057 0
-1.15845e-14 1.00059 0
-9.14522e-15 1.00059 0
1.53807e-14 1.00057 0
-3.60819e-15 1.00057 0
2.94052e-14 1.00057 0
-1.81577e-14 1.00057 0
3.05201e-14 1.00054 0
1.05506e-15 1.00054 0
-1.81577e-14 1.00057 0
4.30071e-15 1.00057 0
1.05506e-15 1.00054 0
1.82626e-15 1.00054 0
-9.54213e-15 1.00064 0
-1.79918e-15 1.00064 0
9.0378e-15 1.00061 0
-5.34796e-15 1.00061 0
-1.79918e-15 1.00064 0
-1.92148e-14 1.00064 0
-5.34796e-15 1.00061 0
1.25071e-14 1.00061 0
-1.55233e-15 1.00061 0
1.15384e-14 1.00061 0
1.45717e-14 1.00059 0
4.63687e-15 1.00059 0
1.15384e-14 1.00061 0
-6.71714e-15 1.00061 0
4.63687e-15 1.00059 0
5.10136e-15 1.00059 0
-1.92148e-14 1.00064 0
9.90061e-17 1.00064 0
1.25071e-14 1.00061 0
7.74059e-16 1.00061 0
9.90061e-17 1.00064 0
-9.03692e-15 1.00064 0
7.74059e-16 1.00061 0
1.33869e-14 1.00061 0
-6.71714e-15 1.00061 0
-3.28067e-15 1.00061 0
5.10136e-15 1.00059 0
2.0289e-15 1.00059 0
-3.28067e-15 1.00061 0
-1.09171e-14 1.00061 0
2.0289e-15 1.00059 0
1.78349e-14 1.00059 0
-9.14522e-15 1.00059 0
-6.2402e-15 1.00059 0
-3.60819e-15 1.00057 0
-3.31215e-15 1.00057 0
-6.2402e-15 1.00059 0
4.53988e-15 1.00059 0
-3.31215e-15 1.00057 0
-1.79701e-15 1.00057 0
4.30071e-15 1.00057 0
-8.94107e-15 1.00057 0
1.82626e-15 1.00054 0
5.34995e-15 1.00054 0
-8.94107e-15 1.00057 0
-4.4138e-15 1.00057 0
5.34995e-15 1.00054 0
6.40194e-15 1.00054 0
4.53988e-15 1.00059 0
-3.48742e-15 1.00059 0
-1.79701e-15 1.00057 0
8.56178e-15 1.00057 0
-3.48742e-15 1.00059 0
-1.64662e-14 1.00059 0
8.56178e-15 1.00057 0
6.56157e-15 1.00057 0
-4.4138e-15 1.00057 0
-1.7658e-14 1.00057 0
6.40194e-15 1.00054 0
1.8011e-14 1.00054 0
-1.7658e-14 1.00057 0
3.66352e-16 1.00057 0
1.8011e-14 1.00054 0
8.94871e-15 1.00054 0
0 1.00054 0
-3.1863e-14 1.00054 0
0 1.00052 0
-4.10441e-14 1.00052 0
-3.1863e-14 1.00054 0
-4.03057e-14 1.00054 0
-4.10441e-14 1.00052 0
-4.5154e-14 1.00052 0
0 1.00052 0
4.00109e-14 1.00052 0
0 1.0005 0
3.60991e-14 1.0005 0
4.00109e-14 1.00052 0
1.64226e-14 1.00052 0
3.60991e-14 1.0005 0
1.63756e-14 1.0005 0
-4.03057e-14 1.00054 0
1.65094e-14 1.00054 0
-4.5154e-14 1.00052 0
3.7161e-14 1.00052 0
1.65094e-14 1.00054 0
-1.42019e-15 1.00054 0
3.7161e-14 1.00052 0
2.06006e-14 1.00052 0
1.64226e-14 1.00052 0
-2.97277e-14 1.00052 0
1.63756e-14 1.0005 0
-1.436e-14 1.0005 0
-2.97277e-14 1.00052 0
-6.268e-15 1.00052 0
-1.436e-14 1.0005 0
1.35429e-14 1.0005 0
0 1.0005 0
-4.13603e-14 1.0005 0
0 1.00048 0
-3.32466e-14 1.00048 0
-4.13603e-14 1.0005 0
2.91058e-14 1.0005 0
-3.32466e-14 1.00048 0
3.01249e-14 1.00048 0
0 1.00048 0
1.73428e-14 1.00048 0
0 1.00046 0
1.98805e-14 1.00046 0
1.73428e-14 1.00048 0
-2.05689e-14 1.00048 0
1.98805e-14 1.00046 0
-1.64414e-14 1.00046 0
2.91058e-14 1.0005 0
-3.62568e-16 1.0005 0
3.01249e-14 1.00048 0
1.29222e-14 1.00048 0
-3.62568e-16 1.0005 0
-3.11547e-14 1.0005 0
1.29222e-14 1.00048 0
-5.20758e-15 1.00048 0
-2.05689e-14 1.00048 0
1.46919e-16 1.00048 0
-1.64414e-14 1.00046 0
3.40254e-15 1.00046 0
1.46919e-16 1.00048 0
-6.27378e-15 1.00048 0
3.40254e-15 1.00046 0
1.18769e-14 1.00046 0
-1.42019e-15 1.00054 0
-9.75748e-15 1.00054 0
2.06006e-14 1.00052 0
2.08953e-14 1.00052 0
-9.75748e-15 1.00054 0
1.9626e-15 1.00054 0
2.08953e-14 1.00052 0
6.65067e-16 1.00052 0
-6.268e-15 1.00052 0
8.70762e-16 1.00052 0
1.35429e-14 1.0005 0
2.90631e-14 1.0005 0
8.70762e-16 1.00052 0
-7.21459e-15 1.00052 0
2.90631e-14 1.0005 0
1.0975e-14 1.0005 0
1.9626e-15 1.00054 0
-8.52552e-15 1.00054 0
6.65067e-16 1.00052 0
1.49215e-14 1.00052 0
-8.52552e-15 1.00054 0
-1.50054e-14 1.00054 0
1.49215e-14 1.00052 0
1.77339e-14 1.00052 0
-7.21459e-15 1.00052 0
-1.41023e-14 1.00052 0
1.0975e-14 1.0005 0
6.93805e-15 1.0005 0
-1.41023e-14 1.00052 0
-1.59799e-14 1.00052 0
6.93805e-15 1.0005 0
1.3996e-14 1.0005 0
-3.11547e-14 1.0005 0
-2.33553e-14 1.0005 0
-5.20758e-15 1.00048 0
-5.05105e-15 1.00048 0
-2.33553e-14 1.0005 0
-1.4537e-14 1.0005 0
-5.05105e-15 1.00048 0
1.3767e-14 1.00048 0
-6.27378e-15 1.00048 0
-2.09987e-15 1.00048 0
1.18769e-14 1.00046 0
1.46431e-14 1.00046 0
-2.09987e-15 1.00048 0
-4.2248e-15 1.00048 0
1.46431e-14 1.00046 0
1.5076e-14 1.00046 0
-1.4537e-14 1.0005 0
-7.53761e-15 1.0005 0
1.3767e-14 1.00048 0
8.72601e-15 1.00048 0
-7.53761e-15 1.0005 0
-9.5301e-15 1.0005 0
8.72601e-15 1.00048 0
4.52647e-15 1.00048 0
-4.2248e-15 1.00048 0
-9.35612e-15 1.00048 0
1.5076e-14 1.00046 0
1.2058e-14 1.00046 0
-9.35612e-15 1.00048 0
-5.45866e-16 1.00048 0
1.2058e-14 1.00046 0
1.67036e-15 1.00046 0
-9.03692e-15 1.00064 0
-1.80893e-14 1.00064 0
1.33869e-14 1.00061 0
6.93965e-15 1.00061 0
-1.80893e-14 1.00064 0
-2.2859e-14 1.00064 0
6.93965e-15 1.00061 0
1.337e-14 1.00061 0
-1.09171e-14 1.00061 0
2.6692e-15 1.00061 0
1.78349e-14 1.00059 0
1.24863e-14 1.00059 0
2.6692e-15 1.00061 0
-4.64292e-15 1.00061 0
1.24863e-14 1.00059 0
7.58932e-15 1.00059 0
-2.2859e-14 1.00064 0
3.94512e-15 1.00064 0
1.337e-14 1.00061 0
8.16009e-15 1.00061 0
3.94512e-15 1.00064 0
-1.96964e-14 1.00064 0
8.16009e-15 1.00061 0
3.00317e-14 1.00061 0
-4.64292e-15 1.00061 0
-9.26577e-15 1.00061 0
7.58932e-15 1.00059 0
1.36628e-14 1.00059 0
-9.26577e-15 1.00061 0
-1.73879e-14 1.00061 0
1.36628e-14 1.00059 0
1.58604e-14 1.00059 0
-1.64662e-14 1.00059 0
-1.70056e-14 1.00059 0
6.56157e-15 1.00057 0
1.20077e-14 1.00057 0
-1.70056e-14 1.00059 0
-3.86731e-15 1.00059 0
1.20077e-14 1.00057 0
2.578e-15 1.00057 0
3.66352e-16 1.00057 0
6.21184e-16 1.00057 0
8.94871e-15 1.00054 0
5.83885e-15 1.00054 0
6.21184e-16 1.00057 0
-2.27975e-15 1.00057 0
5.83885e-15 1.00054 0
1.11037e-14 1.00054 0
-3.86731e-15 1.00059 0
-1.67652e-14 1.00059 0
2.578e-15 1.00057 0
5.50252e-15 1.00057 0
-1.67652e-14 1.00059 0
-1.47189e-14 1.00059 0
5.50252e-15 1.00057 0
4.73882e-15 1.00057 0
-2.27975e-15 1.00057 0
4.05879e-15 1.00057 0
1.11037e-14 1.00054 0
8.39189e-15 1.00054 0
4.05879e-15 1.00057 0
3.24121e-15 1.00057 0
8.39189e-15 1.00054 0
9.64718e-15 1.00054 0
-1.96964e-14 1.00064 0
3.03414e-15 1.00064 0
3.00317e-14 1.00061 0
3.24918e-15 1.00061 0
3.03414e-15 1.00064 0
1.36524e-14 1.00064 0
3.24918e-15 1.00061 0
5.95671e-15 1.00061 0
-1.73879e-14 1.00061 0
6.92776e-15 1.00061 0
1.58604e-14 1.00059 0
-9.66664e-15 1.00059 0
6.92776e-15 1.00061 0
-1.20754e-14 1.00061 0
-9.66664e-15 1.00059 0
2.17305e-15 1.00059 0
1.36524e-14 1.00064 0
4.09361e-15 1.00064 0
5.95671e-15 1.00061 0
1.10621e-14 1.00061 0
4.09361e-15 1.00064 0
3.40667e-15 1.00064 0
1.10621e-14 1.00061 0
7.55215e-15 1.00061 0
-1.20754e-14 1.00061 0
-1.09916e-14 1.00061 0
2.17305e-15 1.00059 0
9.94386e-15 1.00059 0
-1.09916e-14 1.00061 0
-5.49352e-15 1.00061 0
9.94386e-15 1.00059 0
-1.61427e-17 1.00059 0
-1.47189e-14 1.00059 0
-3.64335e-15 1.00059 0
4.73882e-15 1.00057 0
1.46914e-14 1.00057 0
-3.64335e-15 1.00059 0
-2.82959e-15 1.00059 0
1.46914e-14 1.00057 0
4.57903e-15 1.00057 0
3.24121e-15 1.00057 0
-1.23743e-14 1.00057 0
9.64718e-15 1.00054 0
1.75127e-14 1.00054 0
-1.23743e-14 1.00057 0
-2.07088e-15 1.00057 0
1.75127e-14 1.00054 0
5.94539e-15 1.00054 0
-2.82959e-15 1.00059 0
-7.89421e-15 1.00059 0
4.57903e-15 1.00057 0
1.09214e-14 1.00057 0
-7.89421e-15 1.00059 0
-8.62133e-15 1.00059 0
1.09214e-14 1.00057 0
1.27967e-14 1.00057 0
-2.07088e-15 1.00057 0
-5.70731e-15 1.00057 0
5.94539e-15 1.00054 0
1.22256e-14 1.00054 0
-5.70731e-15 1.00057 0
9.79397e-15 1.00057 0
1.22256e-14 1.00054 0
-5.29306e-15 1.00054 0
-1.50054e-14 1.00054 0
-9.48078e-15 1.00054 0
1.77339e-14 1.00052 0
1.31059e-14 1.00052 0
-9.48078e-15 1.00054 0
-6.89668e-15 1.00054 0
1.31059e-14 1.00052 0
9.53087e-15 1.00052 0
-1.59799e-14 1.00052 0
-1.22353e-14 1.00052 0
1.3996e-14 1.0005 0
1.24406e-14 1.0005 0
-1.22353e-14 1.00052 0
-8.42355e-15 1.00052 0
1.24406e-14 1.0005 0
1.57404e-14 1.0005 0
-6.89668e-15 1.00054 0
-2.23764e-15 1.00054 0
9.53087e-15 1.00052 0
2.82454e-15 1.00052 0
-2.23764e-15 1.00054 0
-1.17344e-14 1.00054 0
2.82454e-15 1.00052 0