# vtk DataFile Version 3.0
#This file was generated by the deal.II library on 2018/10/15 at 17:39:21
ASCII
DATASET UNSTRUCTURED_GRID

POINTS 20480 double
0 0 0
0.19635 0 0
0 0.293781 0
0.19635 0.293781 0
0.19635 0 0
0.392699 0 0
0.19635 0.293781 0
0.392699 0.293781 0
0 0.293781 0
0.19635 0.293781 0
0 0.606597 0
0.19635 0.606597 0
0.19635 0.293781 0
0.392699 0.293781 0
0.19635 0.606597 0
0.392699 0.606597 0
0.392699 0 0
0.589049 0 0
0.392699 0.293781 0
0.589049 0.293781 0
0.589049 0 0
0.785398 0 0
0.589049 0.293781 0
0.785398 0.293781 0
0.392699 0.293781 0
0.589049 0.293781 0
0.392699 0.606597 0
0.589049 0.606597 0
0.589049 0.293781 0
0.785398 0.293781 0
0.589049 0.606597 0
0.785398 0.606597 0
0 0.606597 0
0.19635 0.606597 0
0 0.919134 0
0.19635 0.919134 0
0.19635 0.606597 0
0.392699 0.606597 0
0.19635 0.919134 0
0.392699 0.919134 0
0 0.919134 0
0.19635 0.919134 0
0 1.23254 0
0.19635 1.23254 0
0.19635 0.919134 0
0.392699 0.919134 0
0.19635 1.23254 0
0.392699 1.23254 0
0.392699 0.606597 0
0.589049 0.606597 0
0.392699 0.919134 0
0.589049 0.919134 0
0.589049 0.606597 0
0.785398 0.606597 0
0.589049 0.919134 0
0.785398 0.919134 0
0.392699 0.919134 0
0.589049 0.919134 0
0.392699 1.23254 0
0.589049 1.23254 0
0.589049 0.919134 0
0.785398 0.919134 0
0.589049 1.23254 0
0.785398 1.23254 0
0.785398 0 0
0.981748 0 0
0.785398 0.293781 0
0.981748 0.293781 0
0.981748 0 0
1.1781 0 0
0.981748 0.293781 0
1.1781 0.293781 0
0.785398 0.293781 0
0.981748 0.293781 0
0.785398 0.606597 0
0.981748 0.606597 0
0.981748 0.293781 0
1.1781 0.293781 0
0.981748 0.606597 0
1.1781 0.606597 0
1.1781 0 0
1.37445 0 0
1.1781 0.293781 0
1.37445 0.293781 0
1.37445 0 0
1.5708 0 0
1.37445 0.293781 0
1.5708 0.293781 0
1.1781 0.293781 0
1.37445 0.293781 0
1.1781 0.606597 0
1.37445 0.606597 0
1.37445 0.293781 0
1.5708 0.293781 0
1.37445 0.606597 0
1.5708 0.606597 0
0.785398 0.606597 0
0.981748 0.606597 0
0.785398 0.919134 0
0.981748 0.919134 0
0.981748 0.606597 0
1.1781 0.606597 0
0.981748 0.919134 0
1.1781 0.919134 0
0.785398 0.919134 0
0.981748 0.919134 0
0.785398 1.23254 0
0.981748 1.23254 0
0.981748 0.919134 0
1.1781 0.919134 0
0.981748 1.23254 0
1.1781 1.23254 0
1.1781 0.606597 0
1.37445 0.606597 0
1.1781 0.919134 0
1.37445 0.919134 0
1.37445 0.606597 0
1.5708 0.606597 0
1.37445 0.919134 0
1.5708 0.919134 0
1.1781 0.919134 0
1.37445 0.919134 0
1.1781 1.23254 0
1.37445 1.23254 0
1.37445 0.919134 0
1.5708 0.919134 0
1.37445 1.23254 0
1.5708 1.23254 0
0 1.23254 0
0.19635 1.23254 0
0 1.54573 0
0.19635 1.54573 0
0.19635 1.23254 0
0.392699 1.23254 0
0.19635 1.54573 0
0.392699 1.54573 0
0 1.54573 0
0.19635 1.54573 0
0 1.85898 0
0.19635 1.85898 0
0.19635 1.54573 0
0.392699 1.54573 0
0.19635 1.85898 0
0.392699 1.85898 0
0.392699 1.23254 0
0.589049 1.23254 0
0.392699 1.54573 0
0.589049 1.54573 0
0.589049 1.23254 0
0.785398 1.23254 0
0.589049 1.54573 0
0.785398 1.54573 0
0.392699 1.54573 0
0.589049 1.54573 0
0.392699 1.85898 0
0.589049 1.85898 0
0.589049 1.54573 0
0.785398 1.54573 0
0.589049 1.85898 0
0.785398 1.85898 0
0 1.85898 0
0.19635 1.85898 0
0 2.1722 0
0.19635 2.1722 0
0.19635 1.85898 0
0.392699 1.85898 0
0.19635 2.1722 0
0.392699 2.1722 0
0 2.1722 0
0.19635 2.1722 0
0 2.4854 0
0.19635 2.4854 0
0.19635 2.1722 0
0.392699 2.1722 0
0.19635 2.4854 0
0.392699 2.4854 0
0.392699 1.85898 0
0.589049 1.85898 0
0.392699 2.1722 0
0.589049 2.1722 0
0.589049 1.85898 0
0.785398 1.85898 0
0.589049 2.1722 0
0.785398 2.1722 0
0.392699 2.1722 0
0.589049 2.1722 0
0.392699 2.4854 0
0.589049 2.4854 0
0.589049 2.1722 0
0.785398 2.1722 0
0.589049 2.4854 0
0.785398 2.4854 0
0.785398 1.23254 0
0.981748 1.23254 0
0.785398 1.54573 0
0.981748 1.54573 0
0.981748 1.23254 0
1.1781 1.23254 0
0.981748 1.54573 0
1.1781 1.54573 0
0.785398 1.54573 0
0.981748 1.54573 0
0.785398 1.85898 0
0.981748 1.85898 0
0.981748 1.54573 0
1.1781 1.54573 0
0.981748 1.85898 0
1.1781 1.85898 0
1.1781 1.23254 0
1.37445 1.23254 0
1.1781 1.54573 0
1.37445 1.54573 0
1.37445 1.23254 0
1.5708 1.23254 0
1.37445 1.54573 0
1.5708 1.54573 0
1.1781 1.54573 0
1.37445 1.54573 0
1.1781 1.85898 0
1.37445 1.85898 0
1.37445 1.54573 0
1.5708 1.54573 0
1.37445 1.85898 0
1.5708 1.85898 0
0.785398 1.85898 0
0.981748 1.85898 0
0.785398 2.1722 0
0.981748 2.1722 0
0.981748 1.85898 0
1.1781 1.85898 0
0.981748 2.1722 0
1.1781 2.1722 0
0.785398 2.1722 0
0.981748 2.1722 0
0.785398 2.4854 0
0.981748 2.4854 0
0.981748 2.1722 0
1.1781 2.1722 0
0.981748 2.4854 0
1.1781 2.4854 0
1.1781 1.85898 0
1.37445 1.85898 0
1.1781 2.1722 0
1.37445 2.1722 0
1.37445 1.85898 0
1.5708 1.85898 0
1.37445 2.1722 0
1.5708 2.1722 0
1.1781 2.1722 0
1.37445 2.1722 0
1.1781 2.4854 0
1.37445 2.4854 0
1.37445 2.1722 0
1.5708 2.1722 0
1.37445 2.4854 0
1.5708 2.4854 0
1.5708 0 0
1.76715 0 0
1.5708 0.293781 0
1.76715 0.293781 0
1.76715 0 0
1.9635 0 0
1.76715 0.293781 0
1.9635 0.293781 0
1.5708 0.293781 0
1.76715 0.293781 0
1.5708 0.606597 0
1.76715 0.606597 0
1.76715 0.293781 0
1.9635 0.293781 0
1.76715 0.606597 0
1.9635 0.606597 0
1.9635 0 0
2.15984 0 0
1.9635 0.293781 0
2.15984 0.293781 0
2.15984 0 0
2.35619 0 0
2.15984 0.293781 0
2.35619 0.293781 0
1.9635 0.293781 0
2.15984 0.293781 0
1.9635 0.606597 0
2.15984 0.606597 0
2.15984 0.293781 0
2.35619 0.293781 0
2.15984 0.606597 0
2.35619 0.606597 0
1.5708 0.606597 0
1.76715 0.606597 0
1.5708 0.919134 0
1.76715 0.919134 0
1.76715 0.606597 0
1.9635 0.606597 0
1.76715 0.919134 0
1.9635 0.919134 0
1.5708 0.919134 0
1.76715 0.919134 0
1.5708 1.23254 0
1.76715 1.23254 0
1.76715 0.919134 0
1.9635 0.919134 0
1.76715 1.23254 0
1.9635 1.23254 0
1.9635 0.606597 0
2.15984 0.606597 0
1.9635 0.919134 0
2.15984 0.919134 0
2.15984 0.606597 0
2.35619 0.606597 0
2.15984 0.919134 0
2.35619 0.919134 0
1.9635 0.919134 0
2.15984 0.919134 0
1.9635 1.23254 0
2.15984 1.23254 0
2.15984 0.919134 0
2.35619 0.919134 0
2.15984 1.23254 0
2.35619 1.23254 0
2.35619 0 0
2.55254 0 0
2.35619 0.293781 0
2.55254 0.293781 0
2.55254 0 0
2.74889 0 0
2.55254 0.293781 0
2.74889 0.293781 0
2.35619 0.293781 0
2.55254 0.293781 0
2.35619 0.606597 0
2.55254 0.606597 0
2.55254 0.293781 0
2.74889 0.293781 0
2.55254 0.606597 0
2.74889 0.606597 0
2.74889 0 0
2.94524 0 0
2.74889 0.293781 0
2.94524 0.293781 0
2.94524 0 0
3.14159 0 0
2.94524 0.293781 0
3.14159 0.293781 0
2.74889 0.293781 0
2.94524 0.293781 0
2.74889 0.606597 0
2.94524 0.606597 0
2.94524 0.293781 0
3.14159 0.293781 0
2.94524 0.606597 0
3.14159 0.606597 0
2.35619 0.606597 0
2.55254 0.606597 0
2.35619 0.919134 0
2.55254 0.919134 0
2.55254 0.606597 0
2.74889 0.606597 0
2.55254 0.919134 0
2.74889 0.919134 0
2.35619 0.919134 0
2.55254 0.919134 0
2.35619 1.23254 0
2.55254 1.23254 0
2.55254 0.919134 0
2.74889 0.919134 0
2.55254 1.23254 0
2.74889 1.23254 0
2.74889 0.606597 0
2.94524 0.606597 0
2.74889 0.919134 0
2.94524 0.919134 0
2.94524 0.606597 0
3.14159 0.606597 0
2.94524 0.919134 0
3.14159 0.919134 0
2.74889 0.919134 0
2.94524 0.919134 0
2.74889 1.23254 0
2.94524 1.23254 0
2.94524 0.919134 0
3.14159 0.919134 0
2.94524 1.23254 0
3.14159 1.23254 0
1.5708 1.23254 0
1.76715 1.23254 0
1.5708 1.54573 0
1.76715 1.54573 0
1.76715 1.23254 0
1.9635 1.23254 0
1.76715 1.54573 0
1.9635 1.54573 0
1.5708 1.54573 0
1.76715 1.54573 0
1.5708 1.85898 0
1.76715 1.85898 0
1.76715 1.54573 0
1.9635 1.54573 0
1.76715 1.85898 0
1.9635 1.85898 0
1.9635 1.23254 0
2.15984 1.23254 0
1.9635 1.54573 0
2.15984 1.54573 0
2.15984 1.23254 0
2.35619 1.23254 0
2.15984 1.54573 0
2.35619 1.54573 0
1.9635 1.54573 0
2.15984 1.54573 0
1.9635 1.85898 0
2.15984 1.85898 0
2.15984 1.54573 0
2.35619 1.54573 0
2.15984 1.85898 0
2.35619 1.85898 0
1.5708 1.85898 0
1.76715 1.85898 0
1.5708 2.1722 0
1.76715 2.1722 0
1.76715 1.85898 0
1.9635 1.85898 0
1.76715 2.1722 0
1.9635 2.1722 0
1.5708 2.1722 0
1.76715 2.1722 0
1.5708 2.4854 0
1.76715 2.4854 0
1.76715 2.1722 0
1.9635 2.1722 0
1.76715 2.4854 0
1.9635 2.4854 0
1.9635 1.85898 0
2.15984 1.85898 0
1.9635 2.1722 0
2.15984 2.1722 0
2.15984 1.85898 0
2.35619 1.85898 0
2.15984 2.1722 0
2.35619 2.1722 0
1.9635 2.1722 0
2.15984 2.1722 0
1.9635 2.4854 0
2.15984 2.4854 0
2.15984 2.1722 0
2.35619 2.1722 0
2.15984 2.4854 0
2.35619 2.4854 0
2.35619 1.23254 0
2.55254 1.23254 0
2.35619 1.54573 0
2.55254 1.54573 0
2.55254 1.23254 0
2.74889 1.23254 0
2.55254 1.54573 0
2.74889 1.54573 0
2.35619 1.54573 0
2.55254 1.54573 0
2.35619 1.85898 0
2.55254 1.85898 0
2.55254 1.54573 0
2.74889 1.54573 0
2.55254 1.85898 0
2.74889 1.85898 0
2.74889 1.23254 0
2.94524 1.23254 0
2.74889 1.54573 0
2.94524 1.54573 0
2.94524 1.23254 0
3.14159 1.23254 0
2.94524 1.54573 0
3.14159 1.54573 0
2.74889 1.54573 0
2.94524 1.54573 0
2.74889 1.85898 0
2.94524 1.85898 0
2.94524 1.54573 0
3.14159 1.54573 0
2.94524 1.85898 0
3.14159 1.85898 0
2.35619 1.85898 0
2.55254 1.85898 0
2.35619 2.1722 0
2.55254 2.1722 0
2.55254 1.85898 0
2.74889 1.85898 0
2.55254 2.1722 0
2.74889 2.1722 0
2.35619 2.1722 0
2.55254 2.1722 0
2.35619 2.4854 0
2.55254 2.4854 0
2.55254 2.1722 0
2.74889 2.1722 0
2.55254 2.4854 0
2.74889 2.4854 0
2.74889 1.85898 0
2.94524 1.85898 0
2.74889 2.1722 0
2.94524 2.1722 0
2.94524 1.85898 0
3.14159 1.85898 0
2.94524 2.1722 0
3.14159 2.1722 0
2.74889 2.1722 0
2.94524 2.1722 0
2.74889 2.4854 0
2.94524 2.4854 0
2.94524 2.1722 0
3.14159 2.1722 0
2.94524 2.4854 0
3.14159 2.4854 0
0 2.4854 0
0.19635 2.4854 0
0 2.79859 0
0.19635 2.79859 0
0.19635 2.4854 0
0.392699 2.4854 0
0.19635 2.79859 0
0.392699 2.79859 0
0 2.79859 0
0.19635 2.79859 0
0 3.11177 0
0.19635 3.11177 0
0.19635 2.79859 0
0.392699 2.79859 0
0.19635 3.11177 0
0.392699 3.11177 0
0.392699 2.4854 0
0.589049 2.4854 0
0.392699 2.79859 0
0.589049 2.79859 0
0.589049 2.4854 0
0.785398 2.4854 0
0.589049 2.79859 0
0.785398 2.79859 0
0.392699 2.79859 0
0.589049 2.79859 0
0.392699 3.11177 0
0.589049 3.11177 0
0.589049 2.79859 0
0.785398 2.79859 0
0.589049 3.11177 0
0.785398 3.11177 0
0 3.11177 0
0.19635 3.11177 0
0 3.42493 0
0.19635 3.42493 0
0.19635 3.11177 0
0.392699 3.11177 0
0.19635 3.42493 0
0.392699 3.42493 0
0 3.42493 0
0.19635 3.42493 0
0 3.73808 0
0.19635 3.73808 0
0.19635 3.42493 0
[...]
POINT_DATA 20480
VECTORS uf double
0 1 0
5.01011e-15 1 0
0 1.00098 0
-1.25292e-14 1.00098 0
5.01011e-15 1 0
3.846e-15 1 0
-1.25292e-14 1.00098 0
-6.33446e-15 1.00098 0
0 1.00098 0
7.80558e-15 1.00098 0
0 1.00075 0
-1.33742e-14 1.00075 0
7.80558e-15 1.00098 0
4.37628e-15 1.00098 0
-1.33742e-14 1.00075 0
3.31447e-15 1.00075 0
3.846e-15 1 0
7.49718e-15 1 0
-6.33446e-15 1.00098 0
-9.60748e-15 1.00098 0
7.49718e-15 1 0
-7.10955e-15 1 0
-9.60748e-15 1.00098 0
9.75859e-15 1.00098 0
4.37628e-15 1.00098 0
7.85139e-15 1.00098 0
3.31447e-15 1.00075 0
-9.10523e-15 1.00075 0
7.85139e-15 1.00098 0
-2.62605e-17 1.00098 0
-9.10523e-15 1.00075 0
-3.73785e-15 1.00075 0
0 1.00075 0
1.89617e-14 1.00075 0
0 1.00079 0
6.04595e-15 1.00079 0
1.89617e-14 1.00075 0
-7.34235e-15 1.00075 0
6.04595e-15 1.00079 0
-1.60955e-15 1.00079 0
0 1.00079 0
-9.35202e-15 1.00079 0
0 1.00075 0
-3.10944e-14 1.00075 0
-9.35202e-15 1.00079 0
8.62163e-15 1.00079 0
-3.10944e-14 1.00075 0
5.50396e-15 1.00075 0
-7.34235e-15 1.00075 0
6.00687e-15 1.00075 0
-1.60955e-15 1.00079 0
9.11104e-17 1.00079 0
6.00687e-15 1.00075 0
8.04724e-15 1.00075 0
9.11104e-17 1.00079 0
-8.07696e-15 1.00079 0
8.62163e-15 1.00079 0
2.64763e-15 1.00079 0
5.50396e-15 1.00075 0
2.91716e-16 1.00075 0
2.64763e-15 1.00079 0
1.1796e-14 1.00079 0
2.91716e-16 1.00075 0
-7.17875e-15 1.00075 0
-7.10955e-15 1 0
-4.87651e-15 1 0
9.75859e-15 1.00098 0
-2.94366e-15 1.00098 0
-4.87651e-15 1 0
-3.80903e-16 1 0
-2.94366e-15 1.00098 0
-1.93705e-15 1.00098 0
-2.62605e-17 1.00098 0
-1.85225e-15 1.00098 0
-3.73785e-15 1.00075 0
1.11464e-14 1.00075 0
-1.85225e-15 1.00098 0
5.25788e-15 1.00098 0
1.11464e-14 1.00075 0
8.64934e-15 1.00075 0
-3.80903e-16 1 0
7.94762e-15 1 0
-1.93705e-15 1.00098 0
2.59928e-15 1.00098 0
7.94762e-15 1 0
3.83826e-15 1 0
2.59928e-15 1.00098 0
1.60075e-16 1.00098 0
5.25788e-15 1.00098 0
-9.87809e-15 1.00098 0
8.64934e-15 1.00075 0
1.11821e-14 1.00075 0
-9.87809e-15 1.00098 0
6.98463e-15 1.00098 0
1.11821e-14 1.00075 0
-7.29935e-15 1.00075 0
8.04724e-15 1.00075 0
-2.543e-16 1.00075 0
-8.07696e-15 1.00079 0
5.73634e-15 1.00079 0
-2.543e-16 1.00075 0
-7.05098e-15 1.00075 0
5.73634e-15 1.00079 0
2.51646e-15 1.00079 0
1.1796e-14 1.00079 0
-1.61202e-15 1.00079 0
-7.17875e-15 1.00075 0
2.26979e-15 1.00075 0
-1.61202e-15 1.00079 0
-7.13581e-15 1.00079 0
2.26979e-15 1.00075 0
1.19062e-14 1.00075 0
-7.05098e-15 1.00075 0
-4.39002e-15 1.00075 0
2.51646e-15 1.00079 0
2.2416e-15 1.00079 0
-4.39002e-15 1.00075 0
3.58893e-16 1.00075 0
2.2416e-15 1.00079 0
4.69002e-15 1.00079 0
-7.13581e-15 1.00079 0
3.08654e-16 1.00079 0
1.19062e-14 1.00075 0
1.85153e-16 1.00075 0
3.08654e-16 1.00079 0
5.61203e-15 1.00079 0
1.85153e-16 1.00075 0
-7.51284e-15 1.00075 0
0 1.00075 0
2.38014e-14 1.00075 0
0 1.00073 0
2.53589e-14 1.00073 0
2.38014e-14 1.00075 0
-1.78055e-14 1.00075 0
2.53589e-14 1.00073 0
-1.45445e-14 1.00073 0
0 1.00073 0
-2.02497e-14 1.00073 0
0 1.0007 0
-1.74762e-14 1.0007 0
-2.02497e-14 1.00073 0
2.0584e-14 1.00073 0
-1.74762e-14 1.0007 0
3.10193e-14 1.0007 0
-1.78055e-14 1.00075 0
-3.91019e-15 1.00075 0
-1.45445e-14 1.00073 0
4.77657e-15 1.00073 0
-3.91019e-15 1.00075 0
6.00811e-15 1.00075 0
4.77657e-15 1.00073 0
-1.09906e-14 1.00073 0
2.0584e-14 1.00073 0
-9.42023e-15 1.00073 0
3.10193e-14 1.0007 0
5.04385e-15 1.0007 0
-9.42023e-15 1.00073 0
6.45749e-15 1.00073 0
5.04385e-15 1.0007 0
-4.5719e-15 1.0007 0
0 1.0007 0
3.69917e-15 1.0007 0
0 1.00068 0
-9.69551e-16 1.00068 0
3.69917e-15 1.0007 0
-4.56989e-14 1.0007 0
-9.69551e-16 1.00068 0
-4.54618e-14 1.00068 0
0 1.00068 0
3.91256e-14 1.00068 0
0 1.00065 0
3.84466e-14 1.00065 0
3.91256e-14 1.00068 0
5.14935e-14 1.00068 0
3.84466e-14 1.00065 0
3.93616e-14 1.00065 0
-4.56989e-14 1.0007 0
5.73234e-15 1.0007 0
-4.54618e-14 1.00068 0
-3.56969e-15 1.00068 0
5.73234e-15 1.0007 0
-3.69594e-15 1.0007 0
-3.56969e-15 1.00068 0
1.46028e-14 1.00068 0
5.14935e-14 1.00068 0
1.11469e-15 1.00068 0
3.93616e-14 1.00065 0
-1.0156e-14 1.00065 0
1.11469e-15 1.00068 0
-2.10773e-14 1.00068 0
-1.0156e-14 1.00065 0
1.81131e-14 1.00065 0
6.00811e-15 1.00075 0
3.58875e-15 1.00075 0
-1.09906e-14 1.00073 0
-1.16045e-14 1.00073 0
3.58875e-15 1.00075 0
-6.51864e-15 1.00075 0
-1.16045e-14 1.00073 0
7.02271e-15 1.00073 0
6.45749e-15 1.00073 0
1.09958e-14 1.00073 0
-4.5719e-15 1.0007 0
-5.36358e-16 1.0007 0
1.09958e-14 1.00073 0
-4.98018e-15 1.00073 0
-5.36358e-16 1.0007 0
8.9634e-15 1.0007 0
-6.51864e-15 1.00075 0
1.65711e-15 1.00075 0
7.02271e-15 1.00073 0
5.14055e-15 1.00073 0
1.65711e-15 1.00075 0
8.10779e-15 1.00075 0
5.14055e-15 1.00073 0
1.07397e-14 1.00073 0
-4.98018e-15 1.00073 0
3.1767e-15 1.00073 0
8.9634e-15 1.0007 0
1.18748e-15 1.0007 0
3.1767e-15 1.00073 0
-7.92281e-15 1.00073 0
1.18748e-15 1.0007 0
2.6698e-15 1.0007 0
-3.69594e-15 1.0007 0
-1.76251e-14 1.0007 0
1.46028e-14 1.00068 0
1.12419e-14 1.00068 0
-1.76251e-14 1.0007 0
-7.54514e-15 1.0007 0
1.12419e-14 1.00068 0
7.15354e-15 1.00068 0
-2.10773e-14 1.00068 0
5.52456e-15 1.00068 0
1.81131e-14 1.00065 0
-1.55154e-15 1.00065 0
5.52456e-15 1.00068 0
-1.98961e-14 1.00068 0
-1.55154e-15 1.00065 0
2.33773e-14 1.00065 0
-7.54514e-15 1.0007 0
-5.27089e-15 1.0007 0
7.15354e-15 1.00068 0
5.72451e-15 1.00068 0
-5.27089e-15 1.0007 0
-9.20275e-15 1.0007 0
5.72451e-15 1.00068 0
1.26053e-14 1.00068 0
-1.98961e-14 1.00068 0
-3.99932e-15 1.00068 0
2.33773e-14 1.00065 0
-4.39424e-15 1.00065 0
-3.99932e-15 1.00068 0
-4.25014e-15 1.00068 0
-4.39424e-15 1.00065 0
4.85844e-15 1.00065 0
3.83826e-15 1 0
1.41727e-15 1 0
1.60075e-16 1.00098 0
7.45596e-15 1.00098 0
1.41727e-15 1 0
9.34742e-15 1 0
7.45596e-15 1.00098 0
-3.23519e-15 1.00098 0
6.98463e-15 1.00098 0
-9.09122e-15 1.00098 0
-7.29935e-15 1.00075 0
1.34283e-14 1.00075 0
-9.09122e-15 1.00098 0
1.0038e-14 1.00098 0
1.34283e-14 1.00075 0
-1.20937e-14 1.00075 0
9.34742e-15 1 0
1.63498e-15 1 0
-3.23519e-15 1.00098 0
1.06825e-14 1.00098 0
1.63498e-15 1 0
-6.07143e-15 1 0
1.06825e-14 1.00098 0
1.48032e-14 1.00098 0
1.0038e-14 1.00098 0
-5.75591e-15 1.00098 0
-1.20937e-14 1.00075 0
1.55003e-15 1.00075 0
-5.75591e-15 1.00098 0
2.0587e-15 1.00098 0
1.55003e-15 1.00075 0
-7.31528e-16 1.00075 0
3.58893e-16 1.00075 0
-9.46385e-15 1.00075 0
4.69002e-15 1.00079 0
3.02306e-15 1.00079 0
-9.46385e-15 1.00075 0
-5.27391e-16 1.00075 0
3.02306e-15 1.00079 0
1.1438e-15 1.00079 0
5.61203e-15 1.00079 0
-5.54241e-15 1.00079 0
-7.51284e-15 1.00075 0
1.48153e-14 1.00075 0
-5.54241e-15 1.00079 0
5.71102e-15 1.00079 0
1.48153e-14 1.00075 0
-1.33061e-15 1.00075 0
-5.27391e-16 1.00075 0
-4.97302e-16 1.00075 0
1.1438e-15 1.00079 0
4.84279e-15 1.00079 0
-4.97302e-16 1.00075 0
7.36871e-16 1.00075 0
4.84279e-15 1.00079 0
3.28299e-15 1.00079 0
5.71102e-15 1.00079 0
-8.98126e-15 1.00079 0
-1.33061e-15 1.00075 0
8.33619e-15 1.00075 0
-8.98126e-15 1.00079 0
-1.40362e-15 1.00079 0
8.33619e-15 1.00075 0
1.28647e-14 1.00075 0
-6.07143e-15 1 0
-1.4722e-15 1 0
1.48032e-14 1.00098 0
6.57877e-15 1.00098 0
-1.4722e-15 1 0
1.2707e-15 1 0
6.57877e-15 1.00098 0
8.74304e-15 1.00098 0
2.0587e-15 1.00098 0
3.54001e-15 1.00098 0
-7.31528e-16 1.00075 0
6.01215e-16 1.00075 0
3.54001e-15 1.00098 0
-8.99533e-15 1.00098 0
6.01215e-16 1.00075 0
5.98138e-15 1.00075 0
1.2707e-15 1 0
-3.44177e-15 1 0
8.74304e-15 1.00098 0
6.99635e-15 1.00098 0
-3.44177e-15 1 0
-7.32583e-15 1 0
6.99635e-15 1.00098 0
1.23663e-14 1.00098 0
-8.99533e-15 1.00098 0
1.90287e-16 1.00098 0
5.98138e-15 1.00075 0
1.00273e-14 1.00075 0
1.90287e-16 1.00098 0
3.48963e-15 1.00098 0
1.00273e-14 1.00075 0
3.28267e-15 1.00075 0
7.36871e-16 1.00075 0
-2.30793e-15 1.00075 0
3.28299e-15 1.00079 0
6.50838e-15 1.00079 0
-2.30793e-15 1.00075 0
3.58007e-15 1.00075 0
6.50838e-15 1.00079 0
1.24445e-14 1.00079 0
-1.40362e-15 1.00079 0
2.22743e-15 1.00079 0
1.28647e-14 1.00075 0
4.04229e-15 1.00075 0
2.22743e-15 1.00079 0
-6.85205e-15 1.00079 0
4.04229e-15 1.00075 0
5.8726e-15 1.00075 0
3.58007e-15 1.00075 0
-4.93015e-15 1.00075 0
1.24445e-14 1.00079 0
1.1509e-14 1.00079 0
-4.93015e-15 1.00075 0
4.07382e-16 1.00075 0
1.1509e-14 1.00079 0
7.74962e-15 1.00079 0
-6.85205e-15 1.00079 0
-4.06823e-15 1.00079 0
5.8726e-15 1.00075 0
6.81966e-15 1.00075 0
-4.06823e-15 1.00079 0
-8.83564e-15 1.00079 0
6.81966e-15 1.00075 0
2.19136e-14 1.00075 0
8.10779e-15 1.00075 0
-8.43674e-15 1.00075 0
1.07397e-14 1.00073 0
1.36284e-14 1.00073 0
-8.43674e-15 1.00075 0
-2.99537e-15 1.00075 0
1.36284e-14 1.00073 0
1.02292e-14 1.00073 0
-7.92281e-15 1.00073 0
-2.99127e-15 1.00073 0
2.6698e-15 1.0007 0
5.79319e-15 1.0007 0
-2.99127e-15 1.00073 0
5.99143e-15 1.00073 0
5.79319e-15 1.0007 0
4.70864e-15 1.0007 0
-2.99537e-15 1.00075 0
2.49781e-17 1.00075 0
1.02292e-14 1.00073 0
1.21788e-14 1.00073 0
2.49781e-17 1.00075 0
-3.63292e-15 1.00075 0
1.21788e-14 1.00073 0
-7.5227e-16 1.00073 0
5.99143e-15 1.00073 0
-9.266e-15 1.00073 0
4.70864e-15 1.0007 0
1.74804e-14 1.0007 0
-9.266e-15 1.00073 0
-2.39001e-15 1.00073 0
1.74804e-14 1.0007 0
1.52443e-14 1.0007 0
-9.20275e-15 1.0007 0
-1.39847e-14 1.0007 0
1.26053e-14 1.00068 0
1.12294e-14 1.00068 0
-1.39847e-14 1.0007 0
-1.45102e-14 1.0007 0
1.12294e-14 1.00068 0
7.67609e-15 1.00068 0
-4.25014e-15 1.00068 0
-1.22962e-14 1.00068 0
4.85844e-15 1.00065 0
2.52363e-14 1.00065 0
-1.22962e-14 1.00068 0
-9.47654e-15 1.00068 0
2.52363e-14 1.00065 0
2.4274e-14 1.00065 0
-1.45102e-14 1.0007 0
-2.15402e-14 1.0007 0
7.67609e-15 1.00068 0
8.88895e-15 1.00068 0
-2.15402e-14 1.0007 0
-1.22438e-14 1.0007 0
8.88895e-15 1.00068 0
-9.62929e-17 1.00068 0
-9.47654e-15 1.00068 0
2.83726e-15 1.00068 0
2.4274e-14 1.00065 0
-5.62623e-16 1.00065 0
2.83726e-15 1.00068 0
-2.0992e-16 1.00068 0
-5.62623e-16 1.00065 0
1.32799e-14 1.00065 0
-3.63292e-15 1.00075 0
-2.04824e-15 1.00075 0
-7.5227e-16 1.00073 0
6.94224e-15 1.00073 0
-2.04824e-15 1.00075 0
-2.49957e-15 1.00075 0
6.94224e-15 1.00073 0
5.40902e-15 1.00073 0
-2.39001e-15 1.00073 0
-1.11647e-15 1.00073 0
1.52443e-14 1.0007 0
4.90378e-15 1.0007 0
-1.11647e-15 1.00073 0
5.76245e-15 1.00073 0
4.90378e-15 1.0007 0
5.07925e-15 1.0007 0
-2.49957e-15 1.00075 0
-1.79505e-15 1.00075 0
5.40902e-15 1.00073 0
5.91596e-15 1.00073 0
-1.79505e-15 1.00075 0
-1.29482e-14 1.00075 0
5.91596e-15 1.00073 0
2.62965e-15 1.00073 0
5.76245e-15 1.00073 0
-6.30511e-15 1.00073 0
5.07925e-15 1.0007 0
1.09969e-14 1.0007 0
-6.30511e-15 1.00073 0
6.83839e-15 1.00073 0
1.09969e-14 1.0007 0
2.72686e-15 1.0007 0
-1.22438e-14 1.0007 0
5.35536e-16 1.0007 0
-9.62929e-17 1.00068 0
4.6975e-15 1.00068 0
5.35536e-16 1.0007 0
-7.93423e-15 1.0007 0
4.6975e-15 1.00068 0
1.28897e-14 1.00068 0
-2.0992e-16 1.00068 0
-8.98271e-15 1.00068 0
1.32799e-14 1.00065 0
1.26588e-14 1.00065 0
-8.98271e-15 1.00068 0
-7.18362e-15 1.00068 0
1.26588e-14 1.00065 0
-8.8377e-15 1.00065 0
-7.93423e-15 1.0007 0
-5.75698e-15 1.0007 0
1.28897e-14 1.00068 0
1.75433e-14 1.00068 0
-5.75698e-15 1.0007 0
-3.57068e-15 1.0007 0
1.75433e-14 1.00068 0
4.44107e-15 1.00068 0
-7.18362e-15 1.00068 0
-1.73793e-14 1.00068 0
-8.8377e-15 1.00065 0
1.35282e-14 1.00065 0
-1.73793e-14 1.00068 0
1.12283e-14 1.00068 0
1.35282e-14 1.00065 0
-5.61522e-15 1.00065 0
0 1.00065 0
-5.27223e-14 1.00065 0
0 1.00063 0
-6.26382e-14 1.00063 0
-5.27223e-14 1.00065 0
-2.37617e-15 1.00065 0
-6.26382e-14 1.00063 0
-1.23437e-14 1.00063 0
0 1.00063 0
5.07792e-14 1.00063 0
0 1.0006 0
4.52735e-14 1.0006 0
5.07792e-14 1.00063 0
-5.40974e-15 1.00063 0
4.52735e-14 1.0006 0
-6.63487e-15 1.0006 0
-2.37617e-15 1.00065 0
2.28568e-14 1.00065 0
-1.23437e-14 1.00063 0
-1.33536e-14 1.00063 0
2.28568e-14 1.00065 0
-1.53337e-14 1.00065 0
-1.33536e-14 1.00063 0
1.87056e-14 1.00063 0
-5.40974e-15 1.00063 0
1.03653e-14 1.00063 0
-6.63487e-15 1.0006 0
-7.60527e-15 1.0006 0
1.03653e-14 1.00063 0
-1.67403e-14 1.00063 0
-7.60527e-15 1.0006 0
2.00625e-14 1.0006 0
0 1.0006 0
-2.97051e-14 1.0006 0
0 1.00058 0
-3.72652e-14 1.00058 0
-2.97051e-14 1.0006 0
-1.08036e-14 1.0006 0
-3.72652e-14 1.00058 0
-5.90951e-15 1.00058 0
0 1.00058 0
3.78232e-14 1.00058 0
0 1.00055 0
3.21485e-14 1.00055 0
3.78232e-14 1.00058 0
3.7313e-14 1.00058 0
3.21485e-14 1.00055 0
1.50968e-14 1.00055 0
-1.08036e-14 1.0006 0
-5.78837e-15 1.0006 0
-5.90951e-15 1.00058 0
1.32055e-14 1.00058 0
-5.78837e-15 1.0006 0
-1.43403e-14 1.0006 0
1.32055e-14 1.00058 0
7.40165e-15 1.00058 0
3.7313e-14 1.00058 0
-2.6113e-14 1.00058 0
1.50968e-14 1.00055 0
-5.86625e-15 1.00055 0
-2.6113e-14 1.00058 0
5.48194e-16 1.00058 0
-5.86625e-15 1.00055 0
-7.90112e-15 1.00055 0
-1.53337e-14 1.00065 0
3.87707e-15 1.00065 0
1.87056e-14 1.00063 0
2.14627e-15 1.00063 0
3.87707e-15 1.00065 0
-1.36919e-14 1.00065 0
2.14627e-15 1.00063 0
1.09457e-14 1.00063 0
-1.67403e-14 1.00063 0
-3.92278e-15 1.00063 0
2.00625e-14 1.0006 0
3.83733e-15 1.0006 0
-3.92278e-15 1.00063 0
-4.74031e-15 1.00063 0
3.83733e-15 1.0006 0
-5.92674e-15 1.0006 0
-1.36919e-14 1.00065 0
6.9324e-15 1.00065 0
1.09457e-14 1.00063 0
5.80205e-15 1.00063 0
6.9324e-15 1.00065 0
-8.28946e-15 1.00065 0
5.80205e-15 1.00063 0
1.1662e-14 1.00063 0
-4.74031e-15 1.00063 0
-1.08131e-14 1.00063 0
-5.92674e-15 1.0006 0
5.74737e-15 1.0006 0
-1.08131e-14 1.00063 0
-1.38131e-14 1.00063 0
5.74737e-15 1.0006 0
1.16398e-14 1.0006 0
-1.43403e-14 1.0006 0
-5.93595e-16 1.0006 0
7.40165e-15 1.00058 0
-4.3133e-15 1.00058 0
-5.93595e-16 1.0006 0
5.2786e-15 1.0006 0
-4.3133e-15 1.00058 0
1.86784e-15 1.00058 0
5.48194e-16 1.00058 0
-1.09735e-14 1.00058 0
-7.90112e-15 1.00055 0
8.00989e-15 1.00055 0
-1.09735e-14 1.00058 0
-4.79092e-15 1.00058 0
8.00989e-15 1.00055 0
9.61723e-15 1.00055 0
5.2786e-15 1.0006 0
-6.58592e-15 1.0006 0
1.86784e-15 1.00058 0
6.98974e-15 1.00058 0
-6.58592e-15 1.0006 0
-1.21421e-14 1.0006 0
6.98974e-15 1.00058 0
8.42486e-15 1.00058 0
-4.79092e-15 1.00058 0
-1.24027e-14 1.00058 0
9.61723e-15 1.00055 0
1.69103e-14 1.00055 0
-1.24027e-14 1.00058 0
1.25885e-15 1.00058 0
1.69103e-14 1.00055 0
3.41681e-15 1.00055 0
0 1.00055 0
-3.78761e-14 1.00055 0
0 1.00053 0
-4.83784e-14 1.00053 0
-3.78761e-14 1.00055 0
-4.5847e-14 1.00055 0
-4.83784e-14 1.00053 0
-4.3292e-14 1.00053 0
0 1.00053 0
5.15559e-14 1.00053 0
0 1.00051 0
3.74717e-14 1.00051 0
5.15559e-14 1.00053 0
1.21044e-14 1.00053 0
3.74717e-14 1.00051 0
2.56697e-14 1.00051 0
-4.5847e-14 1.00055 0
2.92652e-14 1.00055 0
-4.3292e-14 1.00053 0
2.85715e-14 1.00053 0
2.92652e-14 1.00055 0
8.14722e-16 1.00055 0
2.85715e-14 1.00053 0
2.82202e-14 1.00053 0
1.21044e-14 1.00053 0
-2.14769e-14 1.00053 0
2.56697e-14 1.00051 0
-1.90028e-14 1.00051 0
-2.14769e-14 1.00053 0
-3.82553e-15 1.00053 0
-1.90028e-14 1.00051 0
1.74154e-14 1.00051 0
0 1.00051 0
-3.84258e-14 1.00051 0
0 1.00049 0
-4.32041e-14 1.00049 0
-3.84258e-14 1.00051 0
3.57324e-14 1.00051 0
-4.32041e-14 1.00049 0
3.6653e-14 1.00049 0
0 1.00049 0
2.83562e-14 1.00049 0
0 1.00046 0
1.32855e-14 1.00046 0
2.83562e-14 1.00049 0
-2.65547e-14 1.00049 0
1.32855e-14 1.00046 0
-1.43744e-14 1.00046 0
3.57324e-14 1.00051 0
6.26223e-15 1.00051 0
3.6653e-14 1.00049 0
1.53546e-14 1.00049 0
6.26223e-15 1.00051 0
-3.11602e-14 1.00051 0
1.53546e-14 1.00049 0
-9.26439e-15 1.00049 0
-2.65547e-14 1.00049 0
-3.5865e-15 1.00049 0
-1.43744e-14 1.00046 0
-9.80472e-16 1.00046 0
-3.5865e-15 1.00049 0
-5.80971e-16 1.00049 0
-9.80472e-16 1.00046 0
8.51074e-15 1.00046 0
8.14722e-16 1.00055 0
-9.60876e-15 1.00055 0
2.82202e-14 1.00053 0
1.3708e-14 1.00053 0
-9.60876e-15 1.00055 0
-6.19092e-15 1.00055 0
1.3708e-14 1.00053 0
3.43607e-15 1.00053 0
-3.82553e-15 1.00053 0
5.62867e-15 1.00053 0
1.74154e-14 1.00051 0
3.02622e-14 1.00051 0
5.62867e-15 1.00053 0
-6.62024e-15 1.00053 0
3.02622e-14 1.00051 0
1.05669e-14 1.00051 0
-6.19092e-15 1.00055 0
-6.13983e-15 1.00055 0
3.43607e-15 1.00053 0
5.22016e-15 1.00053 0
-6.13983e-15 1.00055 0
-1.45692e-14 1.00055 0
5.22016e-15 1.00053 0
1.62589e-14 1.00053 0
-6.62024e-15 1.00053 0
-7.81906e-15 1.00053 0
1.05669e-14 1.00051 0
1.346e-14 1.00051 0
-7.81906e-15 1.00053 0
-1.13817e-14 1.00053 0
1.346e-14 1.00051 0
1.3319e-14 1.00051 0
-3.11602e-14 1.00051 0
-1.59183e-14 1.00051 0
-9.26439e-15 1.00049 0
-9.42425e-15 1.00049 0
-1.59183e-14 1.00051 0
-9.96467e-15 1.00051 0
-9.42425e-15 1.00049 0
1.63215e-14 1.00049 0
-5.80971e-16 1.00049 0
3.07037e-15 1.00049 0
8.51074e-15 1.00046 0
5.28605e-15 1.00046 0
3.07037e-15 1.00049 0
-7.48318e-15 1.00049 0
5.28605e-15 1.00046 0
1.16909e-14 1.00046 0
-9.96467e-15 1.00051 0
-1.36997e-14 1.00051 0
1.63215e-14 1.00049 0
1.31202e-14 1.00049 0
-1.36997e-14 1.00051 0
-1.00586e-14 1.00051 0
1.31202e-14 1.00049 0
1.29095e-14 1.00049 0
-7.48318e-15 1.00049 0
-1.00273e-14 1.00049 0
1.16909e-14 1.00046 0
1.08396e-14 1.00046 0
-1.00273e-14 1.00049 0
-1.23547e-14 1.00049 0
1.08396e-14 1.00046 0
9.37733e-15 1.00046 0
-8.28946e-15 1.00065 0
-2.14238e-14 1.00065 0
1.1662e-14 1.00063 0
1.63177e-14 1.00063 0
-2.14238e-14 1.00065 0
-1.86558e-14 1.00065 0
1.63177e-14 1.00063 0
8.01486e-15 1.00063 0
-1.38131e-14 1.00063 0
-1.27561e-14 1.00063 0
1.16398e-14 1.0006 0
7.54742e-15 1.0006 0
-1.27561e-14 1.00063 0
-5.02746e-15 1.00063 0
7.54742e-15 1.0006 0
5.04542e-15 1.0006 0
-1.86558e-14 1.00065 0
-5.666e-15 1.00065 0
8.01486e-15 1.00063 0
9.92109e-15 1.00063 0
-5.666e-15 1.00065 0
-1.01551e-14 1.00065 0
9.92109e-15 1.00063 0
-6.75076e-16 1.00063 0
-5.02746e-15 1.00063 0
-1.06365e-14 1.00063 0
5.04542e-15 1.0006 0
6.33799e-15 1.0006 0
-1.06365e-14 1.00063 0
1.88946e-15 1.00063 0
6.33799e-15 1.0006 0
1.12254e-14 1.0006 0
-1.21421e-14 1.0006 0
-5.67052e-15 1.0006 0
8.42486e-15 1.00058 0
9.3814e-15 1.00058 0
-5.67052e-15 1.0006 0
-4.60044e-15 1.0006 0
9.3814e-15 1.00058 0
9.0136e-15 1.00058 0
1.25885e-15 1.00058 0
7.48792e-16 1.00058 0
3.41681e-15 1.00055 0
4.02872e-15 1.00055 0
7.48792e-16 1.00058 0
-8.74879e-15 1.00058 0
4.02872e-15 1.00055 0
1.58489e-14 1.00055 0
-4.60044e-15 1.0006 0
-6.76247e-15 1.0006 0
9.0136e-15 1.00058 0
1.66639e-14 1.00058 0
-6.76247e-15 1.0006 0
-1.19823e-14 1.0006 0
1.66639e-14 1.00058 0
8.65581e-15 1.00058 0
-8.74879e-15 1.00058 0
-9.9518e-15 1.00058 0
1.58489e-14 1.00055 0
9.10921e-15 1.00055 0
-9.9518e-15 1.00058 0
-2.9613e-15 1.00058 0
9.10921e-15 1.00055 0
8.11664e-15 1.00055 0
-1.01551e-14 1.00065 0
-8.88723e-15 1.00065 0
-6.75076e-16 1.00063 0
1.00479e-14 1.00063 0
-8.88723e-15 1.00065 0
1.76912e-14 1.00065 0
1.00479e-14 1.00063 0
-1.924e-15 1.00063 0
1.88946e-15 1.00063 0
-9.28201e-15 1.00063 0
1.12254e-14 1.0006 0
1.16301e-14 1.0006 0
-9.28201e-15 1.00063 0
6.80398e-16 1.00063 0
1.16301e-14 1.0006 0
3.6836e-16 1.0006 0
1.76912e-14 1.00065 0
-4.1936e-15 1.00065 0
-1.924e-15 1.00063 0
4.84919e-15 1.00063 0
-4.1936e-15 1.00065 0
1.32342e-14 1.00065 0
4.84919e-15 1.00063 0
-1.19168e-14 1.00063 0
6.80398e-16 1.00063 0
4.96116e-15 1.00063 0
3.6836e-16 1.0006 0
4.67685e-15 1.0006 0
4.96116e-15 1.00063 0
1.02472e-15 1.00063 0
4.67685e-15 1.0006 0
1.39735e-14 1.0006 0
-1.19823e-14 1.0006 0
-1.37126e-14 1.0006 0
8.65581e-15 1.00058 0
1.62155e-14 1.00058 0
-1.37126e-14 1.0006 0
-3.02966e-15 1.0006 0
1.62155e-14 1.00058 0
2.15498e-15 1.00058 0
-2.9613e-15 1.00058 0
-1.31473e-14 1.00058 0
8.11664e-15 1.00055 0
1.3384e-14 1.00055 0
-1.31473e-14 1.00058 0
2.94445e-15 1.00058 0
1.3384e-14 1.00055 0
-3.38758e-15 1.00055 0
-3.02966e-15 1.0006 0
-6.73438e-15 1.0006 0
2.15498e-15 1.00058 0
1.01691e-14 1.00058 0
-6.73438e-15 1.0006 0
-1.98805e-14 1.0006 0
1.01691e-14 1.00058 0
6.14978e-15 1.00058 0
2.94445e-15 1.00058 0
-1.25744e-14 1.00058 0
-3.38758e-15 1.00055 0
3.32266e-15 1.00055 0
-1.25744e-14 1.00058 0
1.405e-14 1.00058 0
3.32266e-15 1.00055 0
-5.10454e-15 1.00055 0
-1.45692e-14 1.00055 0
-1.22605e-14 1.00055 0
1.62589e-14 1.00053 0
2.76025e-15 1.00053 0
-1.22605e-14 1.00055 0
-1.48214e-14 1.00055 0
2.76025e-15 1.00053 0
5.05011e-15 1.00053 0
-1.13817e-14 1.00053 0
2.80399e-15 1.00053 0
1.3319e-14 1.00051 0
5.6739e-15 1.00051 0
2.80399e-15 1.00053 0
-2.02048e-16 1.00053 0
5.6739e-15 1.00051 0
8.27347e-15 1.00051 0
-1.48214e-14 1.00055 0
-9.40068e-15 1.00055 0
5.05011e-15 1.00053 0
-1.69164e-15 1.00053 0
-9.40068e-15 1.00055 0
-9.50117e-15 1.00055 0
-1.69164e-15 1.00053 0
3.39013e-15 1.00053 0
-2.02048e-16 1.00053 0
3.71356e-15 1.00053 0
8.27347e-15 1.00051 0