# vtk DataFile Version 3.0
#This file was generated by the deal.II library on 2018/10/15 at 22:50:08
ASCII
DATASET UNSTRUCTURED_GRID

POINTS 20480 double
0 0 0
0.19635 0 0
0 0.288343 0
0.19635 0.288343 0
0.19635 0 0
0.392699 0 0
0.19635 0.288343 0
0.392699 0.288343 0
0 0.288343 0
0.19635 0.288343 0
0 0.601014 0
0.19635 0.601014 0
0.19635 0.288343 0
0.392699 0.288343 0
0.19635 0.601014 0
0.392699 0.601014 0
0.392699 0 0
0.589049 0 0
0.392699 0.288343 0
0.589049 0.288343 0
0.589049 0 0
0.785398 0 0
0.589049 0.288343 0
0.785398 0.288343 0
0.392699 0.288343 0
0.589049 0.288343 0
0.392699 0.601014 0
0.589049 0.601014 0
0.589049 0.288343 0
0.785398 0.288343 0
0.589049 0.601014 0
0.785398 0.601014 0
0 0.601014 0
0.19635 0.601014 0
0 0.9135 0
0.19635 0.9135 0
0.19635 0.601014 0
0.392699 0.601014 0
0.19635 0.9135 0
0.392699 0.9135 0
0 0.9135 0
0.19635 0.9135 0
0 1.22721 0
0.19635 1.22721 0
0.19635 0.9135 0
0.392699 0.9135 0
0.19635 1.22721 0
0.392699 1.22721 0
0.392699 0.601014 0
0.589049 0.601014 0
0.392699 0.9135 0
0.589049 0.9135 0
0.589049 0.601014 0
0.785398 0.601014 0
0.589049 0.9135 0
0.785398 0.9135 0
0.392699 0.9135 0
0.589049 0.9135 0
0.392699 1.22721 0
0.589049 1.22721 0
0.589049 0.9135 0
0.785398 0.9135 0
0.589049 1.22721 0
0.785398 1.22721 0
0.785398 0 0
0.981748 0 0
0.785398 0.288343 0
0.981748 0.288343 0
0.981748 0 0
1.1781 0 0
0.981748 0.288343 0
1.1781 0.288343 0
0.785398 0.288343 0
0.981748 0.288343 0
0.785398 0.601014 0
0.981748 0.601014 0
0.981748 0.288343 0
1.1781 0.288343 0
0.981748 0.601014 0
1.1781 0.601014 0
1.1781 0 0
1.37445 0 0
1.1781 0.288343 0
1.37445 0.288343 0
1.37445 0 0
1.5708 0 0
1.37445 0.288343 0
1.5708 0.288343 0
1.1781 0.288343 0
1.37445 0.288343 0
1.1781 0.601014 0
1.37445 0.601014 0
1.37445 0.288343 0
1.5708 0.288343 0
1.37445 0.601014 0
1.5708 0.601014 0
0.785398 0.601014 0
0.981748 0.601014 0
0.785398 0.9135 0
0.981748 0.9135 0
0.981748 0.601014 0
1.1781 0.601014 0
0.981748 0.9135 0
1.1781 0.9135 0
0.785398 0.9135 0
0.981748 0.9135 0
0.785398 1.22721 0
0.981748 1.22721 0
0.981748 0.9135 0
1.1781 0.9135 0
0.981748 1.22721 0
1.1781 1.22721 0
1.1781 0.601014 0
1.37445 0.601014 0
1.1781 0.9135 0
1.37445 0.9135 0
1.37445 0.601014 0
1.5708 0.601014 0
1.37445 0.9135 0
1.5708 0.9135 0
1.1781 0.9135 0
1.37445 0.9135 0
1.1781 1.22721 0
1.37445 1.22721 0
1.37445 0.9135 0
1.5708 0.9135 0
1.37445 1.22721 0
1.5708 1.22721 0
0 1.22721 0
0.19635 1.22721 0
0 1.5406 0
0.19635 1.5406 0
0.19635 1.22721 0
0.392699 1.22721 0
0.19635 1.5406 0
0.392699 1.5406 0
0 1.5406 0
0.19635 1.5406 0
0 1.85409 0
0.19635 1.85409 0
0.19635 1.5406 0
0.392699 1.5406 0
0.19635 1.85409 0
0.392699 1.85409 0
0.392699 1.22721 0
0.589049 1.22721 0
0.392699 1.5406 0
0.589049 1.5406 0
0.589049 1.22721 0
0.785398 1.22721 0
0.589049 1.5406 0
0.785398 1.5406 0
0.392699 1.5406 0
0.589049 1.5406 0
0.392699 1.85409 0
0.589049 1.85409 0
0.589049 1.5406 0
0.785398 1.5406 0
0.589049 1.85409 0
0.785398 1.85409 0
0 1.85409 0
0.19635 1.85409 0
0 2.16752 0
0.19635 2.16752 0
0.19635 1.85409 0
0.392699 1.85409 0
0.19635 2.16752 0
0.392699 2.16752 0
0 2.16752 0
0.19635 2.16752 0
0 2.48095 0
0.19635 2.48095 0
0.19635 2.16752 0
0.392699 2.16752 0
0.19635 2.48095 0
0.392699 2.48095 0
0.392699 1.85409 0
0.589049 1.85409 0
0.392699 2.16752 0
0.589049 2.16752 0
0.589049 1.85409 0
0.785398 1.85409 0
0.589049 2.16752 0
0.785398 2.16752 0
0.392699 2.16752 0
0.589049 2.16752 0
0.392699 2.48095 0
0.589049 2.48095 0
0.589049 2.16752 0
0.785398 2.16752 0
0.589049 2.48095 0
0.785398 2.48095 0
0.785398 1.22721 0
0.981748 1.22721 0
0.785398 1.5406 0
0.981748 1.5406 0
0.981748 1.22721 0
1.1781 1.22721 0
0.981748 1.5406 0
1.1781 1.5406 0
0.785398 1.5406 0
0.981748 1.5406 0
0.785398 1.85409 0
0.981748 1.85409 0
0.981748 1.5406 0
1.1781 1.5406 0
0.981748 1.85409 0
1.1781 1.85409 0
1.1781 1.22721 0
1.37445 1.22721 0
1.1781 1.5406 0
1.37445 1.5406 0
1.37445 1.22721 0
1.5708 1.22721 0
1.37445 1.5406 0
1.5708 1.5406 0
1.1781 1.5406 0
1.37445 1.5406 0
1.1781 1.85409 0
1.37445 1.85409 0
1.37445 1.5406 0
1.5708 1.5406 0
1.37445 1.85409 0
1.5708 1.85409 0
0.785398 1.85409 0
0.981748 1.85409 0
0.785398 2.16752 0
0.981748 2.16752 0
0.981748 1.85409 0
1.1781 1.85409 0
0.981748 2.16752 0
1.1781 2.16752 0
0.785398 2.16752 0
0.981748 2.16752 0
0.785398 2.48095 0
0.981748 2.48095 0
0.981748 2.16752 0
1.1781 2.16752 0
0.981748 2.48095 0
1.1781 2.48095 0
1.1781 1.85409 0
1.37445 1.85409 0
1.1781 2.16752 0
1.37445 2.16752 0
1.37445 1.85409 0
1.5708 1.85409 0
1.37445 2.16752 0
1.5708 2.16752 0
1.1781 2.16752 0
1.37445 2.16752 0
1.1781 2.48095 0
1.37445 2.48095 0
1.37445 2.16752 0
1.5708 2.16752 0
1.37445 2.48095 0
1.5708 2.48095 0
1.5708 0 0
1.76715 0 0
1.5708 0.288343 0
1.76715 0.288343 0
1.76715 0 0
1.9635 0 0
1.76715 0.288343 0
1.9635 0.288343 0
1.5708 0.288343 0
1.76715 0.288343 0
1.5708 0.601014 0
1.76715 0.601014 0
1.76715 0.288343 0
1.9635 0.288343 0
1.76715 0.601014 0
1.9635 0.601014 0
1.9635 0 0
2.15984 0 0
1.9635 0.288343 0
2.15984 0.288343 0
2.15984 0 0
2.35619 0 0
2.15984 0.288343 0
2.35619 0.288343 0
1.9635 0.288343 0
2.15984 0.288343 0
1.9635 0.601014 0
2.15984 0.601014 0
2.15984 0.288343 0
2.35619 0.288343 0
2.15984 0.601014 0
2.35619 0.601014 0
1.5708 0.601014 0
1.76715 0.601014 0
1.5708 0.9135 0
1.76715 0.9135 0
1.76715 0.601014 0
1.9635 0.601014 0
1.76715 0.9135 0
1.9635 0.9135 0
1.5708 0.9135 0
1.76715 0.9135 0
1.5708 1.22721 0
1.76715 1.22721 0
1.76715 0.9135 0
1.9635 0.9135 0
1.76715 1.22721 0
1.9635 1.22721 0
1.9635 0.601014 0
2.15984 0.601014 0
1.9635 0.9135 0
2.15984 0.9135 0
2.15984 0.601014 0
2.35619 0.601014 0
2.15984 0.9135 0
2.35619 0.9135 0
1.9635 0.9135 0
2.15984 0.9135 0
1.9635 1.22721 0
2.15984 1.22721 0
2.15984 0.9135 0
2.35619 0.9135 0
2.15984 1.22721 0
2.35619 1.22721 0
2.35619 0 0
2.55254 0 0
2.35619 0.288343 0
2.55254 0.288343 0
2.55254 0 0
2.74889 0 0
2.55254 0.288343 0
2.74889 0.288343 0
2.35619 0.288343 0
2.55254 0.288343 0
2.35619 0.601014 0
2.55254 0.601014 0
2.55254 0.288343 0
2.74889 0.288343 0
2.55254 0.601014 0
2.74889 0.601014 0
2.74889 0 0
2.94524 0 0
2.74889 0.288343 0
2.94524 0.288343 0
2.94524 0 0
3.14159 0 0
2.94524 0.288343 0
3.14159 0.288343 0
2.74889 0.288343 0
2.94524 0.288343 0
2.74889 0.601014 0
2.94524 0.601014 0
2.94524 0.288343 0
3.14159 0.288343 0
2.94524 0.601014 0
3.14159 0.601014 0
2.35619 0.601014 0
2.55254 0.601014 0
2.35619 0.9135 0
2.55254 0.9135 0
2.55254 0.601014 0
2.74889 0.601014 0
2.55254 0.9135 0
2.74889 0.9135 0
2.35619 0.9135 0
2.55254 0.9135 0
2.35619 1.22721 0
2.55254 1.22721 0
2.55254 0.9135 0
2.74889 0.9135 0
2.55254 1.22721 0
2.74889 1.22721 0
2.74889 0.601014 0
2.94524 0.601014 0
2.74889 0.9135 0
2.94524 0.9135 0
2.94524 0.601014 0
3.14159 0.601014 0
2.94524 0.9135 0
3.14159 0.9135 0
2.74889 0.9135 0
2.94524 0.9135 0
2.74889 1.22721 0
2.94524 1.22721 0
2.94524 0.9135 0
3.14159 0.9135 0
2.94524 1.22721 0
3.14159 1.22721 0
1.5708 1.22721 0
1.76715 1.22721 0
1.5708 1.5406 0
1.76715 1.5406 0
1.76715 1.22721 0
1.9635 1.22721 0
1.76715 1.5406 0
1.9635 1.5406 0
1.5708 1.5406 0
1.76715 1.5406 0
1.5708 1.85409 0
1.76715 1.85409 0
1.76715 1.5406 0
1.9635 1.5406 0
1.76715 1.85409 0
1.9635 1.85409 0
1.9635 1.22721 0
2.15984 1.22721 0
1.9635 1.5406 0
2.15984 1.5406 0
2.15984 1.22721 0
2.35619 1.22721 0
2.15984 1.5406 0
2.35619 1.5406 0
1.9635 1.5406 0
2.15984 1.5406 0
1.9635 1.85409 0
2.15984 1.85409 0
2.15984 1.5406 0
2.35619 1.5406 0
2.15984 1.85409 0
2.35619 1.85409 0
1.5708 1.85409 0
1.76715 1.85409 0
1.5708 2.16752 0
1.76715 2.16752 0
1.76715 1.85409 0
1.9635 1.85409 0
1.76715 2.16752 0
1.9635 2.16752 0
1.5708 2.16752 0
1.76715 2.16752 0
1.5708 2.48095 0
1.76715 2.48095 0
1.76715 2.16752 0
1.9635 2.16752 0
1.76715 2.48095 0
1.9635 2.48095 0
1.9635 1.85409 0
2.15984 1.85409 0
1.9635 2.16752 0
2.15984 2.16752 0
2.15984 1.85409 0
2.35619 1.85409 0
2.15984 2.16752 0
2.35619 2.16752 0
1.9635 2.16752 0
2.15984 2.16752 0
1.9635 2.48095 0
2.15984 2.48095 0
2.15984 2.16752 0
2.35619 2.16752 0
2.15984 2.48095 0
2.35619 2.48095 0
2.35619 1.22721 0
2.55254 1.22721 0
2.35619 1.5406 0
2.55254 1.5406 0
2.55254 1.22721 0
2.74889 1.22721 0
2.55254 1.5406 0
2.74889 1.5406 0
2.35619 1.5406 0
2.55254 1.5406 0
2.35619 1.85409 0
2.55254 1.85409 0
2.55254 1.5406 0
2.74889 1.5406 0
2.55254 1.85409 0
2.74889 1.85409 0
2.74889 1.22721 0
2.94524 1.22721 0
2.74889 1.5406 0
2.94524 1.5406 0
2.94524 1.22721 0
3.14159 1.22721 0
2.94524 1.5406 0
3.14159 1.5406 0
2.74889 1.5406 0
2.94524 1.5406 0
2.74889 1.85409 0
2.94524 1.85409 0
2.94524 1.5406 0
3.14159 1.5406 0
2.94524 1.85409 0
3.14159 1.85409 0
2.35619 1.85409 0
2.55254 1.85409 0
2.35619 2.16752 0
2.55254 2.16752 0
2.55254 1.85409 0
2.74889 1.85409 0
2.55254 2.16752 0
2.74889 2.16752 0
2.35619 2.16752 0
2.55254 2.16752 0
2.35619 2.48095 0
2.55254 2.48095 0
2.55254 2.16752 0
2.74889 2.16752 0
2.55254 2.48095 0
2.74889 2.48095 0
2.74889 1.85409 0
2.94524 1.85409 0
2.74889 2.16752 0
2.94524 2.16752 0
2.94524 1.85409 0
3.14159 1.85409 0
2.94524 2.16752 0
3.14159 2.16752 0
2.74889 2.16752 0
2.94524 2.16752 0
2.74889 2.48095 0
2.94524 2.48095 0
2.94524 2.16752 0
3.14159 2.16752 0
2.94524 2.48095 0
3.14159 2.48095 0
0 2.48095 0
0.19635 2.48095 0
0 2.79436 0
0.19635 2.79436 0
0.19635 2.48095 0
0.392699 2.48095 0
0.19635 2.79436 0
0.392699 2.79436 0
0 2.79436 0
0.19635 2.79436 0
0 3.10774 0
0.19635 3.10774 0
0.19635 2.79436 0
0.392699 2.79436 0
0.19635 3.10774 0
0.392699 3.10774 0
0.392699 2.48095 0
0.589049 2.48095 0
0.392699 2.79436 0
0.589049 2.79436 0
0.589049 2.48095 0
0.785398 2.48095 0
0.589049 2.79436 0
0.785398 2.79436 0
0.392699 2.79436 0
0.589049 2.79436 0
0.392699 3.10774 0
0.589049 3.10774 0
0.589049 2.79436 0
0.785398 2.79436 0
0.589049 3.10774 0
0.785398 3.10774 0
0 3.10774 0
0.19635 3.10774 0
0 3.42111 0
0.19635 3.42111 0
0.19635 3.10774 0
0.392699 3.10774 0
0.19635 3.42111 0
0.392699 3.42111 0
0 3.42111 0
0.19635 3.42111 0
0 3.73446 0
0.19635 3.73446 0
0.19635 3.42111 0
0.392699 3.42111 0
0.19635 3.73446 0
0.392699 3.73446 0
0.392699 3.10774 0
0.589049 3.10774 0
[...]
POINT_DATA 20480
VECTORS uf double
0 1 0
6.23115e-15 1 0
0 1.00101 0
-1.30875e-14 1.00101 0
6.23115e-15 1 0
1.30708e-15 1 0
-1.30875e-14 1.00101 0
-2.87916e-15 1.00101 0
0 1.00101 0
6.95224e-15 1.00101 0
0 1.00078 0
-3.68296e-15 1.00078 0
6.95224e-15 1.00101 0
2.02133e-15 1.00101 0
-3.68296e-15 1.00078 0
-2.99184e-15 1.00078 0
1.30708e-15 1 0
7.84785e-15 1 0
-2.87916e-15 1.00101 0
-3.96759e-15 1.00101 0
7.84785e-15 1 0
-7.76564e-15 1 0
-3.96759e-15 1.00101 0
2.01581e-14 1.00101 0
2.02133e-15 1.00101 0
4.39436e-15 1.00101 0
-2.99184e-15 1.00078 0
-1.42675e-14 1.00078 0
4.39436e-15 1.00101 0
-1.88074e-14 1.00101 0
-1.42675e-14 1.00078 0
9.30494e-15 1.00078 0
0 1.00078 0
-2.34183e-16 1.00078 0
0 1.00083 0
2.5222e-14 1.00083 0
-2.34183e-16 1.00078 0
6.21727e-15 1.00078 0
2.5222e-14 1.00083 0
-5.95942e-15 1.00083 0
0 1.00083 0
-3.22486e-14 1.00083 0
0 1.00078 0
-2.61724e-14 1.00078 0
-3.22486e-14 1.00083 0
7.13526e-15 1.00083 0
-2.61724e-14 1.00078 0
-4.66504e-15 1.00078 0
6.21727e-15 1.00078 0
8.80813e-15 1.00078 0
-5.95942e-15 1.00083 0
2.90152e-15 1.00083 0
8.80813e-15 1.00078 0
-3.0606e-15 1.00078 0
2.90152e-15 1.00083 0
9.67194e-15 1.00083 0
7.13526e-15 1.00083 0
-1.64278e-15 1.00083 0
-4.66504e-15 1.00078 0
-1.96665e-15 1.00078 0
-1.64278e-15 1.00083 0
-8.45199e-15 1.00083 0
-1.96665e-15 1.00078 0
6.36022e-15 1.00078 0
-7.76564e-15 1 0
-8.55859e-15 1 0
2.01581e-14 1.00101 0
1.69266e-14 1.00101 0
-8.55859e-15 1 0
-1.51539e-15 1 0
1.69266e-14 1.00101 0
1.58461e-14 1.00101 0
-1.88074e-14 1.00101 0
-1.06644e-14 1.00101 0
9.30494e-15 1.00078 0
1.08422e-14 1.00078 0
-1.06644e-14 1.00101 0
-1.07842e-14 1.00101 0
1.08422e-14 1.00078 0
1.3835e-14 1.00078 0
-1.51539e-15 1 0
5.93824e-15 1 0
1.58461e-14 1.00101 0
1.74742e-14 1.00101 0
5.93824e-15 1 0
7.13204e-15 1 0
1.74742e-14 1.00101 0
7.45409e-15 1.00101 0
-1.07842e-14 1.00101 0
-2.30765e-14 1.00101 0
1.3835e-14 1.00078 0
7.11226e-15 1.00078 0
-2.30765e-14 1.00101 0
-3.93976e-15 1.00101 0
7.11226e-15 1.00078 0
-7.85727e-16 1.00078 0
-3.0606e-15 1.00078 0
-6.58765e-15 1.00078 0
9.67194e-15 1.00083 0
1.19278e-14 1.00083 0
-6.58765e-15 1.00078 0
-1.29036e-14 1.00078 0
1.19278e-14 1.00083 0
6.31282e-15 1.00083 0
-8.45199e-15 1.00083 0
-5.06197e-15 1.00083 0
6.36022e-15 1.00078 0
2.35625e-15 1.00078 0
-5.06197e-15 1.00083 0
-5.20833e-15 1.00083 0
2.35625e-15 1.00078 0
-1.73944e-15 1.00078 0
-1.29036e-14 1.00078 0
-6.69941e-16 1.00078 0
6.31282e-15 1.00083 0
6.14319e-15 1.00083 0
-6.69941e-16 1.00078 0
-2.72312e-15 1.00078 0
6.14319e-15 1.00083 0
3.95025e-15 1.00083 0
-5.20833e-15 1.00083 0
4.9498e-16 1.00083 0
-1.73944e-15 1.00078 0
-4.73353e-15 1.00078 0
4.9498e-16 1.00083 0
2.01737e-15 1.00083 0
-4.73353e-15 1.00078 0
6.48681e-15 1.00078 0
0 1.00078 0
2.94677e-14 1.00078 0
0 1.00076 0
3.53382e-14 1.00076 0
2.94677e-14 1.00078 0
-1.61536e-14 1.00078 0
3.53382e-14 1.00076 0
-1.5761e-14 1.00076 0
0 1.00076 0
-3.04962e-14 1.00076 0
0 1.00073 0
-2.79772e-14 1.00073 0
-3.04962e-14 1.00076 0
2.78692e-14 1.00076 0
-2.79772e-14 1.00073 0
3.77811e-14 1.00073 0
-1.61536e-14 1.00078 0
-2.65298e-15 1.00078 0
-1.5761e-14 1.00076 0
9.48126e-15 1.00076 0
-2.65298e-15 1.00078 0
-7.42417e-15 1.00078 0
9.48126e-15 1.00076 0
7.28514e-15 1.00076 0
2.78692e-14 1.00076 0
-1.05948e-14 1.00076 0
3.77811e-14 1.00073 0
2.44604e-15 1.00073 0
-1.05948e-14 1.00076 0
-1.03989e-14 1.00076 0
2.44604e-15 1.00073 0
7.77496e-15 1.00073 0
0 1.00073 0
8.1347e-15 1.00073 0
0 1.00071 0
5.22729e-15 1.00071 0
8.1347e-15 1.00073 0
-5.38548e-14 1.00073 0
5.22729e-15 1.00071 0
-5.76392e-14 1.00071 0
0 1.00071 0
5.20477e-14 1.00071 0
0 1.00068 0
4.62959e-14 1.00068 0
5.20477e-14 1.00071 0
5.33924e-14 1.00071 0
4.62959e-14 1.00068 0
5.10262e-14 1.00068 0
-5.38548e-14 1.00073 0
6.13959e-15 1.00073 0
-5.76392e-14 1.00071 0
1.1981e-15 1.00071 0
6.13959e-15 1.00073 0
-4.77246e-15 1.00073 0
1.1981e-15 1.00071 0
3.50447e-15 1.00071 0
5.33924e-14 1.00071 0
-1.01259e-14 1.00071 0
5.10262e-14 1.00068 0
-1.07038e-14 1.00068 0
-1.01259e-14 1.00071 0
-8.82508e-15 1.00071 0
-1.07038e-14 1.00068 0
1.04181e-14 1.00068 0
-7.42417e-15 1.00078 0
-1.08601e-14 1.00078 0
7.28514e-15 1.00076 0
2.05107e-15 1.00076 0
-1.08601e-14 1.00078 0
-3.55826e-15 1.00078 0
2.05107e-15 1.00076 0
1.15812e-14 1.00076 0
-1.03989e-14 1.00076 0
6.23012e-15 1.00076 0
7.77496e-15 1.00073 0
-3.74723e-15 1.00073 0
6.23012e-15 1.00076 0
-5.40154e-15 1.00076 0
-3.74723e-15 1.00073 0
3.96327e-15 1.00073 0
-3.55826e-15 1.00078 0
-9.62393e-16 1.00078 0
1.15812e-14 1.00076 0
9.2145e-15 1.00076 0
-9.62393e-16 1.00078 0
-1.34307e-14 1.00078 0
9.2145e-15 1.00076 0
9.20388e-15 1.00076 0
-5.40154e-15 1.00076 0
-3.93637e-15 1.00076 0
3.96327e-15 1.00073 0
-2.65371e-15 1.00073 0
-3.93637e-15 1.00076 0
-6.08406e-15 1.00076 0
-2.65371e-15 1.00073 0
1.03707e-15 1.00073 0
-4.77246e-15 1.00073 0
-1.02925e-14 1.00073 0
3.50447e-15 1.00071 0
2.46158e-15 1.00071 0
-1.02925e-14 1.00073 0
-1.27275e-14 1.00073 0
2.46158e-15 1.00071 0
6.26488e-15 1.00071 0
-8.82508e-15 1.00071 0
8.48788e-15 1.00071 0
1.04181e-14 1.00068 0
9.93735e-16 1.00068 0
8.48788e-15 1.00071 0
-4.91441e-15 1.00071 0
9.93735e-16 1.00068 0
1.10078e-14 1.00068 0
-1.27275e-14 1.00073 0
-3.19616e-15 1.00073 0
6.26488e-15 1.00071 0
-5.19038e-15 1.00071 0
-3.19616e-15 1.00073 0
-7.45733e-15 1.00073 0
-5.19038e-15 1.00071 0
4.04885e-15 1.00071 0
-4.91441e-15 1.00071 0
6.03385e-15 1.00071 0
1.10078e-14 1.00068 0
5.34103e-15 1.00068 0
6.03385e-15 1.00071 0
-8.02243e-15 1.00071 0
5.34103e-15 1.00068 0
2.02684e-14 1.00068 0
7.13204e-15 1 0
1.41806e-14 1 0
7.45409e-15 1.00101 0
-4.10149e-15 1.00101 0
1.41806e-14 1 0
6.35584e-15 1 0
-4.10149e-15 1.00101 0
6.4958e-15 1.00101 0
-3.93976e-15 1.00101 0
-4.89367e-15 1.00101 0
-7.85727e-16 1.00078 0
1.08874e-14 1.00078 0
-4.89367e-15 1.00101 0
-7.57945e-15 1.00101 0
1.08874e-14 1.00078 0
7.95647e-15 1.00078 0
6.35584e-15 1 0
4.37308e-15 1 0
6.4958e-15 1.00101 0
1.08339e-15 1.00101 0
4.37308e-15 1 0
-2.61873e-15 1 0
1.08339e-15 1.00101 0
1.21777e-14 1.00101 0
-7.57945e-15 1.00101 0
8.37366e-15 1.00101 0
7.95647e-15 1.00078 0
5.11577e-16 1.00078 0
8.37366e-15 1.00101 0
2.35409e-15 1.00101 0
5.11577e-16 1.00078 0
-4.7717e-15 1.00078 0
-2.72312e-15 1.00078 0
-4.79591e-15 1.00078 0
3.95025e-15 1.00083 0
-6.96294e-15 1.00083 0
-4.79591e-15 1.00078 0
-1.06002e-14 1.00078 0
-6.96294e-15 1.00083 0
1.06237e-14 1.00083 0
2.01737e-15 1.00083 0
1.27649e-14 1.00083 0
6.48681e-15 1.00078 0
-2.45976e-15 1.00078 0
1.27649e-14 1.00083 0
-6.53539e-15 1.00083 0
-2.45976e-15 1.00078 0
1.73571e-14 1.00078 0
-1.06002e-14 1.00078 0
-6.29563e-15 1.00078 0
1.06237e-14 1.00083 0
4.85318e-15 1.00083 0
-6.29563e-15 1.00078 0
6.24933e-15 1.00078 0
4.85318e-15 1.00083 0
1.1518e-14 1.00083 0
-6.53539e-15 1.00083 0
-1.88201e-15 1.00083 0
1.73571e-14 1.00078 0
9.70053e-15 1.00078 0
-1.88201e-15 1.00083 0
-1.0001e-14 1.00083 0
9.70053e-15 1.00078 0
9.79428e-15 1.00078 0
-2.61873e-15 1 0
9.42477e-15 1 0
1.21777e-14 1.00101 0
-6.3046e-15 1.00101 0
9.42477e-15 1 0
-1.88119e-15 1 0
-6.3046e-15 1.00101 0
1.0077e-14 1.00101 0
2.35409e-15 1.00101 0
1.05674e-14 1.00101 0
-4.7717e-15 1.00078 0
-9.40454e-15 1.00078 0
1.05674e-14 1.00101 0
1.31102e-16 1.00101 0
-9.40454e-15 1.00078 0
1.01992e-15 1.00078 0
-1.88119e-15 1 0
2.66936e-15 1 0
1.0077e-14 1.00101 0
1.05617e-14 1.00101 0
2.66936e-15 1 0
3.2052e-15 1 0
1.05617e-14 1.00101 0
1.57237e-14 1.00101 0
1.31102e-16 1.00101 0
-1.33566e-14 1.00101 0
1.01992e-15 1.00078 0
1.33971e-14 1.00078 0
-1.33566e-14 1.00101 0
-9.38967e-15 1.00101 0
1.33971e-14 1.00078 0
1.3132e-14 1.00078 0
6.24933e-15 1.00078 0
1.41579e-14 1.00078 0
1.1518e-14 1.00083 0
1.98915e-15 1.00083 0
1.41579e-14 1.00078 0
1.50939e-15 1.00078 0
1.98915e-15 1.00083 0
1.1373e-14 1.00083 0
-1.0001e-14 1.00083 0
-4.62542e-15 1.00083 0
9.79428e-15 1.00078 0
9.51588e-15 1.00078 0
-4.62542e-15 1.00083 0
1.39536e-15 1.00083 0
9.51588e-15 1.00078 0
1.38194e-16 1.00078 0
1.50939e-15 1.00078 0
-4.36766e-15 1.00078 0
1.1373e-14 1.00083 0
1.95797e-14 1.00083 0
-4.36766e-15 1.00078 0
-9.04398e-15 1.00078 0
1.95797e-14 1.00083 0
1.52069e-14 1.00083 0
1.39536e-15 1.00083 0
-1.72244e-14 1.00083 0
1.38194e-16 1.00078 0
1.37871e-14 1.00078 0
-1.72244e-14 1.00083 0
-1.96149e-14 1.00083 0
1.37871e-14 1.00078 0
2.20084e-14 1.00078 0
-1.34307e-14 1.00078 0
-1.02814e-14 1.00078 0
9.20388e-15 1.00076 0
1.31707e-14 1.00076 0
-1.02814e-14 1.00078 0
-1.88935e-14 1.00078 0
1.31707e-14 1.00076 0
1.05255e-14 1.00076 0
-6.08406e-15 1.00076 0
-9.48163e-15 1.00076 0
1.03707e-15 1.00073 0
3.11949e-15 1.00073 0
-9.48163e-15 1.00076 0
-6.76256e-15 1.00076 0
3.11949e-15 1.00073 0
4.11143e-15 1.00073 0
-1.88935e-14 1.00078 0
-1.49771e-14 1.00078 0
1.05255e-14 1.00076 0
3.21484e-15 1.00076 0
-1.49771e-14 1.00078 0
-1.15829e-14 1.00078 0
3.21484e-15 1.00076 0
1.79356e-15 1.00076 0
-6.76256e-15 1.00076 0
-1.40534e-15 1.00076 0
4.11143e-15 1.00073 0
1.13688e-14 1.00073 0
-1.40534e-15 1.00076 0
-3.52046e-16 1.00076 0
1.13688e-14 1.00073 0
5.16029e-15 1.00073 0
-7.45733e-15 1.00073 0
-4.60792e-15 1.00073 0
4.04885e-15 1.00071 0
4.80238e-15 1.00071 0
-4.60792e-15 1.00073 0
-9.92779e-15 1.00073 0
4.80238e-15 1.00071 0
1.80169e-14 1.00071 0
-8.02243e-15 1.00071 0
-4.86206e-15 1.00071 0
2.02684e-14 1.00068 0
9.32059e-15 1.00068 0
-4.86206e-15 1.00071 0
-9.97369e-15 1.00071 0
9.32059e-15 1.00068 0
3.8871e-15 1.00068 0
-9.92779e-15 1.00073 0
-1.32003e-14 1.00073 0
1.80169e-14 1.00071 0
4.40563e-15 1.00071 0
-1.32003e-14 1.00073 0
-5.37968e-15 1.00073 0
4.40563e-15 1.00071 0
-7.04285e-16 1.00071 0
-9.97369e-15 1.00071 0
-2.51862e-15 1.00071 0
3.8871e-15 1.00068 0
9.12093e-15 1.00068 0
-2.51862e-15 1.00071 0
-1.69909e-15 1.00071 0
9.12093e-15 1.00068 0
1.43927e-14 1.00068 0
-1.15829e-14 1.00078 0
-8.61436e-15 1.00078 0
1.79356e-15 1.00076 0
7.21704e-16 1.00076 0
-8.61436e-15 1.00078 0
-4.5905e-15 1.00078 0
7.21704e-16 1.00076 0
1.17108e-14 1.00076 0
-3.52046e-16 1.00076 0
-5.69041e-16 1.00076 0
5.16029e-15 1.00073 0
-3.7605e-15 1.00073 0
-5.69041e-16 1.00076 0
-1.78637e-14 1.00076 0
-3.7605e-15 1.00073 0
5.7335e-15 1.00073 0
-4.5905e-15 1.00078 0
-7.37283e-15 1.00078 0
1.17108e-14 1.00076 0
1.17959e-14 1.00076 0
-7.37283e-15 1.00078 0
-1.53904e-14 1.00078 0
1.17959e-14 1.00076 0
1.91338e-14 1.00076 0
-1.78637e-14 1.00076 0
-3.42693e-15 1.00076 0
5.7335e-15 1.00073 0
-2.66929e-15 1.00073 0
-3.42693e-15 1.00076 0
-1.06514e-14 1.00076 0
-2.66929e-15 1.00073 0
3.59926e-15 1.00073 0
-5.37968e-15 1.00073 0
-2.79942e-15 1.00073 0
-7.04285e-16 1.00071 0
8.51428e-15 1.00071 0
-2.79942e-15 1.00073 0
1.02044e-15 1.00073 0
8.51428e-15 1.00071 0
2.60073e-15 1.00071 0
-1.69909e-15 1.00071 0
2.69282e-15 1.00071 0
1.43927e-14 1.00068 0
2.69056e-15 1.00068 0
2.69282e-15 1.00071 0
1.90255e-15 1.00071 0
2.69056e-15 1.00068 0
4.68181e-15 1.00068 0
1.02044e-15 1.00073 0
1.24131e-16 1.00073 0
2.60073e-15 1.00071 0
1.24019e-14 1.00071 0
1.24131e-16 1.00073 0
2.25793e-15 1.00073 0
1.24019e-14 1.00071 0
-1.65628e-15 1.00071 0
1.90255e-15 1.00071 0
-9.96559e-15 1.00071 0
4.68181e-15 1.00068 0
5.19313e-15 1.00068 0
-9.96559e-15 1.00071 0
8.98155e-15 1.00071 0
5.19313e-15 1.00068 0
-6.46179e-16 1.00068 0
0 1.00068 0
-8.23526e-14 1.00068 0
0 1.00066 0
-8.49002e-14 1.00066 0
-8.23526e-14 1.00068 0
-9.36939e-15 1.00068 0
-8.49002e-14 1.00066 0
3.39063e-16 1.00066 0
0 1.00066 0
7.68617e-14 1.00066 0
0 1.00063 0
7.63579e-14 1.00063 0
7.68617e-14 1.00066 0
-4.40267e-15 1.00066 0
7.63579e-14 1.00063 0
-1.06555e-14 1.00063 0
-9.36939e-15 1.00068 0
1.68614e-14 1.00068 0
3.39063e-16 1.00066 0
7.53486e-15 1.00066 0
1.68614e-14 1.00068 0
-8.46974e-15 1.00068 0
7.53486e-15 1.00066 0
3.19919e-15 1.00066 0
-4.40267e-15 1.00066 0
-1.10163e-14 1.00066 0
-1.06555e-14 1.00063 0
-2.44508e-15 1.00063 0
-1.10163e-14 1.00066 0
1.08429e-14 1.00066 0
-2.44508e-15 1.00063 0
4.98609e-15 1.00063 0
0 1.00063 0
-4.84799e-14 1.00063 0
0 1.00061 0
-6.11003e-14 1.00061 0
-4.84799e-14 1.00063 0
-1.68772e-14 1.00063 0
-6.11003e-14 1.00061 0
1.05177e-15 1.00061 0
0 1.00061 0
5.66055e-14 1.00061 0
0 1.00058 0
4.56006e-14 1.00058 0
5.66055e-14 1.00061 0
3.40349e-14 1.00061 0
4.56006e-14 1.00058 0
3.61738e-14 1.00058 0
-1.68772e-14 1.00063 0
1.94337e-16 1.00063 0
1.05177e-15 1.00061 0
1.66677e-14 1.00061 0
1.94337e-16 1.00063 0
-2.96527e-15 1.00063 0
1.66677e-14 1.00061 0
-1.50418e-15 1.00061 0
3.40349e-14 1.00061 0
-1.92882e-14 1.00061 0
3.61738e-14 1.00058 0
-1.59836e-14 1.00058 0
-1.92882e-14 1.00061 0
1.60009e-15 1.00061 0
-1.59836e-14 1.00058 0
-7.93642e-15 1.00058 0
-8.46974e-15 1.00068 0
7.7713e-15 1.00068 0
3.19919e-15 1.00066 0
-7.92222e-15 1.00066 0
7.7713e-15 1.00068 0
-1.13345e-14 1.00068 0
-7.92222e-15 1.00066 0
1.29647e-14 1.00066 0
1.08429e-14 1.00066 0
-6.9233e-18 1.00066 0
4.98609e-15 1.00063 0
7.73396e-15 1.00063 0
-6.9233e-18 1.00066 0
-4.30278e-15 1.00066 0
7.73396e-15 1.00063 0
1.29016e-15 1.00063 0
-1.13345e-14 1.00068 0
-6.06907e-15 1.00068 0
1.29647e-14 1.00066 0
8.80146e-15 1.00066 0
-6.06907e-15 1.00068 0
-1.05732e-14 1.00068 0
8.80146e-15 1.00066 0
5.1364e-15 1.00066 0
-4.30278e-15 1.00066 0
-1.17426e-15 1.00066 0
1.29016e-15 1.00063 0
4.47644e-16 1.00063 0
-1.17426e-15 1.00066 0
-2.3735e-15 1.00066 0
4.47644e-16 1.00063 0
1.08124e-14 1.00063 0
-2.96527e-15 1.00063 0
3.7629e-15 1.00063 0
-1.50418e-15 1.00061 0
-6.31006e-15 1.00061 0
3.7629e-15 1.00063 0
3.83893e-15 1.00063 0
-6.31006e-15 1.00061 0
2.03569e-15 1.00061 0
1.60009e-15 1.00061 0
-2.79855e-15 1.00061 0
-7.93642e-15 1.00058 0
-8.87866e-15 1.00058 0
-2.79855e-15 1.00061 0
-9.44029e-15 1.00061 0
-8.87866e-15 1.00058 0
1.1217e-14 1.00058 0
3.83893e-15 1.00063 0
1.27835e-15 1.00063 0
2.03569e-15 1.00061 0
-1.73648e-15 1.00061 0
1.27835e-15 1.00063 0
-7.56598e-15 1.00063 0
-1.73648e-15 1.00061 0
2.23373e-15 1.00061 0
-9.44029e-15 1.00061 0
4.67071e-15 1.00061 0
1.1217e-14 1.00058 0
6.68054e-16 1.00058 0
4.67071e-15 1.00061 0
1.33175e-15 1.00061 0
6.68054e-16 1.00058 0
8.72115e-15 1.00058 0
0 1.00058 0
-4.29728e-14 1.00058 0
0 1.00056 0
-7.00851e-14 1.00056 0
-4.29728e-14 1.00058 0
-5.82787e-14 1.00058 0
-7.00851e-14 1.00056 0
-4.79821e-14 1.00056 0
0 1.00056 0
7.7121e-14 1.00056 0
0 1.00053 0
5.18602e-14 1.00053 0
7.7121e-14 1.00056 0
2.58594e-14 1.00056 0
5.18602e-14 1.00053 0
2.57258e-14 1.00053 0
-5.82787e-14 1.00058 0
4.10347e-14 1.00058 0
-4.79821e-14 1.00056 0
4.22059e-14 1.00056 0
4.10347e-14 1.00058 0
1.68785e-14 1.00058 0
4.22059e-14 1.00056 0
3.70235e-14 1.00056 0
2.58594e-14 1.00056 0
-3.73184e-14 1.00056 0
2.57258e-14 1.00053 0
-3.15579e-14 1.00053 0
-3.73184e-14 1.00056 0
3.94648e-15 1.00056 0
-3.15579e-14 1.00053 0
1.8085e-14 1.00053 0
0 1.00053 0
-6.18622e-14 1.00053 0
0 1.00051 0
-6.30035e-14 1.00051 0
-6.18622e-14 1.00053 0
3.56491e-14 1.00053 0
-6.30035e-14 1.00051 0
1.36486e-14 1.00051 0
0 1.00051 0
3.51385e-14 1.00051 0
0 1.00049 0
2.84909e-14 1.00049 0
3.51385e-14 1.00051 0
-2.61612e-14 1.00051 0
2.84909e-14 1.00049 0
-3.86906e-14 1.00049 0
3.56491e-14 1.00053 0
1.2381e-14 1.00053 0
1.36486e-14 1.00051 0
2.05424e-14 1.00051 0
1.2381e-14 1.00053 0
-4.94854e-14 1.00053 0
2.05424e-14 1.00051 0
-3.04776e-14 1.00051 0
-2.61612e-14 1.00051 0
-1.88036e-14 1.00051 0
-3.86906e-14 1.00049 0
-9.66381e-15 1.00049 0
-1.88036e-14 1.00051 0
-1.21745e-14 1.00051 0
-9.66381e-15 1.00049 0
3.28022e-15 1.00049 0
1.68785e-14 1.00058 0
6.16878e-15 1.00058 0
3.70235e-14 1.00056 0
2.83221e-15 1.00056 0
6.16878e-15 1.00058 0
-7.77301e-15 1.00058 0
2.83221e-15 1.00056 0
1.18615e-14 1.00056 0
3.94648e-15 1.00056 0
2.3518e-14 1.00056 0
1.8085e-14 1.00053 0
3.4955e-14 1.00053 0
2.3518e-14 1.00056 0
-6.27322e-15 1.00056 0
3.4955e-14 1.00053 0
1.49288e-15 1.00053 0
-7.77301e-15 1.00058 0
1.58403e-15 1.00058 0
1.18615e-14 1.00056 0
7.68266e-15 1.00056 0
1.58403e-15 1.00058 0
-1.30965e-14 1.00058 0
7.68266e-15 1.00056 0
1.71284e-14 1.00056 0
-6.27322e-15 1.00056 0
-5.03074e-15 1.00056 0
1.49288e-15 1.00053 0
-5.83659e-16 1.00053 0
-5.03074e-15 1.00056 0
-1.25387e-14 1.00056 0
-5.83659e-16 1.00053 0
1.22424e-14 1.00053 0
-4.94854e-14 1.00053 0
-4.27857e-14 1.00053 0
-3.04776e-14 1.00051 0
-1.964e-14 1.00051 0
-4.27857e-14 1.00053 0
-2.8844e-15 1.00053 0
-1.964e-14 1.00051 0
6.62008e-15 1.00051 0
-1.21745e-14 1.00051 0
3.36694e-15 1.00051 0
3.28022e-15 1.00049 0
2.0838e-14 1.00049 0
3.36694e-15 1.00051 0
1.99007e-15 1.00051 0
2.0838e-14 1.00049 0
7.35743e-15 1.00049 0
-2.8844e-15 1.00053 0
-3.09743e-15 1.00053 0
6.62008e-15 1.00051 0
3.64969e-15 1.00051 0
-3.09743e-15 1.00053 0
-1.04444e-14 1.00053 0
3.64969e-15 1.00051 0
3.00535e-15 1.00051 0
1.99007e-15 1.00051 0
-5.57791e-15 1.00051 0
7.35743e-15 1.00049 0
8.38327e-15 1.00049 0
-5.57791e-15 1.00051 0
7.25e-16 1.00051 0
8.38327e-15 1.00049 0
8.87477e-15 1.00049 0
-1.05732e-14 1.00068 0
-1.04825e-14 1.00068 0
5.1364e-15 1.00066 0
7.6504e-15 1.00066 0
-1.04825e-14 1.00068 0
-5.45617e-16 1.00068 0
7.6504e-15 1.00066 0
3.92235e-15 1.00066 0
-2.3735e-15 1.00066 0
-7.05467e-15 1.00066 0
1.08124e-14 1.00063 0
1.72381e-14 1.00063 0
-7.05467e-15 1.00066 0
-5.8026e-15 1.00066 0
1.72381e-14 1.00063 0
7.88301e-15 1.00063 0
-5.45617e-16 1.00068 0
-4.19897e-15 1.00068 0
3.92235e-15 1.00066 0
1.1207e-14 1.00066 0
-4.19897e-15 1.00068 0
-2.53064e-15 1.00068 0
1.1207e-14 1.00066 0
6.93569e-15 1.00066 0
-5.8026e-15 1.00066 0
-6.13417e-15 1.00066 0
7.88301e-15 1.00063 0
7.96099e-15 1.00063 0
-6.13417e-15 1.00066 0
-1.21657e-15 1.00066 0
7.96099e-15 1.00063 0
1.11966e-15 1.00063 0
-7.56598e-15 1.00063 0
-6.44049e-15 1.00063 0
2.23373e-15 1.00061 0
7.37453e-15 1.00061 0
-6.44049e-15 1.00063 0
-1.65405e-15 1.00063 0
7.37453e-15 1.00061 0
4.27859e-15 1.00061 0
1.33175e-15 1.00061 0
1.73288e-16 1.00061 0
8.72115e-15 1.00058 0
2.36679e-15 1.00058 0
1.73288e-16 1.00061 0
4.33993e-16 1.00061 0
2.36679e-15 1.00058 0
1.9588e-15 1.00058 0
-1.65405e-15 1.00063 0
-8.44969e-15 1.00063 0
4.27859e-15 1.00061 0
2.38901e-15 1.00061 0
-8.44969e-15 1.00063 0
-7.8995e-15 1.00063 0
2.38901e-15 1.00061 0
1.24927e-14 1.00061 0
4.33993e-16 1.00061 0
5.57999e-15 1.00061 0
1.9588e-15 1.00058 0
2.90309e-15 1.00058 0
5.57999e-15 1.00061 0
-9.74276e-15 1.00061 0
2.90309e-15 1.00058 0
1.91488e-14 1.00058 0
-2.53064e-15 1.00068 0
4.97403e-16 1.00068 0
6.93569e-15 1.00066 0
4.24154e-15 1.00066 0
4.97403e-16 1.00068 0
2.96552e-15 1.00068 0
4.24154e-15 1.00066 0
2.89559e-15 1.00066 0
-1.21657e-15 1.00066 0
-6.42405e-16 1.00066 0
1.11966e-15 1.00063 0
7.3618e-15 1.00063 0
-6.42405e-16 1.00066 0
-3.07931e-15 1.00066 0
7.3618e-15 1.00063 0
6.92998e-15 1.00063 0
2.96552e-15 1.00068 0
1.52728e-15 1.00068 0
2.89559e-15 1.00066 0
3.91383e-15 1.00066 0
1.52728e-15 1.00068 0
1.28102e-15 1.00068 0
3.91383e-15 1.00066 0
-2.19787e-15 1.00066 0
-3.07931e-15 1.00066 0
1.14812e-15 1.00066 0
6.92998e-15 1.00063 0
-2.31237e-15 1.00063 0
1.14812e-15 1.00066 0
4.25051e-16 1.00066 0
-2.31237e-15 1.00063 0
3.55252e-15 1.00063 0
-7.8995e-15 1.00063 0
-3.23501e-15 1.00063 0
1.24927e-14 1.00061 0
-1.42005e-15 1.00061 0
-3.23501e-15 1.00063 0
-5.16793e-15 1.00063 0
-1.42005e-15 1.00061 0
-9.79027e-17 1.00061 0
-9.74276e-15 1.00061 0
-5.65564e-16 1.00061 0
1.91488e-14 1.00058 0
5.01408e-15 1.00058 0
-5.65564e-16 1.00061 0
6.69292e-15 1.00061 0
5.01408e-15 1.00058 0
-6.42341e-15 1.00058 0
-5.16793e-15 1.00063 0
1.99416e-15 1.00063 0
-9.79027e-17 1.00061 0
5.34296e-15 1.00061 0
1.99416e-15 1.00063 0
-7.66691e-15 1.00063 0
5.34296e-15 1.00061 0
9.23251e-15 1.00061 0
6.69292e-15 1.00061 0
1.8819e-15 1.00061 0
-6.42341e-15 1.00058 0
2.6316e-15 1.00058 0
1.8819e-15 1.00061 0
5.351e-15 1.00061 0
2.6316e-15 1.00058 0
-6.6094e-15 1.00058 0
-1.30965e-14 1.00058 0
-2.95711e-15 1.00058 0
1.71284e-14 1.00056 0
5.63307e-15 1.00056 0
-2.95711e-15 1.00058 0
-5.42901e-15 1.00058 0
5.63307e-15 1.00056 0
1.09217e-14 1.00056 0
-1.25387e-14 1.00056 0
-1.70732e-15 1.00056 0
1.22424e-14 1.00053 0
9.02419e-15 1.00053 0
-1.70732e-15 1.00056 0
-4.07656e-15 1.00056 0
9.02419e-15 1.00053 0
1.68229e-14 1.00053 0
-5.42901e-15 1.00058 0
-6.61023e-15 1.00058 0
1.09217e-14 1.00056 0
1.16135e-15 1.00056 0
-6.61023e-15 1.00058 0