# vtk DataFile Version 3.0
#This file was generated by the deal.II library on 2018/10/15 at 7:28:59
ASCII
DATASET UNSTRUCTURED_GRID

POINTS 20480 double
0 0 0
0.19635 0 0
0 0.30421 0
0.19635 0.30421 0
0.19635 0 0
0.392699 0 0
0.19635 0.30421 0
0.392699 0.30421 0
0 0.30421 0
0.19635 0.30421 0
0 0.617007 0
0.19635 0.617007 0
0.19635 0.30421 0
0.392699 0.30421 0
0.19635 0.617007 0
0.392699 0.617007 0
0.392699 0 0
0.589049 0 0
0.392699 0.30421 0
0.589049 0.30421 0
0.589049 0 0
0.785398 0 0
0.589049 0.30421 0
0.785398 0.30421 0
0.392699 0.30421 0
0.589049 0.30421 0
0.392699 0.617007 0
0.589049 0.617007 0
0.589049 0.30421 0
0.785398 0.30421 0
0.589049 0.617007 0
0.785398 0.617007 0
0 0.617007 0
0.19635 0.617007 0
0 0.929559 0
0.19635 0.929559 0
0.19635 0.617007 0
0.392699 0.617007 0
0.19635 0.929559 0
0.392699 0.929559 0
0 0.929559 0
0.19635 0.929559 0
0 1.24244 0
0.19635 1.24244 0
0.19635 0.929559 0
0.392699 0.929559 0
0.19635 1.24244 0
0.392699 1.24244 0
0.392699 0.617007 0
0.589049 0.617007 0
0.392699 0.929559 0
0.589049 0.929559 0
0.589049 0.617007 0
0.785398 0.617007 0
0.589049 0.929559 0
0.785398 0.929559 0
0.392699 0.929559 0
0.589049 0.929559 0
0.392699 1.24244 0
0.589049 1.24244 0
0.589049 0.929559 0
0.785398 0.929559 0
0.589049 1.24244 0
0.785398 1.24244 0
0.785398 0 0
0.981748 0 0
0.785398 0.30421 0
0.981748 0.30421 0
0.981748 0 0
1.1781 0 0
0.981748 0.30421 0
1.1781 0.30421 0
0.785398 0.30421 0
0.981748 0.30421 0
0.785398 0.617007 0
0.981748 0.617007 0
0.981748 0.30421 0
1.1781 0.30421 0
0.981748 0.617007 0
1.1781 0.617007 0
1.1781 0 0
1.37445 0 0
1.1781 0.30421 0
1.37445 0.30421 0
1.37445 0 0
1.5708 0 0
1.37445 0.30421 0
1.5708 0.30421 0
1.1781 0.30421 0
1.37445 0.30421 0
1.1781 0.617007 0
1.37445 0.617007 0
1.37445 0.30421 0
1.5708 0.30421 0
1.37445 0.617007 0
1.5708 0.617007 0
0.785398 0.617007 0
0.981748 0.617007 0
0.785398 0.929559 0
0.981748 0.929559 0
0.981748 0.617007 0
1.1781 0.617007 0
0.981748 0.929559 0
1.1781 0.929559 0
0.785398 0.929559 0
0.981748 0.929559 0
0.785398 1.24244 0
0.981748 1.24244 0
0.981748 0.929559 0
1.1781 0.929559 0
0.981748 1.24244 0
1.1781 1.24244 0
1.1781 0.617007 0
1.37445 0.617007 0
1.1781 0.929559 0
1.37445 0.929559 0
1.37445 0.617007 0
1.5708 0.617007 0
1.37445 0.929559 0
1.5708 0.929559 0
1.1781 0.929559 0
1.37445 0.929559 0
1.1781 1.24244 0
1.37445 1.24244 0
1.37445 0.929559 0
1.5708 0.929559 0
1.37445 1.24244 0
1.5708 1.24244 0
0 1.24244 0
0.19635 1.24244 0
0 1.55524 0
0.19635 1.55524 0
0.19635 1.24244 0
0.392699 1.24244 0
0.19635 1.55524 0
0.392699 1.55524 0
0 1.55524 0
0.19635 1.55524 0
0 1.86805 0
0.19635 1.86805 0
0.19635 1.55524 0
0.392699 1.55524 0
0.19635 1.86805 0
0.392699 1.86805 0
0.392699 1.24244 0
0.589049 1.24244 0
0.392699 1.55524 0
0.589049 1.55524 0
0.589049 1.24244 0
0.785398 1.24244 0
0.589049 1.55524 0
0.785398 1.55524 0
0.392699 1.55524 0
0.589049 1.55524 0
0.392699 1.86805 0
0.589049 1.86805 0
0.589049 1.55524 0
0.785398 1.55524 0
0.589049 1.86805 0
0.785398 1.86805 0
0 1.86805 0
0.19635 1.86805 0
0 2.18086 0
0.19635 2.18086 0
0.19635 1.86805 0
0.392699 1.86805 0
0.19635 2.18086 0
0.392699 2.18086 0
0 2.18086 0
0.19635 2.18086 0
0 2.49366 0
0.19635 2.49366 0
0.19635 2.18086 0
0.392699 2.18086 0
0.19635 2.49366 0
0.392699 2.49366 0
0.392699 1.86805 0
0.589049 1.86805 0
0.392699 2.18086 0
0.589049 2.18086 0
0.589049 1.86805 0
0.785398 1.86805 0
0.589049 2.18086 0
0.785398 2.18086 0
0.392699 2.18086 0
0.589049 2.18086 0
0.392699 2.49366 0
0.589049 2.49366 0
0.589049 2.18086 0
0.785398 2.18086 0
0.589049 2.49366 0
0.785398 2.49366 0
0.785398 1.24244 0
0.981748 1.24244 0
0.785398 1.55524 0
0.981748 1.55524 0
0.981748 1.24244 0
1.1781 1.24244 0
0.981748 1.55524 0
1.1781 1.55524 0
0.785398 1.55524 0
0.981748 1.55524 0
0.785398 1.86805 0
0.981748 1.86805 0
0.981748 1.55524 0
1.1781 1.55524 0
0.981748 1.86805 0
1.1781 1.86805 0
1.1781 1.24244 0
1.37445 1.24244 0
1.1781 1.55524 0
1.37445 1.55524 0
1.37445 1.24244 0
1.5708 1.24244 0
1.37445 1.55524 0
1.5708 1.55524 0
1.1781 1.55524 0
1.37445 1.55524 0
1.1781 1.86805 0
1.37445 1.86805 0
1.37445 1.55524 0
1.5708 1.55524 0
1.37445 1.86805 0
1.5708 1.86805 0
0.785398 1.86805 0
0.981748 1.86805 0
0.785398 2.18086 0
0.981748 2.18086 0
0.981748 1.86805 0
1.1781 1.86805 0
0.981748 2.18086 0
1.1781 2.18086 0
0.785398 2.18086 0
0.981748 2.18086 0
0.785398 2.49366 0
0.981748 2.49366 0
0.981748 2.18086 0
1.1781 2.18086 0
0.981748 2.49366 0
1.1781 2.49366 0
1.1781 1.86805 0
1.37445 1.86805 0
1.1781 2.18086 0
1.37445 2.18086 0
1.37445 1.86805 0
1.5708 1.86805 0
1.37445 2.18086 0
1.5708 2.18086 0
1.1781 2.18086 0
1.37445 2.18086 0
1.1781 2.49366 0
1.37445 2.49366 0
1.37445 2.18086 0
1.5708 2.18086 0
1.37445 2.49366 0
1.5708 2.49366 0
1.5708 0 0
1.76715 0 0
1.5708 0.30421 0
1.76715 0.30421 0
1.76715 0 0
1.9635 0 0
1.76715 0.30421 0
1.9635 0.30421 0
1.5708 0.30421 0
1.76715 0.30421 0
1.5708 0.617007 0
1.76715 0.617007 0
1.76715 0.30421 0
1.9635 0.30421 0
1.76715 0.617007 0
1.9635 0.617007 0
1.9635 0 0
2.15984 0 0
1.9635 0.30421 0
2.15984 0.30421 0
2.15984 0 0
2.35619 0 0
2.15984 0.30421 0
2.35619 0.30421 0
1.9635 0.30421 0
2.15984 0.30421 0
1.9635 0.617007 0
2.15984 0.617007 0
2.15984 0.30421 0
2.35619 0.30421 0
2.15984 0.617007 0
2.35619 0.617007 0
1.5708 0.617007 0
1.76715 0.617007 0
1.5708 0.929559 0
1.76715 0.929559 0
1.76715 0.617007 0
1.9635 0.617007 0
1.76715 0.929559 0
1.9635 0.929559 0
1.5708 0.929559 0
1.76715 0.929559 0
1.5708 1.24244 0
1.76715 1.24244 0
1.76715 0.929559 0
1.9635 0.929559 0
1.76715 1.24244 0
1.9635 1.24244 0
1.9635 0.617007 0
2.15984 0.617007 0
1.9635 0.929559 0
2.15984 0.929559 0
2.15984 0.617007 0
2.35619 0.617007 0
2.15984 0.929559 0
2.35619 0.929559 0
1.9635 0.929559 0
2.15984 0.929559 0
1.9635 1.24244 0
2.15984 1.24244 0
2.15984 0.929559 0
2.35619 0.929559 0
2.15984 1.24244 0
2.35619 1.24244 0
2.35619 0 0
2.55254 0 0
2.35619 0.30421 0
2.55254 0.30421 0
2.55254 0 0
2.74889 0 0
2.55254 0.30421 0
2.74889 0.30421 0
2.35619 0.30421 0
2.55254 0.30421 0
2.35619 0.617007 0
2.55254 0.617007 0
2.55254 0.30421 0
2.74889 0.30421 0
2.55254 0.617007 0
2.74889 0.617007 0
2.74889 0 0
2.94524 0 0
2.74889 0.30421 0
2.94524 0.30421 0
2.94524 0 0
3.14159 0 0
2.94524 0.30421 0
3.14159 0.30421 0
2.74889 0.30421 0
2.94524 0.30421 0
2.74889 0.617007 0
2.94524 0.617007 0
2.94524 0.30421 0
3.14159 0.30421 0
2.94524 0.617007 0
3.14159 0.617007 0
2.35619 0.617007 0
2.55254 0.617007 0
2.35619 0.929559 0
2.55254 0.929559 0
2.55254 0.617007 0
2.74889 0.617007 0
2.55254 0.929559 0
2.74889 0.929559 0
2.35619 0.929559 0
2.55254 0.929559 0
2.35619 1.24244 0
2.55254 1.24244 0
2.55254 0.929559 0
2.74889 0.929559 0
2.55254 1.24244 0
2.74889 1.24244 0
2.74889 0.617007 0
2.94524 0.617007 0
2.74889 0.929559 0
2.94524 0.929559 0
2.94524 0.617007 0
3.14159 0.617007 0
2.94524 0.929559 0
3.14159 0.929559 0
2.74889 0.929559 0
2.94524 0.929559 0
2.74889 1.24244 0
2.94524 1.24244 0
2.94524 0.929559 0
3.14159 0.929559 0
2.94524 1.24244 0
3.14159 1.24244 0
1.5708 1.24244 0
1.76715 1.24244 0
1.5708 1.55524 0
1.76715 1.55524 0
1.76715 1.24244 0
1.9635 1.24244 0
1.76715 1.55524 0
1.9635 1.55524 0
1.5708 1.55524 0
1.76715 1.55524 0
1.5708 1.86805 0
1.76715 1.86805 0
1.76715 1.55524 0
1.9635 1.55524 0
1.76715 1.86805 0
1.9635 1.86805 0
1.9635 1.24244 0
2.15984 1.24244 0
1.9635 1.55524 0
2.15984 1.55524 0
2.15984 1.24244 0
2.35619 1.24244 0
2.15984 1.55524 0
2.35619 1.55524 0
1.9635 1.55524 0
2.15984 1.55524 0
1.9635 1.86805 0
2.15984 1.86805 0
2.15984 1.55524 0
2.35619 1.55524 0
2.15984 1.86805 0
2.35619 1.86805 0
1.5708 1.86805 0
1.76715 1.86805 0
1.5708 2.18086 0
1.76715 2.18086 0
1.76715 1.86805 0
1.9635 1.86805 0
1.76715 2.18086 0
1.9635 2.18086 0
1.5708 2.18086 0
1.76715 2.18086 0
1.5708 2.49366 0
1.76715 2.49366 0
1.76715 2.18086 0
1.9635 2.18086 0
1.76715 2.49366 0
1.9635 2.49366 0
1.9635 1.86805 0
2.15984 1.86805 0
1.9635 2.18086 0
2.15984 2.18086 0
2.15984 1.86805 0
2.35619 1.86805 0
2.15984 2.18086 0
2.35619 2.18086 0
1.9635 2.18086 0
2.15984 2.18086 0
1.9635 2.49366 0
2.15984 2.49366 0
2.15984 2.18086 0
2.35619 2.18086 0
2.15984 2.49366 0
2.35619 2.49366 0
2.35619 1.24244 0
2.55254 1.24244 0
2.35619 1.55524 0
2.55254 1.55524 0
2.55254 1.24244 0
2.74889 1.24244 0
2.55254 1.55524 0
2.74889 1.55524 0
2.35619 1.55524 0
2.55254 1.55524 0
2.35619 1.86805 0
2.55254 1.86805 0
2.55254 1.55524 0
2.74889 1.55524 0
2.55254 1.86805 0
2.74889 1.86805 0
2.74889 1.24244 0
2.94524 1.24244 0
2.74889 1.55524 0
2.94524 1.55524 0
2.94524 1.24244 0
3.14159 1.24244 0
2.94524 1.55524 0
3.14159 1.55524 0
2.74889 1.55524 0
2.94524 1.55524 0
2.74889 1.86805 0
2.94524 1.86805 0
2.94524 1.55524 0
3.14159 1.55524 0
2.94524 1.86805 0
3.14159 1.86805 0
2.35619 1.86805 0
2.55254 1.86805 0
2.35619 2.18086 0
2.55254 2.18086 0
2.55254 1.86805 0
2.74889 1.86805 0
2.55254 2.18086 0
2.74889 2.18086 0
2.35619 2.18086 0
2.55254 2.18086 0
2.35619 2.49366 0
2.55254 2.49366 0
2.55254 2.18086 0
2.74889 2.18086 0
2.55254 2.49366 0
2.74889 2.49366 0
2.74889 1.86805 0
2.94524 1.86805 0
2.74889 2.18086 0
2.94524 2.18086 0
2.94524 1.86805 0
3.14159 1.86805 0
2.94524 2.18086 0
3.14159 2.18086 0
2.74889 2.18086 0
2.94524 2.18086 0
2.74889 2.49366 0
2.94524 2.49366 0
2.94524 2.18086 0
3.14159 2.18086 0
2.94524 2.49366 0
3.14159 2.49366 0
0 2.49366 0
0.19635 2.49366 0
0 2.80646 0
0.19635 2.80646 0
0.19635 2.49366 0
0.392699 2.49366 0
0.19635 2.80646 0
0.392699 2.80646 0
0 2.80646 0
0.19635 2.80646 0
0 3.11925 0
0.19635 3.11925 0
0.19635 2.80646 0
0.392699 2.80646 0
0.19635 3.11925 0
0.392699 3.11925 0
0.392699 2.49366 0
0.589049 2.49366 0
0.392699 2.80646 0
0.589049 2.80646 0
0.589049 2.49366 0
0.785398 2.49366 0
0.589049 2.80646 0
0.785398 2.80646 0
0.392699 2.80646 0
0.589049 2.80646 0
0.392699 3.11925 0
0.589049 3.11925 0
0.589049 2.80646 0
0.785398 2.80646 0
0.589049 3.11925 0
0.785398 3.11925 0
0 3.11925 0
0.19635 3.11925 0
0 3.43203 0
0.19635 3.43203 0
0.19635 3.11925 0
0.392699 3.11925 0
0.19635 3.43203 0
0.392699 3.43203 0
0 3.43203 0
0.19635 3.43203 0
0 3.74481 0
[...]
POINT_DATA 20480
VECTORS uf double
0 1 0
-6.56837e-16 1 0
0 1.00088 0
-1.31848e-15 1.00088 0
-6.56837e-16 1 0
-3.23034e-15 1 0
-1.31848e-15 1.00088 0
4.26094e-15 1.00088 0
0 1.00088 0
-2.55292e-15 1.00088 0
0 1.00064 0
9.74295e-15 1.00064 0
-2.55292e-15 1.00088 0
-4.70094e-15 1.00088 0
9.74295e-15 1.00064 0
7.07596e-15 1.00064 0
-3.23034e-15 1 0
-8.65477e-15 1 0
4.26094e-15 1.00088 0
1.02066e-14 1.00088 0
-8.65477e-15 1 0
-1.22003e-14 1 0
1.02066e-14 1.00088 0
1.96558e-15 1.00088 0
-4.70094e-15 1.00088 0
-1.52128e-14 1.00088 0
7.07596e-15 1.00064 0
1.06325e-14 1.00064 0
-1.52128e-14 1.00088 0
-2.28895e-15 1.00088 0
1.06325e-14 1.00064 0
1.97632e-14 1.00064 0
0 1.00064 0
-1.37499e-14 1.00064 0
0 1.00068 0
2.34503e-14 1.00068 0
-1.37499e-14 1.00064 0
-1.04716e-14 1.00064 0
2.34503e-14 1.00068 0
5.49752e-15 1.00068 0
0 1.00068 0
-1.73904e-14 1.00068 0
0 1.00064 0
-8.00018e-15 1.00064 0
-1.73904e-14 1.00068 0
-7.91652e-15 1.00068 0
-8.00018e-15 1.00064 0
1.03718e-14 1.00064 0
-1.04716e-14 1.00064 0
-6.82036e-15 1.00064 0
5.49752e-15 1.00068 0
2.03054e-14 1.00068 0
-6.82036e-15 1.00064 0
-1.1246e-14 1.00064 0
2.03054e-14 1.00068 0
1.08948e-14 1.00068 0
-7.91652e-15 1.00068 0
-1.15921e-14 1.00068 0
1.03718e-14 1.00064 0
1.40457e-14 1.00064 0
-1.15921e-14 1.00068 0
-1.09643e-14 1.00068 0
1.40457e-14 1.00064 0
1.65398e-14 1.00064 0
-1.22003e-14 1 0
-1.84127e-14 1 0
1.96558e-15 1.00088 0
1.24437e-14 1.00088 0
-1.84127e-14 1 0
-1.04988e-14 1 0
1.24437e-14 1.00088 0
4.14894e-15 1.00088 0
-2.28895e-15 1.00088 0
-1.09992e-14 1.00088 0
1.97632e-14 1.00064 0
1.87653e-14 1.00064 0
-1.09992e-14 1.00088 0
2.00663e-15 1.00088 0
1.87653e-14 1.00064 0
2.79512e-15 1.00064 0
-1.04988e-14 1 0
-1.13718e-14 1 0
4.14894e-15 1.00088 0
6.9821e-15 1.00088 0
-1.13718e-14 1 0
-3.72394e-15 1 0
6.9821e-15 1.00088 0
6.05544e-15 1.00088 0
2.00663e-15 1.00088 0
-8.24576e-15 1.00088 0
2.79512e-15 1.00064 0
1.91297e-14 1.00064 0
-8.24576e-15 1.00088 0
-1.18458e-14 1.00088 0
1.91297e-14 1.00064 0
7.71676e-15 1.00064 0
-1.1246e-14 1.00064 0
-1.87155e-15 1.00064 0
1.08948e-14 1.00068 0
2.26703e-15 1.00068 0
-1.87155e-15 1.00064 0
5.69841e-15 1.00064 0
2.26703e-15 1.00068 0
4.86283e-15 1.00068 0
-1.09643e-14 1.00068 0
5.81634e-15 1.00068 0
1.65398e-14 1.00064 0
-2.34561e-15 1.00064 0
5.81634e-15 1.00068 0
-3.06122e-15 1.00068 0
-2.34561e-15 1.00064 0
4.47019e-15 1.00064 0
5.69841e-15 1.00064 0
-1.76211e-14 1.00064 0
4.86283e-15 1.00068 0
2.09434e-14 1.00068 0
-1.76211e-14 1.00064 0
6.13247e-15 1.00064 0
2.09434e-14 1.00068 0
-1.08343e-15 1.00068 0
-3.06122e-15 1.00068 0
-5.73926e-15 1.00068 0
4.47019e-15 1.00064 0
2.57835e-15 1.00064 0
-5.73926e-15 1.00068 0
1.41587e-16 1.00068 0
2.57835e-15 1.00064 0
2.43284e-15 1.00064 0
0 1.00064 0
9.51679e-15 1.00064 0
0 1.00063 0
-2.2368e-15 1.00063 0
9.51679e-15 1.00064 0
-6.73036e-15 1.00064 0
-2.2368e-15 1.00063 0
8.36751e-15 1.00063 0
0 1.00063 0
1.91666e-15 1.00063 0
0 1.0006 0
-4.87453e-15 1.0006 0
1.91666e-15 1.00063 0
5.85355e-15 1.00063 0
-4.87453e-15 1.0006 0
8.87923e-15 1.0006 0
-6.73036e-15 1.00064 0
-3.01293e-14 1.00064 0
8.36751e-15 1.00063 0
2.90799e-14 1.00063 0
-3.01293e-14 1.00064 0
-1.52964e-14 1.00064 0
2.90799e-14 1.00063 0
5.70941e-15 1.00063 0
5.85355e-15 1.00063 0
-2.40015e-14 1.00063 0
8.87923e-15 1.0006 0
1.82937e-14 1.0006 0
-2.40015e-14 1.00063 0
3.36909e-16 1.00063 0
1.82937e-14 1.0006 0
1.07329e-15 1.0006 0
0 1.0006 0
2.79807e-15 1.0006 0
0 1.00058 0
-3.80885e-15 1.00058 0
2.79807e-15 1.0006 0
-9.41832e-15 1.0006 0
-3.80885e-15 1.00058 0
-3.38713e-14 1.00058 0
0 1.00058 0
2.333e-14 1.00058 0
0 1.00056 0
5.1335e-15 1.00056 0
2.333e-14 1.00058 0
1.99428e-14 1.00058 0
5.1335e-15 1.00056 0
1.21293e-14 1.00056 0
-9.41832e-15 1.0006 0
-9.41134e-15 1.0006 0
-3.38713e-14 1.00058 0
1.62735e-14 1.00058 0
-9.41134e-15 1.0006 0
-6.19879e-15 1.0006 0
1.62735e-14 1.00058 0
6.2465e-15 1.00058 0
1.99428e-14 1.00058 0
-2.34559e-14 1.00058 0
1.21293e-14 1.00056 0
1.73244e-14 1.00056 0
-2.34559e-14 1.00058 0
-7.96154e-15 1.00058 0
1.73244e-14 1.00056 0
1.16949e-14 1.00056 0
-1.52964e-14 1.00064 0
1.90561e-15 1.00064 0
5.70941e-15 1.00063 0
7.42855e-17 1.00063 0
1.90561e-15 1.00064 0
-5.12806e-15 1.00064 0
7.42855e-17 1.00063 0
6.24539e-15 1.00063 0
3.36909e-16 1.00063 0
5.54583e-15 1.00063 0
1.07329e-15 1.0006 0
-7.34453e-15 1.0006 0
5.54583e-15 1.00063 0
-1.01934e-14 1.00063 0
-7.34453e-15 1.0006 0
1.22201e-14 1.0006 0
-5.12806e-15 1.00064 0
5.12626e-15 1.00064 0
6.24539e-15 1.00063 0
3.56841e-15 1.00063 0
5.12626e-15 1.00064 0
2.64825e-15 1.00064 0
3.56841e-15 1.00063 0
1.04023e-14 1.00063 0
-1.01934e-14 1.00063 0
-6.3107e-15 1.00063 0
1.22201e-14 1.0006 0
1.20536e-15 1.0006 0
-6.3107e-15 1.00063 0
-1.47748e-14 1.00063 0
1.20536e-15 1.0006 0
1.16569e-14 1.0006 0
-6.19879e-15 1.0006 0
-6.77708e-15 1.0006 0
6.2465e-15 1.00058 0
2.20982e-15 1.00058 0
-6.77708e-15 1.0006 0
-2.06465e-14 1.0006 0
2.20982e-15 1.00058 0
4.83123e-15 1.00058 0
-7.96154e-15 1.00058 0
-5.62163e-15 1.00058 0
1.16949e-14 1.00056 0
2.21541e-14 1.00056 0
-5.62163e-15 1.00058 0
-5.32752e-15 1.00058 0
2.21541e-14 1.00056 0
2.51919e-14 1.00056 0
-2.06465e-14 1.0006 0
-1.1179e-14 1.0006 0
4.83123e-15 1.00058 0
1.6948e-14 1.00058 0
-1.1179e-14 1.0006 0
-2.01066e-14 1.0006 0
1.6948e-14 1.00058 0
1.65722e-14 1.00058 0
-5.32752e-15 1.00058 0
-1.53032e-14 1.00058 0
2.51919e-14 1.00056 0
1.66484e-14 1.00056 0
-1.53032e-14 1.00058 0
-8.9075e-15 1.00058 0
1.66484e-14 1.00056 0
1.10671e-14 1.00056 0
-3.72394e-15 1 0
-6.31347e-15 1 0
6.05544e-15 1.00088 0
7.07222e-15 1.00088 0
-6.31347e-15 1 0
2.8332e-15 1 0
7.07222e-15 1.00088 0
-5.4587e-15 1.00088 0
-1.18458e-14 1.00088 0
-1.61526e-14 1.00088 0
7.71676e-15 1.00064 0
2.04544e-14 1.00064 0
-1.61526e-14 1.00088 0
3.67216e-15 1.00088 0
2.04544e-14 1.00064 0
3.16058e-15 1.00064 0
2.8332e-15 1 0
6.99131e-16 1 0
-5.4587e-15 1.00088 0
5.07395e-15 1.00088 0
6.99131e-16 1 0
-9.2166e-15 1 0
5.07395e-15 1.00088 0
1.56903e-14 1.00088 0
3.67216e-15 1.00088 0
-1.05273e-14 1.00088 0
3.16058e-15 1.00064 0
1.85251e-14 1.00064 0
-1.05273e-14 1.00088 0
2.72978e-15 1.00088 0
1.85251e-14 1.00064 0
-1.96326e-15 1.00064 0
6.13247e-15 1.00064 0
-2.58742e-15 1.00064 0
-1.08343e-15 1.00068 0
6.17462e-15 1.00068 0
-2.58742e-15 1.00064 0
-7.75624e-15 1.00064 0
6.17462e-15 1.00068 0
1.88287e-14 1.00068 0
1.41587e-16 1.00068 0
-1.35164e-14 1.00068 0
2.43284e-15 1.00064 0
1.30141e-14 1.00064 0
-1.35164e-14 1.00068 0
-1.94728e-14 1.00068 0
1.30141e-14 1.00064 0
2.07199e-14 1.00064 0
-7.75624e-15 1.00064 0
-1.3301e-14 1.00064 0
1.88287e-14 1.00068 0
1.35321e-14 1.00068 0
-1.3301e-14 1.00064 0
-4.35825e-15 1.00064 0
1.35321e-14 1.00068 0
1.30709e-14 1.00068 0
-1.94728e-14 1.00068 0
-1.87179e-14 1.00068 0
2.07199e-14 1.00064 0
1.63002e-14 1.00064 0
-1.87179e-14 1.00068 0
-8.76892e-15 1.00068 0
1.63002e-14 1.00064 0
6.97316e-15 1.00064 0
-9.2166e-15 1 0
-3.99299e-15 1 0
1.56903e-14 1.00088 0
9.31601e-15 1.00088 0
-3.99299e-15 1 0
-9.10438e-16 1 0
9.31601e-15 1.00088 0
9.97907e-15 1.00088 0
2.72978e-15 1.00088 0
-3.01044e-15 1.00088 0
-1.96326e-15 1.00064 0
5.55119e-15 1.00064 0
-3.01044e-15 1.00088 0
-1.73364e-14 1.00088 0
5.55119e-15 1.00064 0
2.37364e-14 1.00064 0
-9.10438e-16 1 0
-3.90777e-15 1 0
9.97907e-15 1.00088 0
4.34034e-15 1.00088 0
-3.90777e-15 1 0
-1.1601e-14 1 0
4.34034e-15 1.00088 0
2.05825e-14 1.00088 0
-1.73364e-14 1.00088 0
-2.36878e-15 1.00088 0
2.37364e-14 1.00064 0
1.308e-14 1.00064 0
-2.36878e-15 1.00088 0
-7.6436e-15 1.00088 0
1.308e-14 1.00064 0
1.05663e-14 1.00064 0
-4.35825e-15 1.00064 0
2.58921e-15 1.00064 0
1.30709e-14 1.00068 0
-3.49056e-15 1.00068 0
2.58921e-15 1.00064 0
-8.80091e-15 1.00064 0
-3.49056e-15 1.00068 0
5.87162e-15 1.00068 0
-8.76892e-15 1.00068 0
1.10771e-14 1.00068 0
6.97316e-15 1.00064 0
1.25425e-15 1.00064 0
1.10771e-14 1.00068 0
-3.87054e-15 1.00068 0
1.25425e-15 1.00064 0
1.89887e-14 1.00064 0
-8.80091e-15 1.00064 0
-7.9339e-15 1.00064 0
5.87162e-15 1.00068 0
1.64445e-14 1.00068 0
-7.9339e-15 1.00064 0
1.41559e-15 1.00064 0
1.64445e-14 1.00068 0
8.08565e-15 1.00068 0
-3.87054e-15 1.00068 0
-1.74301e-14 1.00068 0
1.89887e-14 1.00064 0
2.64311e-14 1.00064 0
-1.74301e-14 1.00068 0
-1.42083e-14 1.00068 0
2.64311e-14 1.00064 0
1.83668e-14 1.00064 0
2.64825e-15 1.00064 0
-6.42848e-16 1.00064 0
1.04023e-14 1.00063 0
1.17005e-14 1.00063 0
-6.42848e-16 1.00064 0
-1.3171e-14 1.00064 0
1.17005e-14 1.00063 0
1.94955e-14 1.00063 0
-1.47748e-14 1.00063 0
-1.09608e-14 1.00063 0
1.16569e-14 1.0006 0
6.97187e-15 1.0006 0
-1.09608e-14 1.00063 0
-1.06319e-14 1.00063 0
6.97187e-15 1.0006 0
8.95406e-15 1.0006 0
-1.3171e-14 1.00064 0
-8.06505e-15 1.00064 0
1.94955e-14 1.00063 0
1.99813e-14 1.00063 0
-8.06505e-15 1.00064 0
3.38245e-15 1.00064 0
1.99813e-14 1.00063 0
1.81618e-15 1.00063 0
-1.06319e-14 1.00063 0
-2.51222e-14 1.00063 0
8.95406e-15 1.0006 0
2.409e-14 1.0006 0
-2.51222e-14 1.00063 0
-1.11179e-14 1.00063 0
2.409e-14 1.0006 0
2.16705e-14 1.0006 0
-2.01066e-14 1.0006 0
-1.83677e-14 1.0006 0
1.65722e-14 1.00058 0
2.49246e-14 1.00058 0
-1.83677e-14 1.0006 0
-2.13362e-14 1.0006 0
2.49246e-14 1.00058 0
2.67476e-14 1.00058 0
-8.9075e-15 1.00058 0
-2.49323e-14 1.00058 0
1.10671e-14 1.00056 0
2.62799e-14 1.00056 0
-2.49323e-14 1.00058 0
-3.16302e-14 1.00058 0
2.62799e-14 1.00056 0
4.06507e-14 1.00056 0
-2.13362e-14 1.0006 0
-2.90521e-14 1.0006 0
2.67476e-14 1.00058 0
3.13691e-14 1.00058 0
-2.90521e-14 1.0006 0
-2.768e-14 1.0006 0
3.13691e-14 1.00058 0
2.30184e-14 1.00058 0
-3.16302e-14 1.00058 0
-2.33796e-14 1.00058 0
4.06507e-14 1.00056 0
1.85758e-14 1.00056 0
-2.33796e-14 1.00058 0
-1.9953e-14 1.00058 0
1.85758e-14 1.00056 0
2.58393e-14 1.00056 0
3.38245e-15 1.00064 0
-5.50994e-15 1.00064 0
1.81618e-15 1.00063 0
8.92115e-15 1.00063 0
-5.50994e-15 1.00064 0
-8.91513e-15 1.00064 0
8.92115e-15 1.00063 0
8.46452e-15 1.00063 0
-1.11179e-14 1.00063 0
-3.44212e-15 1.00063 0
2.16705e-14 1.0006 0
7.97706e-15 1.0006 0
-3.44212e-15 1.00063 0
-1.89918e-14 1.00063 0
7.97706e-15 1.0006 0
2.51026e-14 1.0006 0
-8.91513e-15 1.00064 0
-2.18214e-14 1.00064 0
8.46452e-15 1.00063 0
2.58119e-14 1.00063 0
-2.18214e-14 1.00064 0
-1.40004e-15 1.00064 0
2.58119e-14 1.00063 0
-6.11124e-16 1.00063 0
-1.89918e-14 1.00063 0
-2.22563e-14 1.00063 0
2.51026e-14 1.0006 0
1.54678e-14 1.0006 0
-2.22563e-14 1.00063 0
-8.4494e-15 1.00063 0
1.54678e-14 1.0006 0
1.13891e-14 1.0006 0
-2.768e-14 1.0006 0
-1.53173e-14 1.0006 0
2.30184e-14 1.00058 0
1.59899e-14 1.00058 0
-1.53173e-14 1.0006 0
-2.17811e-14 1.0006 0
1.59899e-14 1.00058 0
1.25021e-14 1.00058 0
-1.9953e-14 1.00058 0
-1.0355e-14 1.00058 0
2.58393e-14 1.00056 0
1.17839e-14 1.00056 0
-1.0355e-14 1.00058 0
-7.91691e-15 1.00058 0
1.17839e-14 1.00056 0
1.03147e-14 1.00056 0
-2.17811e-14 1.0006 0
-1e-14 1.0006 0
1.25021e-14 1.00058 0
1.27581e-14 1.00058 0
-1e-14 1.0006 0
-8.35946e-15 1.0006 0
1.27581e-14 1.00058 0
1.14978e-14 1.00058 0
-7.91691e-15 1.00058 0
-1.32653e-14 1.00058 0
1.03147e-14 1.00056 0
1.57002e-14 1.00056 0
-1.32653e-14 1.00058 0
-6.20579e-16 1.00058 0
1.57002e-14 1.00056 0
1.19965e-14 1.00056 0
0 1.00056 0
-1.60721e-14 1.00056 0
0 1.00054 0
-3.10495e-14 1.00054 0
-1.60721e-14 1.00056 0
-4.16841e-16 1.00056 0
-3.10495e-14 1.00054 0
-7.80047e-15 1.00054 0
0 1.00054 0
2.29529e-14 1.00054 0
0 1.00052 0
1.65255e-14 1.00052 0
2.29529e-14 1.00054 0
2.55321e-15 1.00054 0
1.65255e-14 1.00052 0
4.30606e-15 1.00052 0
-4.16841e-16 1.00056 0
-8.03987e-15 1.00056 0
-7.80047e-15 1.00054 0
1.06945e-14 1.00054 0
-8.03987e-15 1.00056 0
-1.04214e-14 1.00056 0
1.06945e-14 1.00054 0
2.03297e-15 1.00054 0
2.55321e-15 1.00054 0
-1.22448e-14 1.00054 0
4.30606e-15 1.00052 0
9.02758e-15 1.00052 0
-1.22448e-14 1.00054 0
-1.81792e-15 1.00054 0
9.02758e-15 1.00052 0
1.03216e-14 1.00052 0
0 1.00052 0
-1.25924e-14 1.00052 0
0 1.0005 0
-1.47061e-14 1.0005 0
-1.25924e-14 1.00052 0
-1.52105e-14 1.00052 0
-1.47061e-14 1.0005 0
1.58129e-15 1.0005 0
0 1.0005 0
1.63046e-14 1.0005 0
0 1.00048 0
7.68285e-15 1.00048 0
1.63046e-14 1.0005 0
1.41423e-14 1.0005 0
7.68285e-15 1.00048 0
1.58727e-14 1.00048 0
-1.52105e-14 1.00052 0
-1.51581e-14 1.00052 0
1.58129e-15 1.0005 0
2.00578e-14 1.0005 0
-1.51581e-14 1.00052 0
-1.20814e-14 1.00052 0
2.00578e-14 1.0005 0
5.0776e-15 1.0005 0
1.41423e-14 1.0005 0
-1.61367e-14 1.0005 0
1.58727e-14 1.00048 0
1.12491e-14 1.00048 0
-1.61367e-14 1.0005 0
8.29207e-15 1.0005 0
1.12491e-14 1.00048 0
4.12963e-15 1.00048 0
-1.04214e-14 1.00056 0
-2.15718e-14 1.00056 0
2.03297e-15 1.00054 0
2.15177e-14 1.00054 0
-2.15718e-14 1.00056 0
-1.48675e-14 1.00056 0
2.15177e-14 1.00054 0
8.81148e-15 1.00054 0
-1.81792e-15 1.00054 0
-2.12509e-14 1.00054 0
1.03216e-14 1.00052 0
2.26963e-14 1.00052 0
-2.12509e-14 1.00054 0
-1.82438e-15 1.00054 0
2.26963e-14 1.00052 0
5.91607e-15 1.00052 0
-1.48675e-14 1.00056 0
-1.38036e-14 1.00056 0
8.81148e-15 1.00054 0
1.86588e-14 1.00054 0
-1.38036e-14 1.00056 0
-3.56912e-15 1.00056 0
1.86588e-14 1.00054 0
1.73436e-14 1.00054 0
-1.82438e-15 1.00054 0
-9.46134e-15 1.00054 0
5.91607e-15 1.00052 0
1.38742e-14 1.00052 0
-9.46134e-15 1.00054 0
-2.30385e-14 1.00054 0
1.38742e-14 1.00052 0
1.90353e-14 1.00052 0
-1.20814e-14 1.00052 0
-1.29078e-14 1.00052 0
5.0776e-15 1.0005 0
3.16607e-15 1.0005 0
-1.29078e-14 1.00052 0
-1.06949e-14 1.00052 0
3.16607e-15 1.0005 0
4.36372e-16 1.0005 0
8.29207e-15 1.0005 0
-7.57509e-15 1.0005 0
4.12963e-15 1.00048 0
1.49034e-14 1.00048 0
-7.57509e-15 1.0005 0
-7.55352e-15 1.0005 0
1.49034e-14 1.00048 0
1.30418e-14 1.00048 0
-1.06949e-14 1.00052 0
-1.99753e-14 1.00052 0
4.36372e-16 1.0005 0
1.18829e-14 1.0005 0
-1.99753e-14 1.00052 0
-3.06926e-14 1.00052 0
1.18829e-14 1.0005 0
3.23673e-14 1.0005 0
-7.55352e-15 1.0005 0
-2.27296e-14 1.0005 0
1.30418e-14 1.00048 0
1.89422e-14 1.00048 0
-2.27296e-14 1.0005 0
-2.18169e-14 1.0005 0
1.89422e-14 1.00048 0
1.00496e-14 1.00048 0
0 1.00048 0
-6.59418e-15 1.00048 0
0 1.00046 0
-4.60986e-15 1.00046 0
-6.59418e-15 1.00048 0
-1.61507e-14 1.00048 0
-4.60986e-15 1.00046 0
-1.10687e-14 1.00046 0
0 1.00046 0
9.7475e-15 1.00046 0
0 1.00044 0
1.282e-14 1.00044 0
9.7475e-15 1.00046 0
5.09363e-15 1.00046 0
1.282e-14 1.00044 0
3.63992e-15 1.00044 0
-1.61507e-14 1.00048 0
-9.49862e-15 1.00048 0
-1.10687e-14 1.00046 0
1.67502e-14 1.00046 0
-9.49862e-15 1.00048 0
-2.66794e-14 1.00048 0
1.67502e-14 1.00046 0
3.00322e-14 1.00046 0
5.09363e-15 1.00046 0
-8.48283e-15 1.00046 0
3.63992e-15 1.00044 0
6.25893e-15 1.00044 0
-8.48283e-15 1.00046 0
-2.0792e-14 1.00046 0
6.25893e-15 1.00044 0
2.01405e-14 1.00044 0
0 1.00044 0
-1.03797e-14 1.00044 0
0 1.00042 0
-9.49989e-15 1.00042 0
-1.03797e-14 1.00044 0
1.05906e-14 1.00044 0
-9.49989e-15 1.00042 0
9.14774e-15 1.00042 0
0 1.00042 0
-5.27436e-15 1.00042 0
0 1.0004 0
-3.21647e-15 1.0004 0
-5.27436e-15 1.00042 0
-2.35499e-14 1.00042 0
-3.21647e-15 1.0004 0
1.91535e-15 1.0004 0
1.05906e-14 1.00044 0
-1.71907e-14 1.00044 0
9.14774e-15 1.00042 0
7.15625e-15 1.00042 0
-1.71907e-14 1.00044 0
-3.09132e-14 1.00044 0
7.15625e-15 1.00042 0
1.59912e-14 1.00042 0
-2.35499e-14 1.00042 0
-8.86123e-15 1.00042 0
1.91535e-15 1.0004 0
2.22418e-14 1.0004 0
-8.86123e-15 1.00042 0
-1.02565e-14 1.00042 0
2.22418e-14 1.0004 0
2.23988e-14 1.0004 0
-2.66794e-14 1.00048 0
-1.94526e-14 1.00048 0
3.00322e-14 1.00046 0
1.49731e-14 1.00046 0
-1.94526e-14 1.00048 0
-1.03719e-14 1.00048 0
1.49731e-14 1.00046 0
8.4623e-15 1.00046 0
-2.0792e-14 1.00046 0
-1.2533e-14 1.00046 0
2.01405e-14 1.00044 0
2.02266e-14 1.00044 0
-1.2533e-14 1.00046 0
-5.24878e-15 1.00046 0
2.02266e-14 1.00044 0
1.51543e-14 1.00044 0
-1.03719e-14 1.00048 0
-1.1082e-14 1.00048 0
8.4623e-15 1.00046 0
1.46173e-14 1.00046 0
-1.1082e-14 1.00048 0
-1.67409e-14 1.00048 0
1.46173e-14 1.00046 0
2.40973e-14 1.00046 0
-5.24878e-15 1.00046 0
-1.01227e-14 1.00046 0
1.51543e-14 1.00044 0
1.98621e-14 1.00044 0
-1.01227e-14 1.00046 0
-1.58538e-14 1.00046 0
1.98621e-14 1.00044 0
3.0344e-14 1.00044 0
-3.09132e-14 1.00044 0
-1.54973e-14 1.00044 0
1.59912e-14 1.00042 0
1.19442e-14 1.00042 0
-1.54973e-14 1.00044 0
-9.48772e-15 1.00044 0
1.19442e-14 1.00042 0
1.12638e-14 1.00042 0
-1.02565e-14 1.00042 0
-6.83661e-15 1.00042 0
2.23988e-14 1.0004 0
1.24252e-14 1.0004 0
-6.83661e-15 1.00042 0
-7.99969e-15 1.00042 0
1.24252e-14 1.0004 0
1.06469e-14 1.0004 0
-9.48772e-15 1.00044 0
-1.43166e-14 1.00044 0
1.12638e-14 1.00042 0
1.51162e-14 1.00042 0
-1.43166e-14 1.00044 0
-2.34206e-14 1.00044 0
1.51162e-14 1.00042 0
1.60334e-14 1.00042 0
-7.99969e-15 1.00042 0
-1.23344e-14 1.00042 0
1.06469e-14 1.0004 0
1.51862e-14 1.0004 0
-1.23344e-14 1.00042 0
-5.09328e-15 1.00042 0
1.51862e-14 1.0004 0
5.40982e-15 1.0004 0
-3.56912e-15 1.00056 0
-2.15386e-14 1.00056 0
1.73436e-14 1.00054 0
2.38314e-14 1.00054 0
-2.15386e-14 1.00056 0
-3.64742e-14 1.00056 0
2.38314e-14 1.00054 0
2.48508e-14 1.00054 0
-2.30385e-14 1.00054 0
-1.99065e-14 1.00054 0
1.90353e-14 1.00052 0
1.48965e-14 1.00052 0
-1.99065e-14 1.00054 0
-1.82142e-14 1.00054 0
1.48965e-14 1.00052 0
1.941e-14 1.00052 0
-3.64742e-14 1.00056 0
-1.60126e-14 1.00056 0
2.48508e-14 1.00054 0
1.48921e-14 1.00054 0
-1.60126e-14 1.00056 0
-2.4269e-14 1.00056 0
1.48921e-14 1.00054 0
1.9091e-14 1.00054 0
-1.82142e-14 1.00054 0
-1.37322e-14 1.00054 0
1.941e-14 1.00052 0
2.32117e-14 1.00052 0
-1.37322e-14 1.00054 0
-1.77105e-14 1.00054 0
2.32117e-14 1.00052 0
2.27553e-14 1.00052 0
-3.06926e-14 1.00052 0
-1.10969e-14 1.00052 0
3.23673e-14 1.0005 0
1.0463e-14 1.0005 0
-1.10969e-14 1.00052 0
-1.53087e-14 1.00052 0
1.0463e-14 1.0005 0
1.13618e-14 1.0005 0
-2.18169e-14 1.0005 0
-4.43851e-15 1.0005 0
1.00496e-14 1.00048 0
1.91187e-15 1.00048 0
-4.43851e-15 1.0005 0
-5.81555e-15 1.0005 0
1.91187e-15 1.00048 0
6.45774e-15 1.00048 0
-1.53087e-14 1.00052 0
-2.40933e-14 1.00052 0
1.13618e-14 1.0005 0
1.69045e-14 1.0005 0
-2.40933e-14 1.00052 0
-1.1656e-14 1.00052 0
1.69045e-14 1.0005 0
5.48052e-15 1.0005 0
-5.81555e-15 1.0005 0
-1.21049e-14 1.0005 0
6.45774e-15 1.00048 0
2.70701e-14 1.00048 0
-1.21049e-14 1.0005 0
-9.20888e-15 1.0005 0
2.70701e-14 1.00048 0
1.7589e-14 1.00048 0
-2.4269e-14 1.00056 0
-8.30455e-15 1.00056 0
1.9091e-14 1.00054 0
8.31772e-15 1.00054 0
-8.30455e-15 1.00056 0
-1.24868e-15 1.00056 0
8.31772e-15 1.00054 0
7.92862e-15 1.00054 0
-1.77105e-14 1.00054 0
-1.62625e-15 1.00054 0
2.27553e-14 1.00052 0
2.12034e-15 1.00052 0
-1.62625e-15 1.00054 0
6.09744e-15 1.00054 0
2.12034e-15 1.00052 0
4.76026e-15 1.00052 0
-1.24868e-15 1.00056 0
4.74302e-15 1.00056 0
7.92862e-15 1.00054 0
1.74341e-15 1.00054 0
4.74302e-15 1.00056 0
-1.37787e-14 1.00056 0
1.74341e-15 1.00054 0
1.94871e-14 1.00054 0
6.09744e-15 1.00054 0
6.39688e-16 1.00054 0
4.76026e-15 1.00052 0
7.93932e-17 1.00052 0
6.39688e-16 1.00054 0
-1.0754e-14 1.00054 0
7.93932e-17 1.00052 0
8.69289e-15 1.00052 0
-1.1656e-14 1.00052 0
-1.01423e-14 1.00052 0
5.48052e-15 1.0005 0
1.21691e-14 1.0005 0
-1.01423e-14 1.00052 0
-2.08961e-14 1.00052 0
1.21691e-14 1.0005 0
1.53535e-14 1.0005 0
-9.20888e-15 1.0005 0
-9.85111e-15 1.0005 0
1.7589e-14 1.00048 0
9.57619e-15 1.00048 0
-9.85111e-15 1.0005 0
-1.77578e-14 1.0005 0
9.57619e-15 1.00048 0
1.88283e-14 1.00048 0
-2.08961e-14 1.00052 0
1.96767e-15 1.00052 0
1.53535e-14 1.0005 0
7.0847e-15 1.0005 0
1.96767e-15 1.00052 0
-1.10509e-14 1.00052 0
7.0847e-15 1.0005 0
1.92895e-14 1.0005 0
-1.77578e-14 1.0005 0
-1.19089e-14 1.0005 0
1.88283e-14 1.00048 0
3.9717e-15 1.00048 0
-1.19089e-14 1.0005 0
-1.15732e-14 1.0005 0
3.9717e-15 1.00048 0
2.69078e-15 1.00048 0
-1.67409e-14 1.00048 0
-1.46977e-14 1.00048 0
2.40973e-14 1.00046 0
2.34814e-14 1.00046 0
-1.46977e-14 1.00048 0
-1.736e-14 1.00048 0
2.34814e-14 1.00046 0
2.78749e-14 1.00046 0
-1.58538e-14 1.00046 0
-8.46713e-15 1.00046 0
3.0344e-14 1.00044 0
1.23853e-14 1.00044 0
-8.46713e-15 1.00046 0
-1.33539e-14 1.00046 0
1.23853e-14 1.00044 0
2.03192e-14 1.00044 0
-1.736e-14 1.00048 0
-3.24586e-14 1.00048 0
2.78749e-14 1.00046 0
2.85242e-14 1.00046 0
-3.24586e-14 1.00048 0
-1.30841e-14 1.00048 0
2.85242e-14 1.00046 0
1.72945e-14 1.00046 0
-1.33539e-14 1.00046 0
-1.03703e-14 1.00046 0
2.03192e-14 1.00044 0