# vtk DataFile Version 3.0
#This file was generated by the deal.II library on 2018/10/15 at 0:06:30
ASCII
DATASET UNSTRUCTURED_GRID

POINTS 20480 double
0 0 0
0.19635 0 0
0 0.311604 0
0.19635 0.311604 0
0.19635 0 0
0.392699 0 0
0.19635 0.311604 0
0.392699 0.311604 0
0 0.311604 0
0.19635 0.311604 0
0 0.62415 0
0.19635 0.62415 0
0.19635 0.311604 0
0.392699 0.311604 0
0.19635 0.62415 0
0.392699 0.62415 0
0.392699 0 0
0.589049 0 0
0.392699 0.311604 0
0.589049 0.311604 0
0.589049 0 0
0.785398 0 0
0.589049 0.311604 0
0.785398 0.311604 0
0.392699 0.311604 0
0.589049 0.311604 0
0.392699 0.62415 0
0.589049 0.62415 0
0.589049 0.311604 0
0.785398 0.311604 0
0.589049 0.62415 0
0.785398 0.62415 0
0 0.62415 0
0.19635 0.62415 0
0 0.936657 0
0.19635 0.936657 0
0.19635 0.62415 0
0.392699 0.62415 0
0.19635 0.936657 0
0.392699 0.936657 0
0 0.936657 0
0.19635 0.936657 0
0 1.24919 0
0.19635 1.24919 0
0.19635 0.936657 0
0.392699 0.936657 0
0.19635 1.24919 0
0.392699 1.24919 0
0.392699 0.62415 0
0.589049 0.62415 0
0.392699 0.936657 0
0.589049 0.936657 0
0.589049 0.62415 0
0.785398 0.62415 0
0.589049 0.936657 0
0.785398 0.936657 0
0.392699 0.936657 0
0.589049 0.936657 0
0.392699 1.24919 0
0.589049 1.24919 0
0.589049 0.936657 0
0.785398 0.936657 0
0.589049 1.24919 0
0.785398 1.24919 0
0.785398 0 0
0.981748 0 0
0.785398 0.311604 0
0.981748 0.311604 0
0.981748 0 0
1.1781 0 0
0.981748 0.311604 0
1.1781 0.311604 0
0.785398 0.311604 0
0.981748 0.311604 0
0.785398 0.62415 0
0.981748 0.62415 0
0.981748 0.311604 0
1.1781 0.311604 0
0.981748 0.62415 0
1.1781 0.62415 0
1.1781 0 0
1.37445 0 0
1.1781 0.311604 0
1.37445 0.311604 0
1.37445 0 0
1.5708 0 0
1.37445 0.311604 0
1.5708 0.311604 0
1.1781 0.311604 0
1.37445 0.311604 0
1.1781 0.62415 0
1.37445 0.62415 0
1.37445 0.311604 0
1.5708 0.311604 0
1.37445 0.62415 0
1.5708 0.62415 0
0.785398 0.62415 0
0.981748 0.62415 0
0.785398 0.936657 0
0.981748 0.936657 0
0.981748 0.62415 0
1.1781 0.62415 0
0.981748 0.936657 0
1.1781 0.936657 0
0.785398 0.936657 0
0.981748 0.936657 0
0.785398 1.24919 0
0.981748 1.24919 0
0.981748 0.936657 0
1.1781 0.936657 0
0.981748 1.24919 0
1.1781 1.24919 0
1.1781 0.62415 0
1.37445 0.62415 0
1.1781 0.936657 0
1.37445 0.936657 0
1.37445 0.62415 0
1.5708 0.62415 0
1.37445 0.936657 0
1.5708 0.936657 0
1.1781 0.936657 0
1.37445 0.936657 0
1.1781 1.24919 0
1.37445 1.24919 0
1.37445 0.936657 0
1.5708 0.936657 0
1.37445 1.24919 0
1.5708 1.24919 0
0 1.24919 0
0.19635 1.24919 0
0 1.56172 0
0.19635 1.56172 0
0.19635 1.24919 0
0.392699 1.24919 0
0.19635 1.56172 0
0.392699 1.56172 0
0 1.56172 0
0.19635 1.56172 0
0 1.87426 0
0.19635 1.87426 0
0.19635 1.56172 0
0.392699 1.56172 0
0.19635 1.87426 0
0.392699 1.87426 0
0.392699 1.24919 0
0.589049 1.24919 0
0.392699 1.56172 0
0.589049 1.56172 0
0.589049 1.24919 0
0.785398 1.24919 0
0.589049 1.56172 0
0.785398 1.56172 0
0.392699 1.56172 0
0.589049 1.56172 0
0.392699 1.87426 0
0.589049 1.87426 0
0.589049 1.56172 0
0.785398 1.56172 0
0.589049 1.87426 0
0.785398 1.87426 0
0 1.87426 0
0.19635 1.87426 0
0 2.18679 0
0.19635 2.18679 0
0.19635 1.87426 0
0.392699 1.87426 0
0.19635 2.18679 0
0.392699 2.18679 0
0 2.18679 0
0.19635 2.18679 0
0 2.49932 0
0.19635 2.49932 0
0.19635 2.18679 0
0.392699 2.18679 0
0.19635 2.49932 0
0.392699 2.49932 0
0.392699 1.87426 0
0.589049 1.87426 0
0.392699 2.18679 0
0.589049 2.18679 0
0.589049 1.87426 0
0.785398 1.87426 0
0.589049 2.18679 0
0.785398 2.18679 0
0.392699 2.18679 0
0.589049 2.18679 0
0.392699 2.49932 0
0.589049 2.49932 0
0.589049 2.18679 0
0.785398 2.18679 0
0.589049 2.49932 0
0.785398 2.49932 0
0.785398 1.24919 0
0.981748 1.24919 0
0.785398 1.56172 0
0.981748 1.56172 0
0.981748 1.24919 0
1.1781 1.24919 0
0.981748 1.56172 0
1.1781 1.56172 0
0.785398 1.56172 0
0.981748 1.56172 0
0.785398 1.87426 0
0.981748 1.87426 0
0.981748 1.56172 0
1.1781 1.56172 0
0.981748 1.87426 0
1.1781 1.87426 0
1.1781 1.24919 0
1.37445 1.24919 0
1.1781 1.56172 0
1.37445 1.56172 0
1.37445 1.24919 0
1.5708 1.24919 0
1.37445 1.56172 0
1.5708 1.56172 0
1.1781 1.56172 0
1.37445 1.56172 0
1.1781 1.87426 0
1.37445 1.87426 0
1.37445 1.56172 0
1.5708 1.56172 0
1.37445 1.87426 0
1.5708 1.87426 0
0.785398 1.87426 0
0.981748 1.87426 0
0.785398 2.18679 0
0.981748 2.18679 0
0.981748 1.87426 0
1.1781 1.87426 0
0.981748 2.18679 0
1.1781 2.18679 0
0.785398 2.18679 0
0.981748 2.18679 0
0.785398 2.49932 0
0.981748 2.49932 0
0.981748 2.18679 0
1.1781 2.18679 0
0.981748 2.49932 0
1.1781 2.49932 0
1.1781 1.87426 0
1.37445 1.87426 0
1.1781 2.18679 0
1.37445 2.18679 0
1.37445 1.87426 0
1.5708 1.87426 0
1.37445 2.18679 0
1.5708 2.18679 0
1.1781 2.18679 0
1.37445 2.18679 0
1.1781 2.49932 0
1.37445 2.49932 0
1.37445 2.18679 0
1.5708 2.18679 0
1.37445 2.49932 0
1.5708 2.49932 0
1.5708 0 0
1.76715 0 0
1.5708 0.311604 0
1.76715 0.311604 0
1.76715 0 0
1.9635 0 0
1.76715 0.311604 0
1.9635 0.311604 0
1.5708 0.311604 0
1.76715 0.311604 0
1.5708 0.62415 0
1.76715 0.62415 0
1.76715 0.311604 0
1.9635 0.311604 0
1.76715 0.62415 0
1.9635 0.62415 0
1.9635 0 0
2.15984 0 0
1.9635 0.311604 0
2.15984 0.311604 0
2.15984 0 0
2.35619 0 0
2.15984 0.311604 0
2.35619 0.311604 0
1.9635 0.311604 0
2.15984 0.311604 0
1.9635 0.62415 0
2.15984 0.62415 0
2.15984 0.311604 0
2.35619 0.311604 0
2.15984 0.62415 0
2.35619 0.62415 0
1.5708 0.62415 0
1.76715 0.62415 0
1.5708 0.936657 0
1.76715 0.936657 0
1.76715 0.62415 0
1.9635 0.62415 0
1.76715 0.936657 0
1.9635 0.936657 0
1.5708 0.936657 0
1.76715 0.936657 0
1.5708 1.24919 0
1.76715 1.24919 0
1.76715 0.936657 0
1.9635 0.936657 0
1.76715 1.24919 0
1.9635 1.24919 0
1.9635 0.62415 0
2.15984 0.62415 0
1.9635 0.936657 0
2.15984 0.936657 0
2.15984 0.62415 0
2.35619 0.62415 0
2.15984 0.936657 0
2.35619 0.936657 0
1.9635 0.936657 0
2.15984 0.936657 0
1.9635 1.24919 0
2.15984 1.24919 0
2.15984 0.936657 0
2.35619 0.936657 0
2.15984 1.24919 0
2.35619 1.24919 0
2.35619 0 0
2.55254 0 0
2.35619 0.311604 0
2.55254 0.311604 0
2.55254 0 0
2.74889 0 0
2.55254 0.311604 0
2.74889 0.311604 0
2.35619 0.311604 0
2.55254 0.311604 0
2.35619 0.62415 0
2.55254 0.62415 0
2.55254 0.311604 0
2.74889 0.311604 0
2.55254 0.62415 0
2.74889 0.62415 0
2.74889 0 0
2.94524 0 0
2.74889 0.311604 0
2.94524 0.311604 0
2.94524 0 0
3.14159 0 0
2.94524 0.311604 0
3.14159 0.311604 0
2.74889 0.311604 0
2.94524 0.311604 0
2.74889 0.62415 0
2.94524 0.62415 0
2.94524 0.311604 0
3.14159 0.311604 0
2.94524 0.62415 0
3.14159 0.62415 0
2.35619 0.62415 0
2.55254 0.62415 0
2.35619 0.936657 0
2.55254 0.936657 0
2.55254 0.62415 0
2.74889 0.62415 0
2.55254 0.936657 0
2.74889 0.936657 0
2.35619 0.936657 0
2.55254 0.936657 0
2.35619 1.24919 0
2.55254 1.24919 0
2.55254 0.936657 0
2.74889 0.936657 0
2.55254 1.24919 0
2.74889 1.24919 0
2.74889 0.62415 0
2.94524 0.62415 0
2.74889 0.936657 0
2.94524 0.936657 0
2.94524 0.62415 0
3.14159 0.62415 0
2.94524 0.936657 0
3.14159 0.936657 0
2.74889 0.936657 0
2.94524 0.936657 0
2.74889 1.24919 0
2.94524 1.24919 0
2.94524 0.936657 0
3.14159 0.936657 0
2.94524 1.24919 0
3.14159 1.24919 0
1.5708 1.24919 0
1.76715 1.24919 0
1.5708 1.56172 0
1.76715 1.56172 0
1.76715 1.24919 0
1.9635 1.24919 0
1.76715 1.56172 0
1.9635 1.56172 0
1.5708 1.56172 0
1.76715 1.56172 0
1.5708 1.87426 0
1.76715 1.87426 0
1.76715 1.56172 0
1.9635 1.56172 0
1.76715 1.87426 0
1.9635 1.87426 0
1.9635 1.24919 0
2.15984 1.24919 0
1.9635 1.56172 0
2.15984 1.56172 0
2.15984 1.24919 0
2.35619 1.24919 0
2.15984 1.56172 0
2.35619 1.56172 0
1.9635 1.56172 0
2.15984 1.56172 0
1.9635 1.87426 0
2.15984 1.87426 0
2.15984 1.56172 0
2.35619 1.56172 0
2.15984 1.87426 0
2.35619 1.87426 0
1.5708 1.87426 0
1.76715 1.87426 0
1.5708 2.18679 0
1.76715 2.18679 0
1.76715 1.87426 0
1.9635 1.87426 0
1.76715 2.18679 0
1.9635 2.18679 0
1.5708 2.18679 0
1.76715 2.18679 0
1.5708 2.49932 0
1.76715 2.49932 0
1.76715 2.18679 0
1.9635 2.18679 0
1.76715 2.49932 0
1.9635 2.49932 0
1.9635 1.87426 0
2.15984 1.87426 0
1.9635 2.18679 0
2.15984 2.18679 0
2.15984 1.87426 0
2.35619 1.87426 0
2.15984 2.18679 0
2.35619 2.18679 0
1.9635 2.18679 0
2.15984 2.18679 0
1.9635 2.49932 0
2.15984 2.49932 0
2.15984 2.18679 0
2.35619 2.18679 0
2.15984 2.49932 0
2.35619 2.49932 0
2.35619 1.24919 0
2.55254 1.24919 0
2.35619 1.56172 0
2.55254 1.56172 0
2.55254 1.24919 0
2.74889 1.24919 0
2.55254 1.56172 0
2.74889 1.56172 0
2.35619 1.56172 0
2.55254 1.56172 0
2.35619 1.87426 0
2.55254 1.87426 0
2.55254 1.56172 0
2.74889 1.56172 0
2.55254 1.87426 0
2.74889 1.87426 0
2.74889 1.24919 0
2.94524 1.24919 0
2.74889 1.56172 0
2.94524 1.56172 0
2.94524 1.24919 0
3.14159 1.24919 0
2.94524 1.56172 0
3.14159 1.56172 0
2.74889 1.56172 0
2.94524 1.56172 0
2.74889 1.87426 0
2.94524 1.87426 0
2.94524 1.56172 0
3.14159 1.56172 0
2.94524 1.87426 0
3.14159 1.87426 0
2.35619 1.87426 0
2.55254 1.87426 0
2.35619 2.18679 0
2.55254 2.18679 0
2.55254 1.87426 0
2.74889 1.87426 0
2.55254 2.18679 0
2.74889 2.18679 0
2.35619 2.18679 0
2.55254 2.18679 0
2.35619 2.49932 0
2.55254 2.49932 0
2.55254 2.18679 0
2.74889 2.18679 0
2.55254 2.49932 0
2.74889 2.49932 0
2.74889 1.87426 0
2.94524 1.87426 0
2.74889 2.18679 0
2.94524 2.18679 0
2.94524 1.87426 0
3.14159 1.87426 0
2.94524 2.18679 0
3.14159 2.18679 0
2.74889 2.18679 0
2.94524 2.18679 0
2.74889 2.49932 0
2.94524 2.49932 0
2.94524 2.18679 0
3.14159 2.18679 0
2.94524 2.49932 0
3.14159 2.49932 0
0 2.49932 0
0.19635 2.49932 0
0 2.81185 0
0.19635 2.81185 0
0.19635 2.49932 0
0.392699 2.49932 0
0.19635 2.81185 0
0.392699 2.81185 0
0 2.81185 0
0.19635 2.81185 0
0 3.12438 0
0.19635 3.12438 0
0.19635 2.81185 0
0.392699 2.81185 0
0.19635 3.12438 0
0.392699 3.12438 0
0.392699 2.49932 0
0.589049 2.49932 0
0.392699 2.81185 0
0.589049 2.81185 0
0.589049 2.49932 0
0.785398 2.49932 0
0.589049 2.81185 0
0.785398 2.81185 0
0.392699 2.81185 0
0.589049 2.81185 0
0.392699 3.12438 0
0.589049 3.12438 0
0.589049 2.81185 0
0.785398 2.81185 0
0.589049 3.12438 0
0.785398 3.12438 0
0 3.12438 0
0.19635 3.12438 0
0 3.43691 0
0.19635 3.43691 0
0.19635 3.12438 0
0.392699 3.12438 0
0.19635 3.43691 0
0.392699 3.43691 0
0 3.43691 0
0.19635 3.43691 0
0 3.74944 0
[...]
POINT_DATA 20480
VECTORS uf double
0 1 0
-4.28259e-15 1 0
0 1.00058 0
1.08032e-14 1.00058 0
-4.28259e-15 1 0
-1.96287e-14 1 0
1.08032e-14 1.00058 0
9.67375e-15 1.00058 0
0 1.00058 0
-3.36936e-14 1.00058 0
0 1.00041 0
3.50986e-14 1.00041 0
-3.36936e-14 1.00058 0
-1.16676e-14 1.00058 0
3.50986e-14 1.00041 0
3.94403e-14 1.00041 0
-1.96287e-14 1 0
3.18223e-15 1 0
9.67375e-15 1.00058 0
-9.86054e-15 1.00058 0
3.18223e-15 1 0
-3.31003e-14 1 0
-9.86054e-15 1.00058 0
3.8942e-14 1.00058 0
-1.16676e-14 1.00058 0
-1.75491e-14 1.00058 0
3.94403e-14 1.00041 0
4.72489e-14 1.00041 0
-1.75491e-14 1.00058 0
-5.26685e-14 1.00058 0
4.72489e-14 1.00041 0
6.25201e-14 1.00041 0
0 1.00041 0
-4.05124e-14 1.00041 0
0 1.00043 0
5.49723e-14 1.00043 0
-4.05124e-14 1.00041 0
-4.89075e-14 1.00041 0
5.49723e-14 1.00043 0
5.23115e-14 1.00043 0
0 1.00043 0
-5.28803e-14 1.00043 0
0 1.00041 0
3.35163e-14 1.00041 0
-5.28803e-14 1.00043 0
-6.4025e-14 1.00043 0
3.35163e-14 1.00041 0
5.70011e-14 1.00041 0
-4.89075e-14 1.00041 0
-5.58991e-14 1.00041 0
5.23115e-14 1.00043 0
5.27205e-14 1.00043 0
-5.58991e-14 1.00041 0
-2.70982e-14 1.00041 0
5.27205e-14 1.00043 0
2.53186e-14 1.00043 0
-6.4025e-14 1.00043 0
-5.26322e-14 1.00043 0
5.70011e-14 1.00041 0
4.55165e-14 1.00041 0
-5.26322e-14 1.00043 0
-4.4959e-14 1.00043 0
4.55165e-14 1.00041 0
3.55195e-14 1.00041 0
-3.31003e-14 1 0
-5.62478e-14 1 0
3.8942e-14 1.00058 0
7.26291e-14 1.00058 0
-5.62478e-14 1 0
-5.29455e-14 1 0
7.26291e-14 1.00058 0
7.7025e-14 1.00058 0
-5.26685e-14 1.00058 0
-7.89471e-14 1.00058 0
6.25201e-14 1.00041 0
7.09362e-14 1.00041 0
-7.89471e-14 1.00058 0
-1.03158e-13 1.00058 0
7.09362e-14 1.00041 0
1.10625e-13 1.00041 0
-5.29455e-14 1 0
-3.98258e-14 1 0
7.7025e-14 1.00058 0
5.72793e-14 1.00058 0
-3.98258e-14 1 0
-2.60728e-14 1 0
5.72793e-14 1.00058 0
2.56935e-14 1.00058 0
-1.03158e-13 1.00058 0
-9.30666e-14 1.00058 0
1.10625e-13 1.00041 0
9.66208e-14 1.00041 0
-9.30666e-14 1.00058 0
-3.11872e-14 1.00058 0
9.66208e-14 1.00041 0
4.61334e-14 1.00041 0
-2.70982e-14 1.00041 0
-8.5457e-15 1.00041 0
2.53186e-14 1.00043 0
1.52757e-14 1.00043 0
-8.5457e-15 1.00041 0
-7.88916e-14 1.00041 0
1.52757e-14 1.00043 0
7.30183e-14 1.00043 0
-4.4959e-14 1.00043 0
-4.91415e-14 1.00043 0
3.55195e-14 1.00041 0
4.65317e-14 1.00041 0
-4.91415e-14 1.00043 0
-7.01348e-14 1.00043 0
4.65317e-14 1.00041 0
6.53648e-14 1.00041 0
-7.88916e-14 1.00041 0
-8.31613e-14 1.00041 0
7.30183e-14 1.00043 0
1.0062e-13 1.00043 0
-8.31613e-14 1.00041 0
-3.92624e-14 1.00041 0
1.0062e-13 1.00043 0
4.30759e-14 1.00043 0
-7.01348e-14 1.00043 0
-8.57893e-14 1.00043 0
6.53648e-14 1.00041 0
7.31717e-14 1.00041 0
-8.57893e-14 1.00043 0
-5.69524e-14 1.00043 0
7.31717e-14 1.00041 0
5.78988e-14 1.00041 0
0 1.00041 0
-4.65607e-15 1.00041 0
0 1.0004 0
1.55905e-14 1.0004 0
-4.65607e-15 1.00041 0
-4.69986e-14 1.00041 0
1.55905e-14 1.0004 0
5.60012e-14 1.0004 0
0 1.0004 0
-4.12529e-14 1.0004 0
0 1.00038 0
4.5719e-14 1.00038 0
-4.12529e-14 1.0004 0
-6.322e-14 1.0004 0
4.5719e-14 1.00038 0
6.40284e-14 1.00038 0
-4.69986e-14 1.00041 0
-5.19558e-14 1.00041 0
5.60012e-14 1.0004 0
6.50543e-14 1.0004 0
-5.19558e-14 1.00041 0
-1.1672e-14 1.00041 0
6.50543e-14 1.0004 0
1.78488e-14 1.0004 0
-6.322e-14 1.0004 0
-8.77784e-14 1.0004 0
6.40284e-14 1.00038 0
9.84235e-14 1.00038 0
-8.77784e-14 1.0004 0
-3.24075e-14 1.0004 0
9.84235e-14 1.00038 0
4.34652e-14 1.00038 0
0 1.00038 0
-3.25946e-14 1.00038 0
0 1.00037 0
2.19285e-14 1.00037 0
-3.25946e-14 1.00038 0
-5.30275e-14 1.00038 0
2.19285e-14 1.00037 0
4.75925e-14 1.00037 0
0 1.00037 0
-9.882e-15 1.00037 0
0 1.00035 0
1.07112e-14 1.00035 0
-9.882e-15 1.00037 0
-4.87564e-14 1.00037 0
1.07112e-14 1.00035 0
4.62961e-14 1.00035 0
-5.30275e-14 1.00038 0
-7.03924e-14 1.00038 0
4.75925e-14 1.00037 0
5.85599e-14 1.00037 0
-7.03924e-14 1.00038 0
-7.05133e-14 1.00038 0
5.85599e-14 1.00037 0
8.62996e-14 1.00037 0
-4.87564e-14 1.00037 0
-7.87012e-14 1.00037 0
4.62961e-14 1.00035 0
7.26911e-14 1.00035 0
-7.87012e-14 1.00037 0
-9.98583e-14 1.00037 0
7.26911e-14 1.00035 0
9.20154e-14 1.00035 0
-1.1672e-14 1.00041 0
-2.34259e-14 1.00041 0
1.78488e-14 1.0004 0
2.31114e-14 1.0004 0
-2.34259e-14 1.00041 0
-4.88486e-14 1.00041 0
2.31114e-14 1.0004 0
4.77784e-14 1.0004 0
-3.24075e-14 1.0004 0
-2.73888e-14 1.0004 0
4.34652e-14 1.00038 0
3.1264e-14 1.00038 0
-2.73888e-14 1.0004 0
-3.61049e-14 1.0004 0
3.1264e-14 1.00038 0
3.54486e-14 1.00038 0
-4.88486e-14 1.00041 0
-7.04645e-14 1.00041 0
4.77784e-14 1.0004 0
7.93146e-14 1.0004 0
-7.04645e-14 1.00041 0
-3.67595e-14 1.00041 0
7.93146e-14 1.0004 0
4.28199e-14 1.0004 0
-3.61049e-14 1.0004 0
-6.02512e-14 1.0004 0
3.54486e-14 1.00038 0
5.2517e-14 1.00038 0
-6.02512e-14 1.0004 0
-3.91711e-14 1.0004 0
5.2517e-14 1.00038 0
4.20244e-14 1.00038 0
-7.05133e-14 1.00038 0
-5.52512e-14 1.00038 0
8.62996e-14 1.00037 0
7.33928e-14 1.00037 0
-5.52512e-14 1.00038 0
-4.3534e-14 1.00038 0
7.33928e-14 1.00037 0
5.45111e-14 1.00037 0
-9.98583e-14 1.00037 0
-8.71276e-14 1.00037 0
9.20154e-14 1.00035 0
8.74675e-14 1.00035 0
-8.71276e-14 1.00037 0
-7.91005e-14 1.00037 0
8.74675e-14 1.00035 0
8.5999e-14 1.00035 0
-4.3534e-14 1.00038 0
-4.36799e-14 1.00038 0
5.45111e-14 1.00037 0
5.87872e-14 1.00037 0
-4.36799e-14 1.00038 0
-4.76659e-14 1.00038 0
5.87872e-14 1.00037 0
5.39953e-14 1.00037 0
-7.91005e-14 1.00037 0
-7.27126e-14 1.00037 0
8.5999e-14 1.00035 0
6.37044e-14 1.00035 0
-7.27126e-14 1.00037 0
-6.08678e-14 1.00037 0
6.37044e-14 1.00035 0
6.29881e-14 1.00035 0
-2.60728e-14 1 0
-4.43896e-14 1 0
2.56935e-14 1.00058 0
6.19207e-14 1.00058 0
-4.43896e-14 1 0
-2.47186e-14 1 0
6.19207e-14 1.00058 0
2.12888e-14 1.00058 0
-3.11872e-14 1.00058 0
-8.33465e-14 1.00058 0
4.61334e-14 1.00041 0
8.5685e-14 1.00041 0
-8.33465e-14 1.00058 0
-3.15933e-14 1.00058 0
8.5685e-14 1.00041 0
6.26026e-14 1.00041 0
-2.47186e-14 1 0
-4.98967e-14 1 0
2.12888e-14 1.00058 0
6.01036e-14 1.00058 0
-4.98967e-14 1 0
-4.98093e-14 1 0
6.01036e-14 1.00058 0
5.45593e-14 1.00058 0
-3.15933e-14 1.00058 0
-5.02007e-14 1.00058 0
6.26026e-14 1.00041 0
5.88873e-14 1.00041 0
-5.02007e-14 1.00058 0
-3.24327e-14 1.00058 0
5.88873e-14 1.00041 0
3.03788e-14 1.00041 0
-3.92624e-14 1.00041 0
-6.93077e-14 1.00041 0
4.30759e-14 1.00043 0
8.50122e-14 1.00043 0
-6.93077e-14 1.00041 0
-8.05568e-14 1.00041 0
8.50122e-14 1.00043 0
8.26401e-14 1.00043 0
-5.69524e-14 1.00043 0
-9.10864e-14 1.00043 0
5.78988e-14 1.00041 0
8.72188e-14 1.00041 0
-9.10864e-14 1.00043 0
-6.47955e-14 1.00043 0
8.72188e-14 1.00041 0
6.32726e-14 1.00041 0
-8.05568e-14 1.00041 0
-3.96056e-14 1.00041 0
8.26401e-14 1.00043 0
3.9714e-14 1.00043 0
-3.96056e-14 1.00041 0
-4.98297e-16 1.00041 0
3.9714e-14 1.00043 0
2.08778e-14 1.00043 0
-6.47955e-14 1.00043 0
-6.08334e-14 1.00043 0
6.32726e-14 1.00041 0
7.57485e-14 1.00041 0
-6.08334e-14 1.00043 0
-5.66971e-14 1.00043 0
7.57485e-14 1.00041 0
6.32539e-14 1.00041 0
-4.98093e-14 1 0
-3.72118e-14 1 0
5.45593e-14 1.00058 0
3.94169e-14 1.00058 0
-3.72118e-14 1 0
-4.29021e-14 1 0
3.94169e-14 1.00058 0
5.59277e-14 1.00058 0
-3.24327e-14 1.00058 0
-5.46052e-14 1.00058 0
3.03788e-14 1.00041 0
7.44977e-14 1.00041 0
-5.46052e-14 1.00058 0
-7.1849e-14 1.00058 0
7.44977e-14 1.00041 0
8.24605e-14 1.00041 0
-4.29021e-14 1 0
-4.61287e-14 1 0
5.59277e-14 1.00058 0
6.15901e-14 1.00058 0
-4.61287e-14 1 0
-6.62809e-14 1 0
6.15901e-14 1.00058 0
8.42777e-14 1.00058 0
-7.1849e-14 1.00058 0
-6.44265e-14 1.00058 0
8.24605e-14 1.00041 0
6.23593e-14 1.00041 0
-6.44265e-14 1.00058 0
-7.07446e-14 1.00058 0
6.23593e-14 1.00041 0
7.74932e-14 1.00041 0
-4.98297e-16 1.00041 0
-3.6347e-14 1.00041 0
2.08778e-14 1.00043 0
3.36707e-14 1.00043 0
-3.6347e-14 1.00041 0
-6.39644e-14 1.00041 0
3.36707e-14 1.00043 0
6.96329e-14 1.00043 0
-5.66971e-14 1.00043 0
-3.771e-14 1.00043 0
6.32539e-14 1.00041 0
4.50049e-14 1.00041 0
-3.771e-14 1.00043 0
-7.45555e-14 1.00043 0
4.50049e-14 1.00041 0
7.32951e-14 1.00041 0
-6.39644e-14 1.00041 0
-6.33887e-14 1.00041 0
6.96329e-14 1.00043 0
8.52121e-14 1.00043 0
-6.33887e-14 1.00041 0
-6.02667e-14 1.00041 0
8.52121e-14 1.00043 0
6.31388e-14 1.00043 0
-7.45555e-14 1.00043 0
-9.57878e-14 1.00043 0
7.32951e-14 1.00041 0
1.03897e-13 1.00041 0
-9.57878e-14 1.00043 0
-7.55221e-14 1.00043 0
1.03897e-13 1.00041 0
8.89726e-14 1.00041 0
-3.67595e-14 1.00041 0
-5.97143e-14 1.00041 0
4.28199e-14 1.0004 0
6.01655e-14 1.0004 0
-5.97143e-14 1.00041 0
-5.94462e-14 1.00041 0
6.01655e-14 1.0004 0
6.89406e-14 1.0004 0
-3.91711e-14 1.0004 0
-5.8908e-14 1.0004 0
4.20244e-14 1.00038 0
6.83276e-14 1.00038 0
-5.8908e-14 1.0004 0
-6.86245e-14 1.0004 0
6.83276e-14 1.00038 0
6.27945e-14 1.00038 0
-5.94462e-14 1.00041 0
-6.94694e-14 1.00041 0
6.89406e-14 1.0004 0
7.54877e-14 1.0004 0
-6.94694e-14 1.00041 0
-3.6043e-14 1.00041 0
7.54877e-14 1.0004 0
3.87991e-14 1.0004 0
-6.86245e-14 1.0004 0
-8.46545e-14 1.0004 0
6.27945e-14 1.00038 0
7.95573e-14 1.00038 0
-8.46545e-14 1.0004 0
-6.63193e-14 1.0004 0
7.95573e-14 1.00038 0
7.83318e-14 1.00038 0
-4.76659e-14 1.00038 0
-8.97131e-14 1.00038 0
5.39953e-14 1.00037 0
7.89392e-14 1.00037 0
-8.97131e-14 1.00038 0
-6.78996e-14 1.00038 0
7.89392e-14 1.00037 0
6.87741e-14 1.00037 0
-6.08678e-14 1.00037 0
-6.6229e-14 1.00037 0
6.29881e-14 1.00035 0
8.13277e-14 1.00035 0
-6.6229e-14 1.00037 0
-6.69005e-14 1.00037 0
8.13277e-14 1.00035 0
7.81988e-14 1.00035 0
-6.78996e-14 1.00038 0
-7.2783e-14 1.00038 0
6.87741e-14 1.00037 0
7.06778e-14 1.00037 0
-7.2783e-14 1.00038 0
-8.52178e-14 1.00038 0
7.06778e-14 1.00037 0
8.68989e-14 1.00037 0
-6.69005e-14 1.00037 0
-5.81942e-14 1.00037 0
7.81988e-14 1.00035 0
6.88915e-14 1.00035 0
-5.81942e-14 1.00037 0
-8.15116e-14 1.00037 0
6.88915e-14 1.00035 0
8.37469e-14 1.00035 0
-3.6043e-14 1.00041 0
-2.4925e-14 1.00041 0
3.87991e-14 1.0004 0
2.34518e-14 1.0004 0
-2.4925e-14 1.00041 0
-5.05409e-14 1.00041 0
2.34518e-14 1.0004 0
5.6377e-14 1.0004 0
-6.63193e-14 1.0004 0
-4.22696e-14 1.0004 0
7.83318e-14 1.00038 0
5.46405e-14 1.00038 0
-4.22696e-14 1.0004 0
-4.29419e-14 1.0004 0
5.46405e-14 1.00038 0
4.51593e-14 1.00038 0
-5.05409e-14 1.00041 0
-9.72884e-14 1.00041 0
5.6377e-14 1.0004 0
9.94341e-14 1.0004 0
-9.72884e-14 1.00041 0
-6.55872e-14 1.00041 0
9.94341e-14 1.0004 0
6.48142e-14 1.0004 0
-4.29419e-14 1.0004 0
-6.65753e-14 1.0004 0
4.51593e-14 1.00038 0
6.02836e-14 1.00038 0
-6.65753e-14 1.0004 0
-5.67189e-14 1.0004 0
6.02836e-14 1.00038 0
5.53689e-14 1.00038 0
-8.52178e-14 1.00038 0
-5.54885e-14 1.00038 0
8.68989e-14 1.00037 0
6.06604e-14 1.00037 0
-5.54885e-14 1.00038 0
-5.7231e-14 1.00038 0
6.06604e-14 1.00037 0
6.98372e-14 1.00037 0
-8.15116e-14 1.00037 0
-6.27441e-14 1.00037 0
8.37469e-14 1.00035 0
5.61713e-14 1.00035 0
-6.27441e-14 1.00037 0
-7.7475e-14 1.00037 0
5.61713e-14 1.00035 0
6.66927e-14 1.00035 0
-5.7231e-14 1.00038 0
-4.43443e-14 1.00038 0
6.98372e-14 1.00037 0
4.05374e-14 1.00037 0
-4.43443e-14 1.00038 0
-3.96207e-14 1.00038 0
4.05374e-14 1.00037 0
2.98649e-14 1.00037 0
-7.7475e-14 1.00037 0
-6.30296e-14 1.00037 0
6.66927e-14 1.00035 0
7.21858e-14 1.00035 0
-6.30296e-14 1.00037 0
-3.55545e-14 1.00037 0
7.21858e-14 1.00035 0
5.24872e-14 1.00035 0
0 1.00035 0
-1.40696e-14 1.00035 0
0 1.00034 0
1.22714e-14 1.00034 0
-1.40696e-14 1.00035 0
-2.16212e-14 1.00035 0
1.22714e-14 1.00034 0
1.65395e-14 1.00034 0
0 1.00034 0
-1.79082e-14 1.00034 0
0 1.00033 0
1.6168e-14 1.00033 0
-1.79082e-14 1.00034 0
-1.9627e-14 1.00034 0
1.6168e-14 1.00033 0
2.68691e-14 1.00033 0
-2.16212e-14 1.00035 0
-2.97456e-14 1.00035 0
1.65395e-14 1.00034 0
2.57586e-14 1.00034 0
-2.97456e-14 1.00035 0
-6.96103e-14 1.00035 0
2.57586e-14 1.00034 0
6.92135e-14 1.00034 0
-1.9627e-14 1.00034 0
-2.63594e-14 1.00034 0
2.68691e-14 1.00033 0
3.68706e-14 1.00033 0
-2.63594e-14 1.00034 0
-7.49499e-14 1.00034 0
3.68706e-14 1.00033 0
8.23696e-14 1.00033 0
0 1.00033 0
-1.48939e-15 1.00033 0
0 1.00031 0
1.38476e-15 1.00031 0
-1.48939e-15 1.00033 0
-4.47688e-14 1.00033 0
1.38476e-15 1.00031 0
4.07642e-14 1.00031 0
0 1.00031 0
-1.12457e-14 1.00031 0
0 1.0003 0
1.71018e-14 1.0003 0
-1.12457e-14 1.00031 0
-3.6658e-15 1.00031 0
1.71018e-14 1.0003 0
-5.68313e-15 1.0003 0
-4.47688e-14 1.00033 0
-6.67242e-14 1.00033 0
4.07642e-14 1.00031 0
6.56931e-14 1.00031 0
-6.67242e-14 1.00033 0
-7.91609e-14 1.00033 0
6.56931e-14 1.00031 0
7.09361e-14 1.00031 0
-3.6658e-15 1.00031 0
-4.3512e-14 1.00031 0
-5.68313e-15 1.0003 0
3.92493e-14 1.0003 0
-4.3512e-14 1.00031 0
-5.92726e-14 1.00031 0
3.92493e-14 1.0003 0
7.57765e-14 1.0003 0
-6.96103e-14 1.00035 0
-6.78731e-14 1.00035 0
6.92135e-14 1.00034 0
5.59113e-14 1.00034 0
-6.78731e-14 1.00035 0
-7.48915e-14 1.00035 0
5.59113e-14 1.00034 0
6.07752e-14 1.00034 0
-7.49499e-14 1.00034 0
-3.86808e-14 1.00034 0
8.23696e-14 1.00033 0
3.94205e-14 1.00033 0
-3.86808e-14 1.00034 0
-3.83395e-14 1.00034 0
3.94205e-14 1.00033 0
4.35875e-14 1.00033 0
-7.48915e-14 1.00035 0
-6.33081e-14 1.00035 0
6.07752e-14 1.00034 0
5.97835e-14 1.00034 0
-6.33081e-14 1.00035 0
-7.10882e-14 1.00035 0
5.97835e-14 1.00034 0
7.2021e-14 1.00034 0
-3.83395e-14 1.00034 0
-2.42411e-14 1.00034 0
4.35875e-14 1.00033 0
2.46375e-14 1.00033 0
-2.42411e-14 1.00034 0
-6.18772e-14 1.00034 0
2.46375e-14 1.00033 0
6.37762e-14 1.00033 0
-7.91609e-14 1.00033 0
-3.84169e-14 1.00033 0
7.09361e-14 1.00031 0
4.16969e-14 1.00031 0
-3.84169e-14 1.00033 0
-5.19146e-14 1.00033 0
4.16969e-14 1.00031 0
5.18388e-14 1.00031 0
-5.92726e-14 1.00031 0
-4.40723e-14 1.00031 0
7.57765e-14 1.0003 0
5.52527e-14 1.0003 0
-4.40723e-14 1.00031 0
-6.33272e-14 1.00031 0
5.52527e-14 1.0003 0
6.70089e-14 1.0003 0
-5.19146e-14 1.00033 0
-4.93963e-14 1.00033 0
5.18388e-14 1.00031 0
5.71743e-14 1.00031 0
-4.93963e-14 1.00033 0
-6.39156e-14 1.00033 0
5.71743e-14 1.00031 0
5.90503e-14 1.00031 0
-6.33272e-14 1.00031 0
-7.10238e-14 1.00031 0
6.70089e-14 1.0003 0
7.72965e-14 1.0003 0
-7.10238e-14 1.00031 0
-4.5652e-14 1.00031 0
7.72965e-14 1.0003 0
5.18145e-14 1.0003 0
0 1.0003 0
-1.64352e-14 1.0003 0
0 1.00029 0
1.81648e-14 1.00029 0
-1.64352e-14 1.0003 0
-6.28059e-16 1.0003 0
1.81648e-14 1.00029 0
6.82467e-15 1.00029 0
0 1.00029 0
-2.07811e-14 1.00029 0
0 1.00027 0
1.4397e-14 1.00027 0
-2.07811e-14 1.00029 0
-1.85922e-14 1.00029 0
1.4397e-14 1.00027 0
1.6117e-14 1.00027 0
-6.28059e-16 1.0003 0
-3.97132e-14 1.0003 0
6.82467e-15 1.00029 0
4.04032e-14 1.00029 0
-3.97132e-14 1.0003 0
-1.27919e-13 1.0003 0
4.04032e-14 1.00029 0
1.26293e-13 1.00029 0
-1.85922e-14 1.00029 0
-4.02744e-14 1.00029 0
1.6117e-14 1.00027 0
4.1513e-14 1.00027 0
-4.02744e-14 1.00029 0
-9.0247e-14 1.00029 0
4.1513e-14 1.00027 0
9.28657e-14 1.00027 0
0 1.00027 0
1.46804e-15 1.00027 0
0 1.00026 0
-1.46543e-14 1.00026 0
1.46804e-15 1.00027 0
-4.79972e-15 1.00027 0
-1.46543e-14 1.00026 0
-9.7373e-16 1.00026 0
0 1.00026 0
1.56346e-14 1.00026 0
0 1.00025 0
-1.02009e-14 1.00025 0
1.56346e-14 1.00026 0
-1.94679e-14 1.00026 0
-1.02009e-14 1.00025 0
2.50158e-14 1.00025 0
-4.79972e-15 1.00027 0
-3.95743e-14 1.00027 0
-9.7373e-16 1.00026 0
3.72121e-14 1.00026 0
-3.95743e-14 1.00027 0
-1.1036e-13 1.00027 0
3.72121e-14 1.00026 0
1.07274e-13 1.00026 0
-1.94679e-14 1.00026 0
-5.90758e-14 1.00026 0
2.50158e-14 1.00025 0
6.66825e-14 1.00025 0
-5.90758e-14 1.00026 0
-9.49719e-14 1.00026 0
6.66825e-14 1.00025 0
8.40489e-14 1.00025 0
-1.27919e-13 1.0003 0
-6.88296e-14 1.0003 0
1.26293e-13 1.00029 0
7.08759e-14 1.00029 0
-6.88296e-14 1.0003 0
-4.05361e-14 1.0003 0
7.08759e-14 1.00029 0
4.34173e-14 1.00029 0
-9.0247e-14 1.00029 0
-7.34252e-14 1.00029 0
9.28657e-14 1.00027 0
7.28131e-14 1.00027 0
-7.34252e-14 1.00029 0
-6.56437e-14 1.00029 0
7.28131e-14 1.00027 0
7.3832e-14 1.00027 0
-4.05361e-14 1.0003 0
-7.05664e-14 1.0003 0
4.34173e-14 1.00029 0
7.15717e-14 1.00029 0
-7.05664e-14 1.0003 0
-7.32965e-14 1.0003 0
7.15717e-14 1.00029 0
7.92621e-14 1.00029 0
-6.56437e-14 1.00029 0
-6.22745e-14 1.00029 0
7.3832e-14 1.00027 0
5.94361e-14 1.00027 0
-6.22745e-14 1.00029 0
-6.92302e-14 1.00029 0
5.94361e-14 1.00027 0
7.6348e-14 1.00027 0
-1.1036e-13 1.00027 0
-5.38543e-14 1.00027 0
1.07274e-13 1.00026 0
5.12244e-14 1.00026 0
-5.38543e-14 1.00027 0
-5.50955e-14 1.00027 0
5.12244e-14 1.00026 0
5.02943e-14 1.00026 0
-9.49719e-14 1.00026 0
-6.50149e-14 1.00026 0
8.40489e-14 1.00025 0
7.01727e-14 1.00025 0
-6.50149e-14 1.00026 0
-7.40888e-14 1.00026 0
7.01727e-14 1.00025 0
8.14969e-14 1.00025 0
-5.50955e-14 1.00027 0
-4.60916e-14 1.00027 0
5.02943e-14 1.00026 0
4.83034e-14 1.00026 0
-4.60916e-14 1.00027 0
-8.52268e-14 1.00027 0
4.83034e-14 1.00026 0
8.8736e-14 1.00026 0
-7.40888e-14 1.00026 0
-6.4741e-14 1.00026 0
8.14969e-14 1.00025 0
6.64032e-14 1.00025 0
-6.4741e-14 1.00026 0
-7.80139e-14 1.00026 0
6.64032e-14 1.00025 0
7.0066e-14 1.00025 0
-7.10882e-14 1.00035 0
-9.24563e-14 1.00035 0
7.2021e-14 1.00034 0
9.50446e-14 1.00034 0
-9.24563e-14 1.00035 0
-8.21379e-14 1.00035 0
9.50446e-14 1.00034 0
8.75436e-14 1.00034 0
-6.18772e-14 1.00034 0
-9.17612e-14 1.00034 0
6.37762e-14 1.00033 0
9.78737e-14 1.00033 0
-9.17612e-14 1.00034 0
-8.58496e-14 1.00034 0
9.78737e-14 1.00033 0
8.27578e-14 1.00033 0
-8.21379e-14 1.00035 0
-8.64586e-14 1.00035 0
8.75436e-14 1.00034 0
9.27292e-14 1.00034 0
-8.64586e-14 1.00035 0
-8.98735e-14 1.00035 0
9.27292e-14 1.00034 0
8.82765e-14 1.00034 0
-8.58496e-14 1.00034 0
-8.98575e-14 1.00034 0
8.27578e-14 1.00033 0
9.2072e-14 1.00033 0
-8.98575e-14 1.00034 0
-6.79634e-14 1.00034 0
9.2072e-14 1.00033 0
7.36404e-14 1.00033 0
-6.39156e-14 1.00033 0
-9.11662e-14 1.00033 0
5.90503e-14 1.00031 0
7.67707e-14 1.00031 0
-9.11662e-14 1.00033 0
-7.28373e-14 1.00033 0
7.67707e-14 1.00031 0
6.76117e-14 1.00031 0
-4.5652e-14 1.00031 0
-5.19404e-14 1.00031 0
5.18145e-14 1.0003 0
5.78492e-14 1.0003 0
-5.19404e-14 1.00031 0
-4.84743e-14 1.00031 0
5.78492e-14 1.0003 0
5.31391e-14 1.0003 0
-7.28373e-14 1.00033 0
-7.35203e-14 1.00033 0
6.76117e-14 1.00031 0
6.03647e-14 1.00031 0
-7.35203e-14 1.00033 0
-7.90008e-14 1.00033 0
6.03647e-14 1.00031 0
7.81256e-14 1.00031 0
-4.84743e-14 1.00031 0
-5.12562e-14 1.00031 0
5.31391e-14 1.0003 0
5.98422e-14 1.0003 0
-5.12562e-14 1.00031 0
-6.65764e-14 1.00031 0
5.98422e-14 1.0003 0
6.3165e-14 1.0003 0
-8.98735e-14 1.00035 0
-3.65172e-14 1.00035 0
8.82765e-14 1.00034 0
4.18567e-14 1.00034 0
-3.65172e-14 1.00035 0
-4.5986e-14 1.00035 0
4.18567e-14 1.00034 0
5.10112e-14 1.00034 0
-6.79634e-14 1.00034 0
-2.68907e-14 1.00034 0
7.36404e-14 1.00033 0
2.83784e-14 1.00033 0
-2.68907e-14 1.00034 0
-1.21905e-14 1.00034 0
2.83784e-14 1.00033 0
1.66899e-14 1.00033 0
-4.5986e-14 1.00035 0
-5.4247e-14 1.00035 0
5.10112e-14 1.00034 0
5.08755e-14 1.00034 0
-5.4247e-14 1.00035 0
-6.44138e-14 1.00035 0
5.08755e-14 1.00034 0
6.97807e-14 1.00034 0
-1.21905e-14 1.00034 0
-1.31582e-14 1.00034 0
1.66899e-14 1.00033 0
1.7652e-14 1.00033 0
-1.31582e-14 1.00034 0
-4.20741e-14 1.00034 0
1.7652e-14 1.00033 0
4.07218e-14 1.00033 0
-7.90008e-14 1.00033 0
-5.2473e-14 1.00033 0
7.81256e-14 1.00031 0
5.01407e-14 1.00031 0
-5.2473e-14 1.00033 0
-6.08391e-14 1.00033 0
5.01407e-14 1.00031 0
6.82991e-14 1.00031 0
-6.65764e-14 1.00031 0
-2.85477e-14 1.00031 0
6.3165e-14 1.0003 0
3.99125e-14 1.0003 0
-2.85477e-14 1.00031 0
-5.87372e-14 1.00031 0
3.99125e-14 1.0003 0
6.79209e-14 1.0003 0
-6.08391e-14 1.00033 0
-4.09582e-14 1.00033 0
6.82991e-14 1.00031 0
5.2234e-14 1.00031 0
-4.09582e-14 1.00033 0
-4.42473e-14 1.00033 0
5.2234e-14 1.00031 0
4.33356e-14 1.00031 0
-5.87372e-14 1.00031 0
-2.93267e-14 1.00031 0
6.79209e-14 1.0003 0
2.46326e-14 1.0003 0
-2.93267e-14 1.00031 0
-3.13743e-14 1.00031 0
2.46326e-14 1.0003 0
4.83409e-14 1.0003 0
-7.32965e-14 1.0003 0
-8.81711e-14 1.0003 0
7.92621e-14 1.00029 0
1.00503e-13 1.00029 0
-8.81711e-14 1.0003 0
-7.73401e-14 1.0003 0
1.00503e-13 1.00029 0
7.817e-14 1.00029 0
-6.92302e-14 1.00029 0
-7.69884e-14 1.00029 0
7.6348e-14 1.00027 0
6.66389e-14 1.00027 0
-7.69884e-14 1.00029 0
-5.29823e-14 1.00029 0
6.66389e-14 1.00027 0
5.38618e-14 1.00027 0
-7.73401e-14 1.0003 0
-8.03147e-14 1.0003 0
7.817e-14 1.00029 0
8.55842e-14 1.00029 0
-8.03147e-14 1.0003 0
-6.2938e-14 1.0003 0
8.55842e-14 1.00029 0
7.39086e-14 1.00029 0