# vtk DataFile Version 3.0
#This file was generated by the deal.II library on 2018/10/12 at 0:26:19
ASCII
DATASET UNSTRUCTURED_GRID

POINTS 5120 double
0 0 0
0.392699 0 0
0 0.610687 0
0.392699 0.610687 0
0.392699 0 0
0.785398 0 0
0.392699 0.610687 0
0.785398 0.610687 0
0 0.610687 0
0.392699 0.610687 0
0 1.23677 0
0.392699 1.23677 0
0.392699 0.610687 0
0.785398 0.610687 0
0.392699 1.23677 0
0.785398 1.23677 0
0.785398 0 0
1.1781 0 0
0.785398 0.610687 0
1.1781 0.610687 0
1.1781 0 0
1.5708 0 0
1.1781 0.610687 0
1.5708 0.610687 0
0.785398 0.610687 0
1.1781 0.610687 0
0.785398 1.23677 0
1.1781 1.23677 0
1.1781 0.610687 0
1.5708 0.610687 0
1.1781 1.23677 0
1.5708 1.23677 0
0 1.23677 0
0.392699 1.23677 0
0 1.86225 0
0.392699 1.86225 0
0.392699 1.23677 0
0.785398 1.23677 0
0.392699 1.86225 0
0.785398 1.86225 0
0 1.86225 0
0.392699 1.86225 0
0 2.48823 0
0.392699 2.48823 0
0.392699 1.86225 0
0.785398 1.86225 0
0.392699 2.48823 0
0.785398 2.48823 0
0.785398 1.23677 0
1.1781 1.23677 0
0.785398 1.86225 0
1.1781 1.86225 0
1.1781 1.23677 0
1.5708 1.23677 0
1.1781 1.86225 0
1.5708 1.86225 0
0.785398 1.86225 0
1.1781 1.86225 0
0.785398 2.48823 0
1.1781 2.48823 0
1.1781 1.86225 0
1.5708 1.86225 0
1.1781 2.48823 0
1.5708 2.48823 0
1.5708 0 0
1.9635 0 0
1.5708 0.610687 0
1.9635 0.610687 0
1.9635 0 0
2.35619 0 0
1.9635 0.610687 0
2.35619 0.610687 0
1.5708 0.610687 0
1.9635 0.610687 0
1.5708 1.23677 0
1.9635 1.23677 0
1.9635 0.610687 0
2.35619 0.610687 0
1.9635 1.23677 0
2.35619 1.23677 0
2.35619 0 0
2.74889 0 0
2.35619 0.610687 0
2.74889 0.610687 0
2.74889 0 0
3.14159 0 0
2.74889 0.610687 0
3.14159 0.610687 0
2.35619 0.610687 0
2.74889 0.610687 0
2.35619 1.23677 0
2.74889 1.23677 0
2.74889 0.610687 0
3.14159 0.610687 0
2.74889 1.23677 0
3.14159 1.23677 0
1.5708 1.23677 0
1.9635 1.23677 0
1.5708 1.86225 0
1.9635 1.86225 0
1.9635 1.23677 0
2.35619 1.23677 0
1.9635 1.86225 0
2.35619 1.86225 0
1.5708 1.86225 0
1.9635 1.86225 0
1.5708 2.48823 0
1.9635 2.48823 0
1.9635 1.86225 0
2.35619 1.86225 0
1.9635 2.48823 0
2.35619 2.48823 0
2.35619 1.23677 0
2.74889 1.23677 0
2.35619 1.86225 0
2.74889 1.86225 0
2.74889 1.23677 0
3.14159 1.23677 0
2.74889 1.86225 0
3.14159 1.86225 0
2.35619 1.86225 0
2.74889 1.86225 0
2.35619 2.48823 0
2.74889 2.48823 0
2.74889 1.86225 0
3.14159 1.86225 0
2.74889 2.48823 0
3.14159 2.48823 0
0 2.48823 0
0.392699 2.48823 0
0 3.11408 0
0.392699 3.11408 0
0.392699 2.48823 0
0.785398 2.48823 0
0.392699 3.11408 0
0.785398 3.11408 0
0 3.11408 0
0.392699 3.11408 0
0 3.73993 0
0.392699 3.73993 0
0.392699 3.11408 0
0.785398 3.11408 0
0.392699 3.73993 0
0.785398 3.73993 0
0.785398 2.48823 0
1.1781 2.48823 0
0.785398 3.11408 0
1.1781 3.11408 0
1.1781 2.48823 0
1.5708 2.48823 0
1.1781 3.11408 0
1.5708 3.11408 0
0.785398 3.11408 0
1.1781 3.11408 0
0.785398 3.73993 0
1.1781 3.73993 0
1.1781 3.11408 0
1.5708 3.11408 0
1.1781 3.73993 0
1.5708 3.73993 0
0 3.73993 0
0.392699 3.73993 0
0 4.36574 0
0.392699 4.36574 0
0.392699 3.73993 0
0.785398 3.73993 0
0.392699 4.36574 0
0.785398 4.36574 0
0 4.36574 0
0.392699 4.36574 0
0 4.99151 0
0.392699 4.99151 0
0.392699 4.36574 0
0.785398 4.36574 0
0.392699 4.99151 0
0.785398 4.99151 0
0.785398 3.73993 0
1.1781 3.73993 0
0.785398 4.36574 0
1.1781 4.36574 0
1.1781 3.73993 0
1.5708 3.73993 0
1.1781 4.36574 0
1.5708 4.36574 0
0.785398 4.36574 0
1.1781 4.36574 0
0.785398 4.99151 0
1.1781 4.99151 0
1.1781 4.36574 0
1.5708 4.36574 0
1.1781 4.99151 0
1.5708 4.99151 0
1.5708 2.48823 0
1.9635 2.48823 0
1.5708 3.11408 0
1.9635 3.11408 0
1.9635 2.48823 0
2.35619 2.48823 0
1.9635 3.11408 0
2.35619 3.11408 0
1.5708 3.11408 0
1.9635 3.11408 0
1.5708 3.73993 0
1.9635 3.73993 0
1.9635 3.11408 0
2.35619 3.11408 0
1.9635 3.73993 0
2.35619 3.73993 0
2.35619 2.48823 0
2.74889 2.48823 0
2.35619 3.11408 0
2.74889 3.11408 0
2.74889 2.48823 0
3.14159 2.48823 0
2.74889 3.11408 0
3.14159 3.11408 0
2.35619 3.11408 0
2.74889 3.11408 0
2.35619 3.73993 0
2.74889 3.73993 0
2.74889 3.11408 0
3.14159 3.11408 0
2.74889 3.73993 0
3.14159 3.73993 0
1.5708 3.73993 0
1.9635 3.73993 0
1.5708 4.36574 0
1.9635 4.36574 0
1.9635 3.73993 0
2.35619 3.73993 0
1.9635 4.36574 0
2.35619 4.36574 0
1.5708 4.36574 0
1.9635 4.36574 0
1.5708 4.99151 0
1.9635 4.99151 0
1.9635 4.36574 0
2.35619 4.36574 0
1.9635 4.99151 0
2.35619 4.99151 0
2.35619 3.73993 0
2.74889 3.73993 0
2.35619 4.36574 0
2.74889 4.36574 0
2.74889 3.73993 0
3.14159 3.73993 0
2.74889 4.36574 0
3.14159 4.36574 0
2.35619 4.36574 0
2.74889 4.36574 0
2.35619 4.99151 0
2.74889 4.99151 0
2.74889 4.36574 0
3.14159 4.36574 0
2.74889 4.99151 0
3.14159 4.99151 0
3.14159 0 0
3.53429 0 0
3.14159 0.610687 0
3.53429 0.610687 0
3.53429 0 0
3.92699 0 0
3.53429 0.610687 0
3.92699 0.610687 0
3.14159 0.610687 0
3.53429 0.610687 0
3.14159 1.23677 0
3.53429 1.23677 0
3.53429 0.610687 0
3.92699 0.610687 0
3.53429 1.23677 0
3.92699 1.23677 0
3.92699 0 0
4.31969 0 0
3.92699 0.610687 0
4.31969 0.610687 0
4.31969 0 0
4.71239 0 0
4.31969 0.610687 0
4.71239 0.610687 0
3.92699 0.610687 0
4.31969 0.610687 0
3.92699 1.23677 0
4.31969 1.23677 0
4.31969 0.610687 0
4.71239 0.610687 0
4.31969 1.23677 0
4.71239 1.23677 0
3.14159 1.23677 0
3.53429 1.23677 0
3.14159 1.86225 0
3.53429 1.86225 0
3.53429 1.23677 0
3.92699 1.23677 0
3.53429 1.86225 0
3.92699 1.86225 0
3.14159 1.86225 0
3.53429 1.86225 0
3.14159 2.48823 0
3.53429 2.48823 0
3.53429 1.86225 0
3.92699 1.86225 0
3.53429 2.48823 0
3.92699 2.48823 0
3.92699 1.23677 0
4.31969 1.23677 0
3.92699 1.86225 0
4.31969 1.86225 0
4.31969 1.23677 0
4.71239 1.23677 0
4.31969 1.86225 0
4.71239 1.86225 0
3.92699 1.86225 0
4.31969 1.86225 0
3.92699 2.48823 0
4.31969 2.48823 0
4.31969 1.86225 0
4.71239 1.86225 0
4.31969 2.48823 0
4.71239 2.48823 0
4.71239 0 0
5.10509 0 0
4.71239 0.610687 0
5.10509 0.610687 0
5.10509 0 0
5.49779 0 0
5.10509 0.610687 0
5.49779 0.610687 0
4.71239 0.610687 0
5.10509 0.610687 0
4.71239 1.23677 0
5.10509 1.23677 0
5.10509 0.610687 0
5.49779 0.610687 0
5.10509 1.23677 0
5.49779 1.23677 0
5.49779 0 0
5.89049 0 0
5.49779 0.610687 0
5.89049 0.610687 0
5.89049 0 0
6.28319 0 0
5.89049 0.610687 0
6.28319 0.610687 0
5.49779 0.610687 0
5.89049 0.610687 0
5.49779 1.23677 0
5.89049 1.23677 0
5.89049 0.610687 0
6.28319 0.610687 0
5.89049 1.23677 0
6.28319 1.23677 0
4.71239 1.23677 0
5.10509 1.23677 0
4.71239 1.86225 0
5.10509 1.86225 0
5.10509 1.23677 0
5.49779 1.23677 0
5.10509 1.86225 0
5.49779 1.86225 0
4.71239 1.86225 0
5.10509 1.86225 0
4.71239 2.48823 0
5.10509 2.48823 0
5.10509 1.86225 0
5.49779 1.86225 0
5.10509 2.48823 0
5.49779 2.48823 0
5.49779 1.23677 0
5.89049 1.23677 0
5.49779 1.86225 0
5.89049 1.86225 0
5.89049 1.23677 0
6.28319 1.23677 0
5.89049 1.86225 0
6.28319 1.86225 0
5.49779 1.86225 0
5.89049 1.86225 0
5.49779 2.48823 0
5.89049 2.48823 0
5.89049 1.86225 0
6.28319 1.86225 0
5.89049 2.48823 0
6.28319 2.48823 0
3.14159 2.48823 0
3.53429 2.48823 0
3.14159 3.11408 0
3.53429 3.11408 0
3.53429 2.48823 0
3.92699 2.48823 0
3.53429 3.11408 0
3.92699 3.11408 0
3.14159 3.11408 0
3.53429 3.11408 0
3.14159 3.73993 0
3.53429 3.73993 0
3.53429 3.11408 0
3.92699 3.11408 0
3.53429 3.73993 0
3.92699 3.73993 0
3.92699 2.48823 0
4.31969 2.48823 0
3.92699 3.11408 0
4.31969 3.11408 0
4.31969 2.48823 0
4.71239 2.48823 0
4.31969 3.11408 0
4.71239 3.11408 0
3.92699 3.11408 0
4.31969 3.11408 0
3.92699 3.73993 0
4.31969 3.73993 0
4.31969 3.11408 0
4.71239 3.11408 0
4.31969 3.73993 0
4.71239 3.73993 0
3.14159 3.73993 0
3.53429 3.73993 0
3.14159 4.36574 0
3.53429 4.36574 0
3.53429 3.73993 0
3.92699 3.73993 0
3.53429 4.36574 0
3.92699 4.36574 0
3.14159 4.36574 0
3.53429 4.36574 0
3.14159 4.99151 0
3.53429 4.99151 0
3.53429 4.36574 0
3.92699 4.36574 0
3.53429 4.99151 0
3.92699 4.99151 0
3.92699 3.73993 0
4.31969 3.73993 0
3.92699 4.36574 0
4.31969 4.36574 0
4.31969 3.73993 0
4.71239 3.73993 0
4.31969 4.36574 0
4.71239 4.36574 0
3.92699 4.36574 0
4.31969 4.36574 0
3.92699 4.99151 0
4.31969 4.99151 0
4.31969 4.36574 0
4.71239 4.36574 0
4.31969 4.99151 0
4.71239 4.99151 0
4.71239 2.48823 0
5.10509 2.48823 0
4.71239 3.11408 0
5.10509 3.11408 0
5.10509 2.48823 0
5.49779 2.48823 0
5.10509 3.11408 0
5.49779 3.11408 0
4.71239 3.11408 0
5.10509 3.11408 0
4.71239 3.73993 0
5.10509 3.73993 0
5.10509 3.11408 0
5.49779 3.11408 0
5.10509 3.73993 0
5.49779 3.73993 0
5.49779 2.48823 0
5.89049 2.48823 0
5.49779 3.11408 0
5.89049 3.11408 0
5.89049 2.48823 0
6.28319 2.48823 0
5.89049 3.11408 0
6.28319 3.11408 0
5.49779 3.11408 0
5.89049 3.11408 0
5.49779 3.73993 0
5.89049 3.73993 0
5.89049 3.11408 0
6.28319 3.11408 0
5.89049 3.73993 0
6.28319 3.73993 0
4.71239 3.73993 0
5.10509 3.73993 0
4.71239 4.36574 0
5.10509 4.36574 0
5.10509 3.73993 0
5.49779 3.73993 0
5.10509 4.36574 0
5.49779 4.36574 0
4.71239 4.36574 0
5.10509 4.36574 0
4.71239 4.99151 0
5.10509 4.99151 0
5.10509 4.36574 0
5.49779 4.36574 0
5.10509 4.99151 0
5.49779 4.99151 0
5.49779 3.73993 0
5.89049 3.73993 0
5.49779 4.36574 0
5.89049 4.36574 0
5.89049 3.73993 0
6.28319 3.73993 0
5.89049 4.36574 0
6.28319 4.36574 0
5.49779 4.36574 0
5.89049 4.36574 0
5.49779 4.99151 0
5.89049 4.99151 0
5.89049 4.36574 0
6.28319 4.36574 0
5.89049 4.99151 0
6.28319 4.99151 0
0 4.99151 0
0.392699 4.99151 0
0 5.61724 0
0.392699 5.61724 0
0.392699 4.99151 0
0.785398 4.99151 0
0.392699 5.61724 0
0.785398 5.61724 0
0 5.61724 0
0.392699 5.61724 0
0 6.24291 0
0.392699 6.24291 0
0.392699 5.61724 0
0.785398 5.61724 0
0.392699 6.24291 0
0.785398 6.24291 0
0.785398 4.99151 0
1.1781 4.99151 0
0.785398 5.61724 0
1.1781 5.61724 0
1.1781 4.99151 0
1.5708 4.99151 0
1.1781 5.61724 0
1.5708 5.61724 0
0.785398 5.61724 0
1.1781 5.61724 0
0.785398 6.24291 0
1.1781 6.24291 0
1.1781 5.61724 0
1.5708 5.61724 0
1.1781 6.24291 0
1.5708 6.24291 0
0 6.24291 0
0.392699 6.24291 0
0 6.86856 0
0.392699 6.86856 0
0.392699 6.24291 0
0.785398 6.24291 0
0.392699 6.86856 0
0.785398 6.86856 0
0 6.86856 0
0.392699 6.86856 0
0 7.49421 0
0.392699 7.49421 0
0.392699 6.86856 0
0.785398 6.86856 0
0.392699 7.49421 0
0.785398 7.49421 0
0.785398 6.24291 0
1.1781 6.24291 0
0.785398 6.86856 0
[...]
POINT_DATA 5120
VECTORS uf double
0 1 0
-4.48181e-14 1 0
0 1.00227 0
-4.11171e-14 1.00227 0
-4.48181e-14 1 0
-1.05454e-14 1 0
-4.11171e-14 1.00227 0
-4.56963e-15 1.00227 0
0 1.00227 0
4.4317e-15 1.00227 0
0 1.00342 0
6.73254e-15 1.00342 0
4.4317e-15 1.00227 0
1.40698e-14 1.00227 0
6.73254e-15 1.00342 0
1.84734e-14 1.00342 0
-1.05454e-14 1 0
7.23434e-14 1 0
-4.56963e-15 1.00227 0
7.88001e-14 1.00227 0
7.23434e-14 1 0
-7.82083e-16 1 0
7.88001e-14 1.00227 0
1.05091e-14 1.00227 0
1.40698e-14 1.00227 0
-8.2707e-14 1.00227 0
1.84734e-14 1.00342 0
-6.36796e-14 1.00342 0
-8.2707e-14 1.00227 0
-7.75183e-15 1.00227 0
-6.36796e-14 1.00342 0
2.96632e-15 1.00342 0
0 1.00342 0
1.1547e-14 1.00342 0
0 1.00484 0
1.74687e-14 1.00484 0
1.1547e-14 1.00342 0
-2.08658e-14 1.00342 0
1.74687e-14 1.00484 0
-1.33089e-14 1.00484 0
0 1.00484 0
2.67809e-14 1.00484 0
0 1.00615 0
3.07639e-14 1.00615 0
2.67809e-14 1.00484 0
5.01665e-14 1.00484 0
3.07639e-14 1.00615 0
4.53527e-14 1.00615 0
-2.08658e-14 1.00342 0
-9.50334e-15 1.00342 0
-1.33089e-14 1.00484 0
4.46598e-15 1.00484 0
-9.50334e-15 1.00342 0
-1.31132e-14 1.00342 0
4.46598e-15 1.00484 0
1.11156e-14 1.00484 0
5.01665e-14 1.00484 0
1.61067e-15 1.00484 0
4.53527e-14 1.00615 0
1.0013e-14 1.00615 0
1.61067e-15 1.00484 0
-2.63691e-14 1.00484 0
1.0013e-14 1.00615 0
-1.46697e-14 1.00615 0
-7.82083e-16 1 0
-2.38189e-14 1 0
1.05091e-14 1.00227 0
-9.11335e-17 1.00227 0
-2.38189e-14 1 0
-9.48663e-15 1 0
-9.11335e-17 1.00227 0
1.72775e-14 1.00227 0
-7.75183e-15 1.00227 0
9.19269e-15 1.00227 0
2.96632e-15 1.00342 0
2.30451e-14 1.00342 0
9.19269e-15 1.00227 0
-1.06158e-14 1.00227 0
2.30451e-14 1.00342 0
1.06206e-14 1.00342 0
-9.48663e-15 1 0
3.18519e-15 1 0
1.72775e-14 1.00227 0
1.49761e-15 1.00227 0
3.18519e-15 1 0
2.15801e-15 1 0
1.49761e-15 1.00227 0
9.57774e-16 1.00227 0
-1.06158e-14 1.00227 0
-8.74776e-15 1.00227 0
1.06206e-14 1.00342 0
1.25404e-14 1.00342 0
-8.74776e-15 1.00227 0
4.70591e-15 1.00227 0
1.25404e-14 1.00342 0
-1.09525e-16 1.00342 0
-1.31132e-14 1.00342 0
5.15091e-15 1.00342 0
1.11156e-14 1.00484 0
2.36561e-14 1.00484 0
5.15091e-15 1.00342 0
-6.32049e-15 1.00342 0
2.36561e-14 1.00484 0
8.63451e-15 1.00484 0
-2.63691e-14 1.00484 0
-8.79349e-15 1.00484 0
-1.46697e-14 1.00615 0
2.57342e-15 1.00615 0
-8.79349e-15 1.00484 0
-3.14971e-15 1.00484 0
2.57342e-15 1.00615 0
4.74665e-16 1.00615 0
-6.32049e-15 1.00342 0
-9.51021e-15 1.00342 0
8.63451e-15 1.00484 0
9.68439e-15 1.00484 0
-9.51021e-15 1.00342 0
-2.65378e-15 1.00342 0
9.68439e-15 1.00484 0
7.70634e-15 1.00484 0
-3.14971e-15 1.00484 0
-5.64947e-15 1.00484 0
4.74665e-16 1.00615 0
7.27905e-15 1.00615 0
-5.64947e-15 1.00484 0
-5.93918e-15 1.00484 0
7.27905e-15 1.00615 0
3.34018e-15 1.00615 0
0 1.00615 0
-2.3569e-14 1.00615 0
0 1.00746 0
-2.08591e-14 1.00746 0
-2.3569e-14 1.00615 0
-5.69084e-14 1.00615 0
-2.08591e-14 1.00746 0
-4.8958e-14 1.00746 0
0 1.00746 0
1.54901e-14 1.00746 0
0 1.00875 0
1.02995e-14 1.00875 0
1.54901e-14 1.00746 0
7.64321e-14 1.00746 0
1.02995e-14 1.00875 0
7.48824e-14 1.00875 0
-5.69084e-14 1.00615 0
-1.18262e-14 1.00615 0
-4.8958e-14 1.00746 0
2.91432e-15 1.00746 0
-1.18262e-14 1.00615 0
4.84627e-14 1.00615 0
2.91432e-15 1.00746 0
4.61046e-14 1.00746 0
7.64321e-14 1.00746 0
6.00313e-15 1.00746 0
7.48824e-14 1.00875 0
1.40235e-14 1.00875 0
6.00313e-15 1.00746 0
-5.40409e-14 1.00746 0
1.40235e-14 1.00875 0
-4.49519e-14 1.00875 0
0 1.00875 0
1.83407e-14 1.00875 0
0 1.01001 0
9.4111e-15 1.01001 0
1.83407e-14 1.00875 0
-1.20903e-13 1.00875 0
9.4111e-15 1.01001 0
-1.21978e-13 1.01001 0
0 1.01001 0
-6.81761e-15 1.01001 0
0 1.01126 0
-4.53347e-15 1.01126 0
-6.81761e-15 1.01001 0
9.77589e-14 1.01001 0
-4.53347e-15 1.01126 0
1.05832e-13 1.01126 0
-1.20903e-13 1.00875 0
-8.8886e-15 1.00875 0
-1.21978e-13 1.01001 0
-1.47168e-15 1.01001 0
-8.8886e-15 1.00875 0
8.19713e-14 1.00875 0
-1.47168e-15 1.01001 0
8.48816e-14 1.01001 0
9.77589e-14 1.01001 0
7.46676e-15 1.01001 0
1.05832e-13 1.01126 0
3.79139e-15 1.01126 0
7.46676e-15 1.01001 0
-1.13056e-13 1.01001 0
3.79139e-15 1.01126 0
-1.04257e-13 1.01126 0
4.84627e-14 1.00615 0
-1.93254e-14 1.00615 0
4.61046e-14 1.00746 0
-1.09668e-14 1.00746 0
-1.93254e-14 1.00615 0
-5.26461e-15 1.00615 0
-1.09668e-14 1.00746 0
4.03034e-15 1.00746 0
-5.40409e-14 1.00746 0
5.21701e-15 1.00746 0
-4.49519e-14 1.00875 0
4.47044e-15 1.00875 0
5.21701e-15 1.00746 0
-3.14618e-15 1.00746 0
4.47044e-15 1.00875 0
2.63877e-15 1.00875 0
-5.26461e-15 1.00615 0
-6.83612e-15 1.00615 0
4.03034e-15 1.00746 0
3.49649e-15 1.00746 0
-6.83612e-15 1.00615 0
-6.88842e-15 1.00615 0
3.49649e-15 1.00746 0
6.1057e-15 1.00746 0
-3.14618e-15 1.00746 0
-3.6483e-15 1.00746 0
2.63877e-15 1.00875 0
5.94941e-15 1.00875 0
-3.6483e-15 1.00746 0
1.02728e-15 1.00746 0
5.94941e-15 1.00875 0
8.61663e-15 1.00875 0
8.19713e-14 1.00875 0
9.14782e-15 1.00875 0
8.48816e-14 1.01001 0
9.63333e-15 1.01001 0
9.14782e-15 1.00875 0
-2.58513e-15 1.00875 0
9.63333e-15 1.01001 0
7.23647e-15 1.01001 0
-1.13056e-13 1.01001 0
-1.96991e-14 1.01001 0
-1.04257e-13 1.01126 0
-1.60223e-14 1.01126 0
-1.96991e-14 1.01001 0
-9.68761e-15 1.01001 0
-1.60223e-14 1.01126 0
1.06575e-14 1.01126 0
-2.58513e-15 1.00875 0
-2.33035e-15 1.00875 0
7.23647e-15 1.01001 0
3.35335e-15 1.01001 0
-2.33035e-15 1.00875 0
-5.16557e-15 1.00875 0
3.35335e-15 1.01001 0
7.45493e-15 1.01001 0
-9.68761e-15 1.01001 0
-6.8988e-15 1.01001 0
1.06575e-14 1.01126 0
5.68468e-15 1.01126 0
-6.8988e-15 1.01001 0
-7.05139e-15 1.01001 0
5.68468e-15 1.01126 0
4.07635e-15 1.01126 0
2.15801e-15 1 0
-2.56084e-15 1 0
9.57774e-16 1.00227 0
1.47023e-14 1.00227 0
-2.56084e-15 1 0
7.92119e-15 1 0
1.47023e-14 1.00227 0
3.9523e-15 1.00227 0
4.70591e-15 1.00227 0
2.12485e-17 1.00227 0
-1.09525e-16 1.00342 0
3.15558e-15 1.00342 0
2.12485e-17 1.00227 0
3.16678e-16 1.00227 0
3.15558e-15 1.00342 0
-4.82218e-16 1.00342 0
7.92119e-15 1 0
5.11268e-15 1 0
3.9523e-15 1.00227 0
8.00057e-15 1.00227 0
5.11268e-15 1 0
-5.78152e-15 1 0
8.00057e-15 1.00227 0
2.14431e-14 1.00227 0
3.16678e-16 1.00227 0
-7.25152e-15 1.00227 0
-4.82218e-16 1.00342 0
9.87903e-15 1.00342 0
-7.25152e-15 1.00227 0
-8.40024e-15 1.00227 0
9.87903e-15 1.00342 0
8.81789e-15 1.00342 0
-2.65378e-15 1.00342 0
-6.85258e-15 1.00342 0
7.70634e-15 1.00484 0
2.20974e-15 1.00484 0
-6.85258e-15 1.00342 0
-3.42918e-15 1.00342 0
2.20974e-15 1.00484 0
4.44838e-15 1.00484 0
-5.93918e-15 1.00484 0
2.17184e-15 1.00484 0
3.34018e-15 1.00615 0
4.174e-15 1.00615 0
2.17184e-15 1.00484 0
-3.16923e-16 1.00484 0
4.174e-15 1.00615 0
4.93357e-15 1.00615 0
-3.42918e-15 1.00342 0
3.34753e-15 1.00342 0
4.44838e-15 1.00484 0
-1.87627e-16 1.00484 0
3.34753e-15 1.00342 0
-9.56677e-15 1.00342 0
-1.87627e-16 1.00484 0
1.11573e-14 1.00484 0
-3.16923e-16 1.00484 0
-9.09274e-15 1.00484 0
4.93357e-15 1.00615 0
6.90079e-15 1.00615 0
-9.09274e-15 1.00484 0
4.75781e-15 1.00484 0
6.90079e-15 1.00615 0
-5.83804e-16 1.00615 0
-5.78152e-15 1 0
3.51966e-16 1 0
2.14431e-14 1.00227 0
1.65731e-14 1.00227 0
3.51966e-16 1 0
6.24607e-16 1 0
1.65731e-14 1.00227 0
1.94718e-14 1.00227 0
-8.40024e-15 1.00227 0
-3.18518e-15 1.00227 0
8.81789e-15 1.00342 0
5.77437e-15 1.00342 0
-3.18518e-15 1.00227 0
-1.65696e-14 1.00227 0
5.77437e-15 1.00342 0
1.74879e-14 1.00342 0
6.24607e-16 1 0
2.23247e-15 1 0
1.94718e-14 1.00227 0
1.54924e-14 1.00227 0
2.23247e-15 1 0
1.0019e-14 1 0
1.54924e-14 1.00227 0
7.2707e-15 1.00227 0
-1.65696e-14 1.00227 0
-4.80319e-15 1.00227 0
1.74879e-14 1.00342 0
8.51699e-15 1.00342 0
-4.80319e-15 1.00227 0
-1.80516e-15 1.00227 0
8.51699e-15 1.00342 0
3.37528e-15 1.00342 0
-9.56677e-15 1.00342 0
-1.61915e-14 1.00342 0
1.11573e-14 1.00484 0
1.34019e-14 1.00484 0
-1.61915e-14 1.00342 0
6.70008e-16 1.00342 0
1.34019e-14 1.00484 0
1.82526e-15 1.00484 0
4.75781e-15 1.00484 0
5.31805e-16 1.00484 0
-5.83804e-16 1.00615 0
3.69143e-16 1.00615 0
5.31805e-16 1.00484 0
-4.68871e-15 1.00484 0
3.69143e-16 1.00615 0
1.44164e-15 1.00615 0
6.70008e-16 1.00342 0
-8.91582e-15 1.00342 0
1.82526e-15 1.00484 0
1.19152e-14 1.00484 0
-8.91582e-15 1.00342 0
-8.20839e-15 1.00342 0
1.19152e-14 1.00484 0
1.04866e-14 1.00484 0
-4.68871e-15 1.00484 0
-2.6161e-15 1.00484 0
1.44164e-15 1.00615 0
6.71939e-15 1.00615 0
-2.6161e-15 1.00484 0
-4.96816e-15 1.00484 0
6.71939e-15 1.00615 0
9.20275e-15 1.00615 0
-6.88842e-15 1.00615 0
-3.51934e-15 1.00615 0
6.1057e-15 1.00746 0
3.83225e-15 1.00746 0
-3.51934e-15 1.00615 0
-7.21201e-15 1.00615 0
3.83225e-15 1.00746 0
3.64123e-15 1.00746 0
1.02728e-15 1.00746 0
-1.18526e-14 1.00746 0
8.61663e-15 1.00875 0
1.04418e-14 1.00875 0
-1.18526e-14 1.00746 0
5.26556e-15 1.00746 0
1.04418e-14 1.00875 0
3.64098e-15 1.00875 0
-7.21201e-15 1.00615 0
-1.74266e-15 1.00615 0
3.64123e-15 1.00746 0
5.87519e-15 1.00746 0
-1.74266e-15 1.00615 0
-3.14397e-15 1.00615 0
5.87519e-15 1.00746 0
5.52346e-15 1.00746 0
5.26556e-15 1.00746 0
-1.15333e-15 1.00746 0
3.64098e-15 1.00875 0
1.42977e-16 1.00875 0
-1.15333e-15 1.00746 0
-9.15012e-16 1.00746 0
1.42977e-16 1.00875 0
4.05169e-15 1.00875 0
-5.16557e-15 1.00875 0
-4.51098e-15 1.00875 0
7.45493e-15 1.01001 0
1.23108e-14 1.01001 0
-4.51098e-15 1.00875 0
-5.28996e-15 1.00875 0
1.23108e-14 1.01001 0
2.38293e-15 1.01001 0
-7.05139e-15 1.01001 0
-8.26219e-15 1.01001 0
4.07635e-15 1.01126 0
1.10377e-14 1.01126 0
-8.26219e-15 1.01001 0
6.58491e-15 1.01001 0
1.10377e-14 1.01126 0
3.51117e-15 1.01126 0
-5.28996e-15 1.00875 0
-2.33902e-15 1.00875 0
2.38293e-15 1.01001 0
3.13222e-15 1.01001 0
-2.33902e-15 1.00875 0
-5.31849e-15 1.00875 0
3.13222e-15 1.01001 0
7.68192e-15 1.01001 0
6.58491e-15 1.01001 0
6.74252e-15 1.01001 0
3.51117e-15 1.01126 0
3.06344e-16 1.01126 0
6.74252e-15 1.01001 0
-1.15884e-15 1.01001 0
3.06344e-16 1.01126 0
7.20961e-15 1.01126 0
-3.14397e-15 1.00615 0
1.35491e-15 1.00615 0
5.52346e-15 1.00746 0
3.97361e-15 1.00746 0
1.35491e-15 1.00615 0
-1.41097e-15 1.00615 0
3.97361e-15 1.00746 0
1.10601e-14 1.00746 0
-9.15012e-16 1.00746 0
-3.52091e-15 1.00746 0
4.05169e-15 1.00875 0
5.59888e-15 1.00875 0
-3.52091e-15 1.00746 0
-1.35297e-16 1.00746 0
5.59888e-15 1.00875 0
8.87595e-16 1.00875 0
-1.41097e-15 1.00615 0
4.05259e-15 1.00615 0
1.10601e-14 1.00746 0
1.85321e-15 1.00746 0
4.05259e-15 1.00615 0
3.31559e-15 1.00615 0
1.85321e-15 1.00746 0
2.90554e-15 1.00746 0
-1.35297e-16 1.00746 0
-1.92599e-15 1.00746 0
8.87595e-16 1.00875 0
5.91224e-15 1.00875 0
-1.92599e-15 1.00746 0
-7.43624e-16 1.00746 0
5.91224e-15 1.00875 0
4.17469e-15 1.00875 0
-5.31849e-15 1.00875 0
-1.93261e-16 1.00875 0
7.68192e-15 1.01001 0
4.9392e-15 1.01001 0
-1.93261e-16 1.00875 0
-3.57012e-15 1.00875 0
4.9392e-15 1.01001 0
4.81204e-15 1.01001 0
-1.15884e-15 1.01001 0
-4.28819e-15 1.01001 0
7.20961e-15 1.01126 0
6.85158e-15 1.01126 0
-4.28819e-15 1.01001 0
-1.74538e-15 1.01001 0
6.85158e-15 1.01126 0
5.14627e-15 1.01126 0
-3.57012e-15 1.00875 0
-2.24972e-15 1.00875 0
4.81204e-15 1.01001 0
2.29273e-15 1.01001 0
-2.24972e-15 1.00875 0
-1.78968e-15 1.00875 0
2.29273e-15 1.01001 0
3.52266e-15 1.01001 0
-1.74538e-15 1.01001 0
4.82012e-16 1.01001 0
5.14627e-15 1.01126 0
-1.26927e-15 1.01126 0
4.82012e-16 1.01001 0
4.0049e-15 1.01001 0
-1.26927e-15 1.01126 0
-5.048e-15 1.01126 0
0 1.01126 0
-1.2042e-14 1.01126 0
0 1.0125 0
7.01497e-16 1.0125 0
-1.2042e-14 1.01126 0
-7.35193e-14 1.01126 0
7.01497e-16 1.0125 0
-5.89737e-14 1.0125 0
0 1.0125 0
8.04839e-15 1.0125 0
0 1.01374 0
1.17808e-14 1.01374 0
8.04839e-15 1.0125 0
4.22555e-14 1.0125 0
1.17808e-14 1.01374 0
5.20758e-14 1.01374 0
-7.35193e-14 1.01126 0
8.56319e-15 1.01126 0
-5.89737e-14 1.0125 0
1.0894e-14 1.0125 0
8.56319e-15 1.01126 0
6.66338e-14 1.01126 0
1.0894e-14 1.0125 0
7.06283e-14 1.0125 0
4.22555e-14 1.0125 0
-3.0865e-14 1.0125 0
5.20758e-14 1.01374 0
-1.90179e-14 1.01374 0
-3.0865e-14 1.0125 0
-1.42671e-14 1.0125 0
-1.90179e-14 1.01374 0
-1.39428e-14 1.01374 0
0 1.01374 0
-1.77912e-14 1.01374 0
0 1.01499 0
-1.00567e-14 1.01499 0
-1.77912e-14 1.01374 0
-3.65822e-14 1.01374 0
-1.00567e-14 1.01499 0
-1.5138e-14 1.01499 0
0 1.01499 0
4.25955e-15 1.01499 0
0 1.01625 0
7.2754e-15 1.01625 0
4.25955e-15 1.01499 0
1.57219e-14 1.01499 0
7.2754e-15 1.01625 0
2.00248e-14 1.01625 0
-3.65822e-14 1.01374 0
6.34298e-15 1.01374 0
-1.5138e-14 1.01499 0
1.56998e-14 1.01499 0
6.34298e-15 1.01374 0
3.67689e-15 1.01374 0
1.56998e-14 1.01499 0
7.71937e-15 1.01499 0
1.57219e-14 1.01499 0
-8.04553e-15 1.01499 0
2.00248e-14 1.01625 0
1.45961e-15 1.01625 0
-8.04553e-15 1.01499 0
-3.19585e-15 1.01499 0
1.45961e-15 1.01625 0
-3.41459e-15 1.01625 0
6.66338e-14 1.01126 0
-1.41112e-14 1.01126 0
7.06283e-14 1.0125 0
-9.98205e-15 1.0125 0
-1.41112e-14 1.01126 0
-8.95841e-15 1.01126 0
-9.98205e-15 1.0125 0
4.98764e-15 1.0125 0
-1.42671e-14 1.0125 0
2.42664e-14 1.0125 0
-1.39428e-14 1.01374 0
2.03334e-14 1.01374 0
2.42664e-14 1.0125 0
-5.7383e-15 1.0125 0
2.03334e-14 1.01374 0
6.37147e-15 1.01374 0
-8.95841e-15 1.01126 0
-7.7748e-16 1.01126 0
4.98764e-15 1.0125 0
5.29093e-15 1.0125 0
-7.7748e-16 1.01126 0
3.16501e-15 1.01126 0
5.29093e-15 1.0125 0
-9.31438e-17 1.0125 0
-5.7383e-15 1.0125 0
-7.0828e-15 1.0125 0
6.37147e-15 1.01374 0
7.95846e-15 1.01374 0
-7.0828e-15 1.0125 0
-4.47599e-15 1.0125 0
7.95846e-15 1.01374 0
5.92338e-15 1.01374 0
3.67689e-15 1.01374 0
-7.68724e-15 1.01374 0
7.71937e-15 1.01499 0
1.08976e-15 1.01499 0
-7.68724e-15 1.01374 0
-7.20774e-15 1.01374 0
1.08976e-15 1.01499 0
7.65458e-15 1.01499 0
-3.19585e-15 1.01499 0
-6.62983e-15 1.01499 0
-3.41459e-15 1.01625 0
-4.59782e-16 1.01625 0
-6.62983e-15 1.01499 0
-4.56528e-15 1.01499 0
-4.59782e-16 1.01625 0
3.65152e-15 1.01625 0
-7.20774e-15 1.01374 0
-4.33963e-15 1.01374 0
7.65458e-15 1.01499 0
4.29116e-15 1.01499 0
-4.33963e-15 1.01374 0
-4.85052e-15 1.01374 0
4.29116e-15 1.01499 0
6.3303e-15 1.01499 0
-4.56528e-15 1.01499 0
-6.7008e-15 1.01499 0
3.65152e-15 1.01625 0
6.28264e-15 1.01625 0
-6.7008e-15 1.01499 0
-6.65921e-15 1.01499 0
6.28264e-15 1.01625 0
5.34205e-15 1.01625 0
0 1.01625 0
5.6903e-15 1.01625 0
0 1.01753 0
3.93477e-15 1.01753 0
5.6903e-15 1.01625 0
-2.71982e-14 1.01625 0
3.93477e-15 1.01753 0
-2.18101e-14 1.01753 0
0 1.01753 0
-1.35727e-14 1.01753 0
0 1.01878 0
-7.50221e-15 1.01878 0
-1.35727e-14 1.01753 0
2.33809e-14 1.01753 0
-7.50221e-15 1.01878 0
2.07023e-14 1.01878 0
-2.71982e-14 1.01625 0
-4.01904e-15 1.01625 0
-2.18101e-14 1.01753 0
-3.43427e-16 1.01753 0
-4.01904e-15 1.01625 0
-9.88665e-15 1.01625 0
-3.43427e-16 1.01753 0
-6.32209e-15 1.01753 0
2.33809e-14 1.01753 0
1.32426e-15 1.01753 0
2.07023e-14 1.01878 0
5.58467e-15 1.01878 0
1.32426e-15 1.01753 0
1.74472e-15 1.01753 0
5.58467e-15 1.01878 0
1.18168e-15 1.01878 0
0 1.01878 0
7.88422e-15 1.01878 0
0 1.01986 0
7.96866e-15 1.01986 0
7.88422e-15 1.01878 0
-1.07024e-14 1.01878 0
7.96866e-15 1.01986 0
-1.27567e-14 1.01986 0
0 1.01986 0
-1.7479e-16 1.01986 0
0 1.0203 0
-8.67582e-15 1.0203 0
-1.7479e-16 1.01986 0
1.35716e-15 1.01986 0
-8.67582e-15 1.0203 0
1.67912e-14 1.0203 0
-1.07024e-14 1.01878 0
6.32782e-16 1.01878 0
-1.27567e-14 1.01986 0
3.80598e-16 1.01986 0
6.32782e-16 1.01878 0
-5.18792e-16 1.01878 0
3.80598e-16 1.01986 0
2.7558e-15 1.01986 0
1.35716e-15 1.01986 0
-5.37982e-15 1.01986 0
1.67912e-14 1.0203 0
-6.05781e-15 1.0203 0
-5.37982e-15 1.01986 0
-3.1053e-15 1.01986 0
-6.05781e-15 1.0203 0
5.89852e-15 1.0203 0
-9.88665e-15 1.01625 0
-3.27195e-15 1.01625 0
-6.32209e-15 1.01753 0
6.5597e-15 1.01753 0
-3.27195e-15 1.01625 0
-2.7354e-15 1.01625 0
6.5597e-15 1.01753 0
4.98619e-15 1.01753 0
1.74472e-15 1.01753 0
-7.80687e-15 1.01753 0
1.18168e-15 1.01878 0
-3.85801e-15 1.01878 0
-7.80687e-15 1.01753 0
-3.73037e-15 1.01753 0
-3.85801e-15 1.01878 0
1.6499e-15 1.01878 0
-2.7354e-15 1.01625 0
-3.63123e-15 1.01625 0
4.98619e-15 1.01753 0
1.28729e-15 1.01753 0
-3.63123e-15 1.01625 0
-4.86995e-15 1.01625 0
1.28729e-15 1.01753 0
5.09305e-15 1.01753 0
-3.73037e-15 1.01753 0
-5.83789e-15 1.01753 0
1.6499e-15 1.01878 0
2.06904e-15 1.01878 0
-5.83789e-15 1.01753 0
-5.73206e-15 1.01753 0
2.06904e-15 1.01878 0
4.91643e-15 1.01878 0
-5.18792e-16 1.01878 0
5.35301e-16 1.01878 0
2.7558e-15 1.01986 0
5.3994e-15 1.01986 0
5.35301e-16 1.01878 0
-2.86898e-15 1.01878 0
5.3994e-15 1.01986 0
7.34338e-16 1.01986 0
-3.1053e-15 1.01986 0
-5.18754e-15 1.01986 0
5.89852e-15 1.0203 0
3.61069e-15 1.0203 0
-5.18754e-15 1.01986 0
-1.24991e-15 1.01986 0
3.61069e-15 1.0203 0
9.84383e-16 1.0203 0
-2.86898e-15 1.01878 0
-2.34922e-15 1.01878 0
7.34338e-16 1.01986 0
-2.32527e-16 1.01986 0
-2.34922e-15 1.01878 0
-3.48957e-15 1.01878 0
-2.32527e-16 1.01986 0
3.97659e-15 1.01986 0
-1.24991e-15 1.01986 0
-8.08608e-16 1.01986 0
9.84383e-16 1.0203 0
3.96385e-15 1.0203 0
-8.08608e-16 1.01986 0
5.55636e-16 1.01986 0
3.96385e-15 1.0203 0
-9.88505e-15 1.0203 0
3.16501e-15 1.01126 0
-3.79014e-15 1.01126 0
-9.31438e-17 1.0125 0
6.60764e-15 1.0125 0
-3.79014e-15 1.01126 0
-5.74278e-15 1.01126 0
6.60764e-15 1.0125 0
3.53377e-15 1.0125 0
-4.47599e-15 1.0125 0
-1.34995e-15 1.0125 0
5.92338e-15 1.01374 0
3.3549e-15 1.01374 0
-1.34995e-15 1.0125 0
3.10273e-15 1.0125 0
3.3549e-15 1.01374 0
2.08302e-16 1.01374 0
-5.74278e-15 1.01126 0
-3.2456e-15 1.01126 0
3.53377e-15 1.0125 0
4.38428e-15 1.0125 0
-3.2456e-15 1.01126 0
-5.02348e-15 1.01126 0
4.38428e-15 1.0125 0
5.41627e-15 1.0125 0
3.10273e-15 1.0125 0
-4.11492e-15 1.0125 0
2.08302e-16 1.01374 0
5.43359e-15 1.01374 0
-4.11492e-15 1.0125 0
-2.91192e-15 1.0125 0
5.43359e-15 1.01374 0
6.39452e-15 1.01374 0
-4.85052e-15 1.01374 0
-4.0091e-15 1.01374 0
6.3303e-15 1.01499 0
7.13965e-15 1.01499 0
-4.0091e-15 1.01374 0
-3.05237e-15 1.01374 0
7.13965e-15 1.01499 0
2.90875e-15 1.01499 0
-6.65921e-15 1.01499 0
-6.3963e-15 1.01499 0
5.34205e-15 1.01625 0
4.60186e-15 1.01625 0
-6.3963e-15 1.01499 0
-1.72608e-15 1.01499 0
4.60186e-15 1.01625 0
7.07529e-16 1.01625 0
-3.05237e-15 1.01374 0
-3.80175e-15 1.01374 0
2.90875e-15 1.01499 0
5.27054e-15 1.01499 0
-3.80175e-15 1.01374 0
-6.90891e-15 1.01374 0
5.27054e-15 1.01499 0
4.5221e-15 1.01499 0
-1.72608e-15 1.01499 0
-3.00888e-15 1.01499 0
7.07529e-16 1.01625 0
5.80316e-15 1.01625 0
-3.00888e-15 1.01499 0
6.47119e-16 1.01499 0
5.80316e-15 1.01625 0
7.53181e-17 1.01625 0
-5.02348e-15 1.01126 0
-5.23644e-15 1.01126 0
5.41627e-15 1.0125 0
9.25018e-15 1.0125 0
-5.23644e-15 1.01126 0
1.20322e-15 1.01126 0
9.25018e-15 1.0125 0
3.65964e-15 1.0125 0
-2.91192e-15 1.0125 0
-4.33647e-15 1.0125 0
6.39452e-15 1.01374 0
6.90917e-15 1.01374 0
-4.33647e-15 1.0125 0
2.97098e-15 1.0125 0
6.90917e-15 1.01374 0
3.1303e-15 1.01374 0
1.20322e-15 1.01126 0
-1.18574e-16 1.01126 0
3.65964e-15 1.0125 0
9.82114e-15 1.0125 0
-1.18574e-16 1.01126 0
3.74815e-15 1.01126 0
9.82114e-15 1.0125 0
3.42653e-15 1.0125 0
2.97098e-15 1.0125 0
-2.77347e-15 1.0125 0
3.1303e-15 1.01374 0
6.67067e-15 1.01374 0
-2.77347e-15 1.0125 0
-5.60107e-16 1.0125 0
6.67067e-15 1.01374 0
4.07523e-15 1.01374 0
-6.90891e-15 1.01374 0
-5.66443e-15 1.01374 0
4.5221e-15 1.01499 0
6.82392e-15 1.01499 0
-5.66443e-15 1.01374 0
-2.54307e-15 1.01374 0
6.82392e-15 1.01499 0
4.7467e-15 1.01499 0
6.47119e-16 1.01499 0
-2.5572e-15 1.01499 0
7.53181e-17 1.01625 0
4.22911e-15 1.01625 0
-2.5572e-15 1.01499 0
-8.51272e-15 1.01499 0
4.22911e-15 1.01625 0
6.62128e-15 1.01625 0
-2.54307e-15 1.01374 0
-3.00542e-15 1.01374 0
4.7467e-15 1.01499 0
2.06587e-15 1.01499 0
-3.00542e-15 1.01374 0
-4.63619e-15 1.01374 0
2.06587e-15 1.01499 0
6.84843e-15 1.01499 0
-8.51272e-15 1.01499 0
-1.09832e-15 1.01499 0
6.62128e-15 1.01625 0
-9.13076e-17 1.01625 0
-1.09832e-15 1.01499 0
2.68307e-15 1.01499 0
-9.13076e-17 1.01625 0
-9.44219e-16 1.01625 0
-4.86995e-15 1.01625 0
-5.07433e-15 1.01625 0
5.09305e-15 1.01753 0
3.0746e-15 1.01753 0
-5.07433e-15 1.01625 0
-1.85776e-15 1.01625 0
3.0746e-15 1.01753 0
5.43316e-16 1.01753 0
-5.73206e-15 1.01753 0
-1.63253e-15 1.01753 0
4.91643e-15 1.01878 0
1.58589e-15 1.01878 0
-1.63253e-15 1.01753 0
-3.75521e-15 1.01753 0
1.58589e-15 1.01878 0
4.34399e-15 1.01878 0
-1.85776e-15 1.01625 0
-2.74661e-15 1.01625 0
5.43316e-16 1.01753 0
1.10998e-15 1.01753 0
-2.74661e-15 1.01625 0
-2.06377e-15 1.01625 0
1.10998e-15 1.01753 0
2.86738e-15 1.01753 0