# vtk DataFile Version 3.0
#This file was generated by the deal.II library on 2018/10/12 at 1:59:59
ASCII
DATASET UNSTRUCTURED_GRID

POINTS 5120 double
0 0 0
0.392699 0 0
0 0.584797 0
0.392699 0.584797 0
0.392699 0 0
0.785398 0 0
0.392699 0.584797 0
0.785398 0.584797 0
0 0.584797 0
0.392699 0.584797 0
0 1.21253 0
0.392699 1.21253 0
0.392699 0.584797 0
0.785398 0.584797 0
0.392699 1.21253 0
0.785398 1.21253 0
0.785398 0 0
1.1781 0 0
0.785398 0.584797 0
1.1781 0.584797 0
1.1781 0 0
1.5708 0 0
1.1781 0.584797 0
1.5708 0.584797 0
0.785398 0.584797 0
1.1781 0.584797 0
0.785398 1.21253 0
1.1781 1.21253 0
1.1781 0.584797 0
1.5708 0.584797 0
1.1781 1.21253 0
1.5708 1.21253 0
0 1.21253 0
0.392699 1.21253 0
0 1.83903 0
0.392699 1.83903 0
0.392699 1.21253 0
0.785398 1.21253 0
0.392699 1.83903 0
0.785398 1.83903 0
0 1.83903 0
0.392699 1.83903 0
0 2.46706 0
0.392699 2.46706 0
0.392699 1.83903 0
0.785398 1.83903 0
0.392699 2.46706 0
0.785398 2.46706 0
0.785398 1.21253 0
1.1781 1.21253 0
0.785398 1.83903 0
1.1781 1.83903 0
1.1781 1.21253 0
1.5708 1.21253 0
1.1781 1.83903 0
1.5708 1.83903 0
0.785398 1.83903 0
1.1781 1.83903 0
0.785398 2.46706 0
1.1781 2.46706 0
1.1781 1.83903 0
1.5708 1.83903 0
1.1781 2.46706 0
1.5708 2.46706 0
1.5708 0 0
1.9635 0 0
1.5708 0.584797 0
1.9635 0.584797 0
1.9635 0 0
2.35619 0 0
1.9635 0.584797 0
2.35619 0.584797 0
1.5708 0.584797 0
1.9635 0.584797 0
1.5708 1.21253 0
1.9635 1.21253 0
1.9635 0.584797 0
2.35619 0.584797 0
1.9635 1.21253 0
2.35619 1.21253 0
2.35619 0 0
2.74889 0 0
2.35619 0.584797 0
2.74889 0.584797 0
2.74889 0 0
3.14159 0 0
2.74889 0.584797 0
3.14159 0.584797 0
2.35619 0.584797 0
2.74889 0.584797 0
2.35619 1.21253 0
2.74889 1.21253 0
2.74889 0.584797 0
3.14159 0.584797 0
2.74889 1.21253 0
3.14159 1.21253 0
1.5708 1.21253 0
1.9635 1.21253 0
1.5708 1.83903 0
1.9635 1.83903 0
1.9635 1.21253 0
2.35619 1.21253 0
1.9635 1.83903 0
2.35619 1.83903 0
1.5708 1.83903 0
1.9635 1.83903 0
1.5708 2.46706 0
1.9635 2.46706 0
1.9635 1.83903 0
2.35619 1.83903 0
1.9635 2.46706 0
2.35619 2.46706 0
2.35619 1.21253 0
2.74889 1.21253 0
2.35619 1.83903 0
2.74889 1.83903 0
2.74889 1.21253 0
3.14159 1.21253 0
2.74889 1.83903 0
3.14159 1.83903 0
2.35619 1.83903 0
2.74889 1.83903 0
2.35619 2.46706 0
2.74889 2.46706 0
2.74889 1.83903 0
3.14159 1.83903 0
2.74889 2.46706 0
3.14159 2.46706 0
0 2.46706 0
0.392699 2.46706 0
0 3.09467 0
0.392699 3.09467 0
0.392699 2.46706 0
0.785398 2.46706 0
0.392699 3.09467 0
0.785398 3.09467 0
0 3.09467 0
0.392699 3.09467 0
0 3.72233 0
0.392699 3.72233 0
0.392699 3.09467 0
0.785398 3.09467 0
0.392699 3.72233 0
0.785398 3.72233 0
0.785398 2.46706 0
1.1781 2.46706 0
0.785398 3.09467 0
1.1781 3.09467 0
1.1781 2.46706 0
1.5708 2.46706 0
1.1781 3.09467 0
1.5708 3.09467 0
0.785398 3.09467 0
1.1781 3.09467 0
0.785398 3.72233 0
1.1781 3.72233 0
1.1781 3.09467 0
1.5708 3.09467 0
1.1781 3.72233 0
1.5708 3.72233 0
0 3.72233 0
0.392699 3.72233 0
0 4.34985 0
0.392699 4.34985 0
0.392699 3.72233 0
0.785398 3.72233 0
0.392699 4.34985 0
0.785398 4.34985 0
0 4.34985 0
0.392699 4.34985 0
0 4.97728 0
0.392699 4.97728 0
0.392699 4.34985 0
0.785398 4.34985 0
0.392699 4.97728 0
0.785398 4.97728 0
0.785398 3.72233 0
1.1781 3.72233 0
0.785398 4.34985 0
1.1781 4.34985 0
1.1781 3.72233 0
1.5708 3.72233 0
1.1781 4.34985 0
1.5708 4.34985 0
0.785398 4.34985 0
1.1781 4.34985 0
0.785398 4.97728 0
1.1781 4.97728 0
1.1781 4.34985 0
1.5708 4.34985 0
1.1781 4.97728 0
1.5708 4.97728 0
1.5708 2.46706 0
1.9635 2.46706 0
1.5708 3.09467 0
1.9635 3.09467 0
1.9635 2.46706 0
2.35619 2.46706 0
1.9635 3.09467 0
2.35619 3.09467 0
1.5708 3.09467 0
1.9635 3.09467 0
1.5708 3.72233 0
1.9635 3.72233 0
1.9635 3.09467 0
2.35619 3.09467 0
1.9635 3.72233 0
2.35619 3.72233 0
2.35619 2.46706 0
2.74889 2.46706 0
2.35619 3.09467 0
2.74889 3.09467 0
2.74889 2.46706 0
3.14159 2.46706 0
2.74889 3.09467 0
3.14159 3.09467 0
2.35619 3.09467 0
2.74889 3.09467 0
2.35619 3.72233 0
2.74889 3.72233 0
2.74889 3.09467 0
3.14159 3.09467 0
2.74889 3.72233 0
3.14159 3.72233 0
1.5708 3.72233 0
1.9635 3.72233 0
1.5708 4.34985 0
1.9635 4.34985 0
1.9635 3.72233 0
2.35619 3.72233 0
1.9635 4.34985 0
2.35619 4.34985 0
1.5708 4.34985 0
1.9635 4.34985 0
1.5708 4.97728 0
1.9635 4.97728 0
1.9635 4.34985 0
2.35619 4.34985 0
1.9635 4.97728 0
2.35619 4.97728 0
2.35619 3.72233 0
2.74889 3.72233 0
2.35619 4.34985 0
2.74889 4.34985 0
2.74889 3.72233 0
3.14159 3.72233 0
2.74889 4.34985 0
3.14159 4.34985 0
2.35619 4.34985 0
2.74889 4.34985 0
2.35619 4.97728 0
2.74889 4.97728 0
2.74889 4.34985 0
3.14159 4.34985 0
2.74889 4.97728 0
3.14159 4.97728 0
3.14159 0 0
3.53429 0 0
3.14159 0.584797 0
3.53429 0.584797 0
3.53429 0 0
3.92699 0 0
3.53429 0.584797 0
3.92699 0.584797 0
3.14159 0.584797 0
3.53429 0.584797 0
3.14159 1.21253 0
3.53429 1.21253 0
3.53429 0.584797 0
3.92699 0.584797 0
3.53429 1.21253 0
3.92699 1.21253 0
3.92699 0 0
4.31969 0 0
3.92699 0.584797 0
4.31969 0.584797 0
4.31969 0 0
4.71239 0 0
4.31969 0.584797 0
4.71239 0.584797 0
3.92699 0.584797 0
4.31969 0.584797 0
3.92699 1.21253 0
4.31969 1.21253 0
4.31969 0.584797 0
4.71239 0.584797 0
4.31969 1.21253 0
4.71239 1.21253 0
3.14159 1.21253 0
3.53429 1.21253 0
3.14159 1.83903 0
3.53429 1.83903 0
3.53429 1.21253 0
3.92699 1.21253 0
3.53429 1.83903 0
3.92699 1.83903 0
3.14159 1.83903 0
3.53429 1.83903 0
3.14159 2.46706 0
3.53429 2.46706 0
3.53429 1.83903 0
3.92699 1.83903 0
3.53429 2.46706 0
3.92699 2.46706 0
3.92699 1.21253 0
4.31969 1.21253 0
3.92699 1.83903 0
4.31969 1.83903 0
4.31969 1.21253 0
4.71239 1.21253 0
4.31969 1.83903 0
4.71239 1.83903 0
3.92699 1.83903 0
4.31969 1.83903 0
3.92699 2.46706 0
4.31969 2.46706 0
4.31969 1.83903 0
4.71239 1.83903 0
4.31969 2.46706 0
4.71239 2.46706 0
4.71239 0 0
5.10509 0 0
4.71239 0.584797 0
5.10509 0.584797 0
5.10509 0 0
5.49779 0 0
5.10509 0.584797 0
5.49779 0.584797 0
4.71239 0.584797 0
5.10509 0.584797 0
4.71239 1.21253 0
5.10509 1.21253 0
5.10509 0.584797 0
5.49779 0.584797 0
5.10509 1.21253 0
5.49779 1.21253 0
5.49779 0 0
5.89049 0 0
5.49779 0.584797 0
5.89049 0.584797 0
5.89049 0 0
6.28319 0 0
5.89049 0.584797 0
6.28319 0.584797 0
5.49779 0.584797 0
5.89049 0.584797 0
5.49779 1.21253 0
5.89049 1.21253 0
5.89049 0.584797 0
6.28319 0.584797 0
5.89049 1.21253 0
6.28319 1.21253 0
4.71239 1.21253 0
5.10509 1.21253 0
4.71239 1.83903 0
5.10509 1.83903 0
5.10509 1.21253 0
5.49779 1.21253 0
5.10509 1.83903 0
5.49779 1.83903 0
4.71239 1.83903 0
5.10509 1.83903 0
4.71239 2.46706 0
5.10509 2.46706 0
5.10509 1.83903 0
5.49779 1.83903 0
5.10509 2.46706 0
5.49779 2.46706 0
5.49779 1.21253 0
5.89049 1.21253 0
5.49779 1.83903 0
5.89049 1.83903 0
5.89049 1.21253 0
6.28319 1.21253 0
5.89049 1.83903 0
6.28319 1.83903 0
5.49779 1.83903 0
5.89049 1.83903 0
5.49779 2.46706 0
5.89049 2.46706 0
5.89049 1.83903 0
6.28319 1.83903 0
5.89049 2.46706 0
6.28319 2.46706 0
3.14159 2.46706 0
3.53429 2.46706 0
3.14159 3.09467 0
3.53429 3.09467 0
3.53429 2.46706 0
3.92699 2.46706 0
3.53429 3.09467 0
3.92699 3.09467 0
3.14159 3.09467 0
3.53429 3.09467 0
3.14159 3.72233 0
3.53429 3.72233 0
3.53429 3.09467 0
3.92699 3.09467 0
3.53429 3.72233 0
3.92699 3.72233 0
3.92699 2.46706 0
4.31969 2.46706 0
3.92699 3.09467 0
4.31969 3.09467 0
4.31969 2.46706 0
4.71239 2.46706 0
4.31969 3.09467 0
4.71239 3.09467 0
3.92699 3.09467 0
4.31969 3.09467 0
3.92699 3.72233 0
4.31969 3.72233 0
4.31969 3.09467 0
4.71239 3.09467 0
4.31969 3.72233 0
4.71239 3.72233 0
3.14159 3.72233 0
3.53429 3.72233 0
3.14159 4.34985 0
3.53429 4.34985 0
3.53429 3.72233 0
3.92699 3.72233 0
3.53429 4.34985 0
3.92699 4.34985 0
3.14159 4.34985 0
3.53429 4.34985 0
3.14159 4.97728 0
3.53429 4.97728 0
3.53429 4.34985 0
3.92699 4.34985 0
3.53429 4.97728 0
3.92699 4.97728 0
3.92699 3.72233 0
4.31969 3.72233 0
3.92699 4.34985 0
4.31969 4.34985 0
4.31969 3.72233 0
4.71239 3.72233 0
4.31969 4.34985 0
4.71239 4.34985 0
3.92699 4.34985 0
4.31969 4.34985 0
3.92699 4.97728 0
4.31969 4.97728 0
4.31969 4.34985 0
4.71239 4.34985 0
4.31969 4.97728 0
4.71239 4.97728 0
4.71239 2.46706 0
5.10509 2.46706 0
4.71239 3.09467 0
5.10509 3.09467 0
5.10509 2.46706 0
5.49779 2.46706 0
5.10509 3.09467 0
5.49779 3.09467 0
4.71239 3.09467 0
5.10509 3.09467 0
4.71239 3.72233 0
5.10509 3.72233 0
5.10509 3.09467 0
5.49779 3.09467 0
5.10509 3.72233 0
5.49779 3.72233 0
5.49779 2.46706 0
5.89049 2.46706 0
5.49779 3.09467 0
5.89049 3.09467 0
5.89049 2.46706 0
6.28319 2.46706 0
5.89049 3.09467 0
6.28319 3.09467 0
5.49779 3.09467 0
5.89049 3.09467 0
5.49779 3.72233 0
5.89049 3.72233 0
5.89049 3.09467 0
6.28319 3.09467 0
5.89049 3.72233 0
6.28319 3.72233 0
4.71239 3.72233 0
5.10509 3.72233 0
4.71239 4.34985 0
5.10509 4.34985 0
5.10509 3.72233 0
5.49779 3.72233 0
5.10509 4.34985 0
5.49779 4.34985 0
4.71239 4.34985 0
5.10509 4.34985 0
4.71239 4.97728 0
5.10509 4.97728 0
5.10509 4.34985 0
5.49779 4.34985 0
5.10509 4.97728 0
5.49779 4.97728 0
5.49779 3.72233 0
5.89049 3.72233 0
5.49779 4.34985 0
5.89049 4.34985 0
5.89049 3.72233 0
6.28319 3.72233 0
5.89049 4.34985 0
6.28319 4.34985 0
5.49779 4.34985 0
5.89049 4.34985 0
5.49779 4.97728 0
5.89049 4.97728 0
5.89049 4.34985 0
6.28319 4.34985 0
5.89049 4.97728 0
6.28319 4.97728 0
0 4.97728 0
0.392699 4.97728 0
0 5.60458 0
0.392699 5.60458 0
0.392699 4.97728 0
0.785398 4.97728 0
0.392699 5.60458 0
0.785398 5.60458 0
0 5.60458 0
0.392699 5.60458 0
0 6.23177 0
0.392699 6.23177 0
0.392699 5.60458 0
0.785398 5.60458 0
0.392699 6.23177 0
0.785398 6.23177 0
0.785398 4.97728 0
1.1781 4.97728 0
0.785398 5.60458 0
1.1781 5.60458 0
1.1781 4.97728 0
1.5708 4.97728 0
1.1781 5.60458 0
1.5708 5.60458 0
0.785398 5.60458 0
1.1781 5.60458 0
0.785398 6.23177 0
1.1781 6.23177 0
1.1781 5.60458 0
1.5708 5.60458 0
1.1781 6.23177 0
1.5708 6.23177 0
0 6.23177 0
0.392699 6.23177 0
0 6.85887 0
0.392699 6.85887 0
0.392699 6.23177 0
0.785398 6.23177 0
0.392699 6.85887 0
0.785398 6.85887 0
0 6.85887 0
0.392699 6.85887 0
0 7.48599 0
0.392699 7.48599 0
0.392699 6.85887 0
0.785398 6.85887 0
0.392699 7.48599 0
0.785398 7.48599 0
0.785398 6.23177 0
1.1781 6.23177 0
0.785398 6.85887 0
[...]
POINT_DATA 5120
VECTORS uf double
0 1 0
-2.24608e-13 1 0
0 1.00264 0
-2.16113e-13 1.00264 0
-2.24608e-13 1 0
2.3336e-14 1 0
-2.16113e-13 1.00264 0
2.10625e-14 1.00264 0
0 1.00264 0
2.01464e-13 1.00264 0
0 1.004 0
1.99925e-13 1.004 0
2.01464e-13 1.00264 0
-6.35805e-14 1.00264 0
1.99925e-13 1.004 0
-7.22882e-14 1.004 0
2.3336e-14 1 0
3.34866e-13 1 0
2.10625e-14 1.00264 0
3.28778e-13 1.00264 0
3.34866e-13 1 0
7.20431e-14 1 0
3.28778e-13 1.00264 0
7.49362e-14 1.00264 0
-6.35805e-14 1.00264 0
-3.23885e-13 1.00264 0
-7.22882e-14 1.004 0
-3.07029e-13 1.004 0
-3.23885e-13 1.00264 0
-7.28785e-14 1.00264 0
-3.07029e-13 1.004 0
-6.87679e-14 1.004 0
0 1.004 0
-3.73726e-14 1.004 0
0 1.00566 0
-2.6563e-14 1.00566 0
-3.73726e-14 1.004 0
1.41984e-13 1.004 0
-2.6563e-14 1.00566 0
1.44848e-13 1.00566 0
0 1.00566 0
4.54387e-14 1.00566 0
0 1.00719 0
4.24395e-14 1.00719 0
4.54387e-14 1.00566 0
-8.8146e-14 1.00566 0
4.24395e-14 1.00719 0
-8.27976e-14 1.00719 0
1.41984e-13 1.004 0
-1.86919e-14 1.004 0
1.44848e-13 1.00566 0
-3.28464e-15 1.00566 0
-1.86919e-14 1.004 0
-9.60825e-15 1.004 0
-3.28464e-15 1.00566 0
5.31785e-15 1.00566 0
-8.8146e-14 1.00566 0
9.04579e-14 1.00566 0
-8.27976e-14 1.00719 0
8.73521e-14 1.00719 0
9.04579e-14 1.00566 0
-5.27296e-14 1.00566 0
8.73521e-14 1.00719 0
-3.83267e-14 1.00719 0
7.20431e-14 1 0
-2.87165e-14 1 0
7.49362e-14 1.00264 0
-1.84711e-14 1.00264 0
-2.87165e-14 1 0
-1.03708e-14 1 0
-1.84711e-14 1.00264 0
4.48641e-15 1.00264 0
-7.28785e-14 1.00264 0
2.11648e-14 1.00264 0
-6.87679e-14 1.004 0
2.2417e-14 1.004 0
2.11648e-14 1.00264 0
5.371e-17 1.00264 0
2.2417e-14 1.004 0
8.51961e-15 1.004 0
-1.03708e-14 1 0
1.18677e-15 1 0
4.48641e-15 1.00264 0
-2.92407e-15 1.00264 0
1.18677e-15 1 0
-6.00136e-15 1 0
-2.92407e-15 1.00264 0
7.14172e-15 1.00264 0
5.371e-17 1.00264 0
-5.94792e-15 1.00264 0
8.51961e-15 1.004 0
1.20655e-14 1.004 0
-5.94792e-15 1.00264 0
-5.6471e-15 1.00264 0
1.20655e-14 1.004 0
9.23486e-15 1.004 0
-9.60825e-15 1.004 0
1.10539e-13 1.004 0
5.31785e-15 1.00566 0
1.10576e-13 1.00566 0
1.10539e-13 1.004 0
-3.57049e-15 1.004 0
1.10576e-13 1.00566 0
-4.79925e-15 1.00566 0
-5.27296e-14 1.00566 0
-9.7782e-14 1.00566 0
-3.83267e-14 1.00719 0
-9.75815e-14 1.00719 0
-9.7782e-14 1.00566 0
7.71376e-15 1.00566 0
-9.75815e-14 1.00719 0
-2.13493e-15 1.00719 0
-3.57049e-15 1.004 0
-6.85984e-15 1.004 0
-4.79925e-15 1.00566 0
2.18942e-15 1.00566 0
-6.85984e-15 1.004 0
2.59596e-15 1.004 0
2.18942e-15 1.00566 0
-2.94015e-16 1.00566 0
7.71376e-15 1.00566 0
-2.58876e-15 1.00566 0
-2.13493e-15 1.00719 0
1.15267e-14 1.00719 0
-2.58876e-15 1.00566 0
3.03257e-15 1.00566 0
1.15267e-14 1.00719 0
-1.44094e-15 1.00719 0
0 1.00719 0
-1.15162e-13 1.00719 0
0 1.00871 0
-1.07899e-13 1.00871 0
-1.15162e-13 1.00719 0
9.14132e-15 1.00719 0
-1.07899e-13 1.00871 0
7.49277e-15 1.00871 0
0 1.00871 0
1.27192e-13 1.00871 0
0 1.0102 0
1.21524e-13 1.0102 0
1.27192e-13 1.00871 0
4.56049e-14 1.00871 0
1.21524e-13 1.0102 0
5.50902e-14 1.0102 0
9.14132e-15 1.00719 0
-1.09863e-13 1.00719 0
7.49277e-15 1.00871 0
-8.65229e-14 1.00871 0
-1.09863e-13 1.00719 0
5.55943e-14 1.00719 0
-8.65229e-14 1.00871 0
5.07906e-14 1.00871 0
4.56049e-14 1.00871 0
8.71195e-14 1.00871 0
5.50902e-14 1.0102 0
9.13338e-14 1.0102 0
8.71195e-14 1.00871 0
-7.38973e-14 1.00871 0
9.13338e-14 1.0102 0
-5.98123e-14 1.0102 0
0 1.0102 0
6.09274e-15 1.0102 0
0 1.01166 0
-1.07618e-15 1.01166 0
6.09274e-15 1.0102 0
-2.24621e-13 1.0102 0
-1.07618e-15 1.01166 0
-2.15486e-13 1.01166 0
0 1.01166 0
1.47825e-14 1.01166 0
0 1.0131 0
7.66329e-15 1.0131 0
1.47825e-14 1.01166 0
2.17675e-13 1.01166 0
7.66329e-15 1.0131 0
2.11662e-13 1.0131 0
-2.24621e-13 1.0102 0
-8.25392e-14 1.0102 0
-2.15486e-13 1.01166 0
-7.76761e-14 1.01166 0
-8.25392e-14 1.0102 0
1.53018e-13 1.0102 0
-7.76761e-14 1.01166 0
1.47055e-13 1.01166 0
2.17675e-13 1.01166 0
3.09137e-14 1.01166 0
2.11662e-13 1.0131 0
3.25167e-14 1.0131 0
3.09137e-14 1.01166 0
-1.53823e-13 1.01166 0
3.25167e-14 1.0131 0
-1.43253e-13 1.0131 0
5.55943e-14 1.00719 0
5.80559e-14 1.00719 0
5.07906e-14 1.00871 0
5.71275e-14 1.00871 0
5.80559e-14 1.00719 0
-1.5696e-16 1.00719 0
5.71275e-14 1.00871 0
4.44958e-15 1.00871 0
-7.38973e-14 1.00871 0
-7.14908e-14 1.00871 0
-5.98123e-14 1.0102 0
-6.51959e-14 1.0102 0
-7.14908e-14 1.00871 0
-3.70172e-14 1.00871 0
-6.51959e-14 1.0102 0
-2.69324e-14 1.0102 0
-1.5696e-16 1.00719 0
-8.62245e-15 1.00719 0
4.44958e-15 1.00871 0
4.81777e-15 1.00871 0
-8.62245e-15 1.00719 0
-5.00719e-15 1.00719 0
4.81777e-15 1.00871 0
8.85898e-15 1.00871 0
-3.70172e-14 1.00871 0
-4.76732e-15 1.00871 0
-2.69324e-14 1.0102 0
7.65397e-15 1.0102 0
-4.76732e-15 1.00871 0
5.2937e-14 1.00871 0
7.65397e-15 1.0102 0
5.8294e-14 1.0102 0
1.53018e-13 1.0102 0
-1.64799e-14 1.0102 0
1.47055e-13 1.01166 0
-1.16871e-14 1.01166 0
-1.64799e-14 1.0102 0
2.86069e-14 1.0102 0
-1.16871e-14 1.01166 0
3.95824e-14 1.01166 0
-1.53823e-13 1.01166 0
-4.5562e-14 1.01166 0
-1.43253e-13 1.0131 0
-4.31867e-14 1.0131 0
-4.5562e-14 1.01166 0
-7.79589e-15 1.01166 0
-4.31867e-14 1.0131 0
-8.75622e-15 1.0131 0
2.86069e-14 1.0102 0
-7.21742e-15 1.0102 0
3.95824e-14 1.01166 0
-7.79148e-15 1.01166 0
-7.21742e-15 1.0102 0
-5.89812e-14 1.0102 0
-7.79148e-15 1.01166 0
-4.74636e-14 1.01166 0
-7.79589e-15 1.01166 0
1.90674e-14 1.01166 0
-8.75622e-15 1.0131 0
2.02093e-14 1.0131 0
1.90674e-14 1.01166 0
-1.22988e-14 1.01166 0
2.02093e-14 1.0131 0
2.57149e-15 1.0131 0
-6.00136e-15 1 0
-8.86898e-15 1 0
7.14172e-15 1.00264 0
1.08427e-14 1.00264 0
-8.86898e-15 1 0
5.96084e-15 1 0
1.08427e-14 1.00264 0
-3.73793e-15 1.00264 0
-5.6471e-15 1.00264 0
4.20887e-15 1.00264 0
9.23486e-15 1.004 0
5.97088e-15 1.004 0
4.20887e-15 1.00264 0
1.26575e-15 1.00264 0
5.97088e-15 1.004 0
4.67519e-15 1.004 0
5.96084e-15 1 0
9.80825e-16 1 0
-3.73793e-15 1.00264 0
9.18381e-15 1.00264 0
9.80825e-16 1 0
-1.97189e-15 1 0
9.18381e-15 1.00264 0
1.12239e-14 1.00264 0
1.26575e-15 1.00264 0
-9.48108e-15 1.00264 0
4.67519e-15 1.004 0
5.48787e-15 1.004 0
-9.48108e-15 1.00264 0
-4.85311e-15 1.00264 0
5.48787e-15 1.004 0
9.26012e-15 1.004 0
2.59596e-15 1.004 0
-8.49429e-16 1.004 0
-2.94015e-16 1.00566 0
7.67525e-15 1.00566 0
-8.49429e-16 1.004 0
-7.81031e-15 1.004 0
7.67525e-15 1.00566 0
9.43606e-15 1.00566 0
3.03257e-15 1.00566 0
-1.86281e-15 1.00566 0
-1.44094e-15 1.00719 0
1.04789e-14 1.00719 0
-1.86281e-15 1.00566 0
1.00303e-14 1.00566 0
1.04789e-14 1.00719 0
1.70936e-14 1.00719 0
-7.81031e-15 1.004 0
1.14573e-14 1.004 0
9.43606e-15 1.00566 0
-3.93852e-15 1.00566 0
1.14573e-14 1.004 0
5.09434e-16 1.004 0
-3.93852e-15 1.00566 0
2.09967e-15 1.00566 0
1.00303e-14 1.00566 0
-7.60369e-15 1.00566 0
1.70936e-14 1.00719 0
7.96671e-15 1.00719 0
-7.60369e-15 1.00566 0
1.29409e-14 1.00566 0
7.96671e-15 1.00719 0
8.88453e-16 1.00719 0
-1.97189e-15 1 0
-1.74159e-15 1 0
1.12239e-14 1.00264 0
1.61967e-14 1.00264 0
-1.74159e-15 1 0
1.60032e-15 1 0
1.61967e-14 1.00264 0
9.18863e-15 1.00264 0
-4.85311e-15 1.00264 0
-5.23073e-15 1.00264 0
9.26012e-15 1.004 0
2.20151e-15 1.004 0
-5.23073e-15 1.00264 0
-7.86341e-15 1.00264 0
2.20151e-15 1.004 0
1.16266e-14 1.004 0
1.60032e-15 1 0
-4.97701e-16 1 0
9.18863e-15 1.00264 0
8.36438e-15 1.00264 0
-4.97701e-16 1 0
-4.95486e-15 1 0
8.36438e-15 1.00264 0
1.31393e-14 1.00264 0
-7.86341e-15 1.00264 0
4.50161e-15 1.00264 0
1.16266e-14 1.004 0
2.99642e-15 1.004 0
4.50161e-15 1.00264 0
-5.97612e-15 1.00264 0
2.99642e-15 1.004 0
7.49046e-15 1.004 0
5.09434e-16 1.004 0
-1.24685e-14 1.004 0
2.09967e-15 1.00566 0
1.06807e-14 1.00566 0
-1.24685e-14 1.004 0
3.21362e-15 1.004 0
1.06807e-14 1.00566 0
4.0288e-15 1.00566 0
1.29409e-14 1.00566 0
1.61475e-15 1.00566 0
8.88453e-16 1.00719 0
1.10536e-14 1.00719 0
1.61475e-15 1.00566 0
1.9192e-15 1.00566 0
1.10536e-14 1.00719 0
5.63854e-16 1.00719 0
3.21362e-15 1.004 0
-4.2973e-15 1.004 0
4.0288e-15 1.00566 0
1.17753e-14 1.00566 0
-4.2973e-15 1.004 0
-6.98194e-15 1.004 0
1.17753e-14 1.00566 0
3.47578e-15 1.00566 0
1.9192e-15 1.00566 0
-9.31969e-16 1.00566 0
5.63854e-16 1.00719 0
7.32858e-15 1.00719 0
-9.31969e-16 1.00566 0
4.81652e-15 1.00566 0
7.32858e-15 1.00719 0
1.87226e-15 1.00719 0
-5.00719e-15 1.00719 0
-7.64797e-15 1.00719 0
8.85898e-15 1.00871 0
7.40343e-15 1.00871 0
-7.64797e-15 1.00719 0
-1.75789e-14 1.00719 0
7.40343e-15 1.00871 0
-7.60017e-15 1.00871 0
5.2937e-14 1.00871 0
-1.29611e-14 1.00871 0
5.8294e-14 1.0102 0
-3.05491e-15 1.0102 0
-1.29611e-14 1.00871 0
3.19144e-15 1.00871 0
-3.05491e-15 1.0102 0
6.3209e-15 1.0102 0
-1.75789e-14 1.00719 0
7.62455e-15 1.00719 0
-7.60017e-15 1.00871 0
7.54668e-16 1.00871 0
7.62455e-15 1.00719 0
-3.03531e-15 1.00719 0
7.54668e-16 1.00871 0
9.2815e-15 1.00871 0
3.19144e-15 1.00871 0
2.8875e-17 1.00871 0
6.3209e-15 1.0102 0
6.79465e-15 1.0102 0
2.8875e-17 1.00871 0
-5.3799e-15 1.00871 0
6.79465e-15 1.0102 0
8.14367e-15 1.0102 0
-5.89812e-14 1.0102 0
1.36765e-14 1.0102 0
-4.74636e-14 1.01166 0
2.00243e-14 1.01166 0
1.36765e-14 1.0102 0
-7.15299e-15 1.0102 0
2.00243e-14 1.01166 0
8.04775e-17 1.01166 0
-1.22988e-14 1.01166 0
-1.73244e-14 1.01166 0
2.57149e-15 1.0131 0
-7.40455e-15 1.0131 0
-1.73244e-14 1.01166 0
2.8451e-14 1.01166 0
-7.40455e-15 1.0131 0
3.7698e-14 1.0131 0
-7.15299e-15 1.0102 0
-6.20506e-15 1.0102 0
8.04775e-17 1.01166 0
7.05871e-15 1.01166 0
-6.20506e-15 1.0102 0
-3.91846e-15 1.0102 0
7.05871e-15 1.01166 0
4.24744e-15 1.01166 0
2.8451e-14 1.01166 0
2.99023e-15 1.01166 0
3.7698e-14 1.0131 0
2.42141e-15 1.0131 0
2.99023e-15 1.01166 0
-4.64671e-15 1.01166 0
2.42141e-15 1.0131 0
4.40298e-15 1.0131 0
-3.03531e-15 1.00719 0
-2.15783e-15 1.00719 0
9.2815e-15 1.00871 0
2.94645e-15 1.00871 0
-2.15783e-15 1.00719 0
-1.46991e-15 1.00719 0
2.94645e-15 1.00871 0
7.39816e-15 1.00871 0
-5.3799e-15 1.00871 0
-5.31398e-15 1.00871 0
8.14367e-15 1.0102 0
5.62148e-15 1.0102 0
-5.31398e-15 1.00871 0
8.34577e-16 1.00871 0
5.62148e-15 1.0102 0
-3.42175e-16 1.0102 0
-1.46991e-15 1.00719 0
6.8816e-16 1.00719 0
7.39816e-15 1.00871 0
3.64581e-15 1.00871 0
6.8816e-16 1.00719 0
2.1845e-15 1.00719 0
3.64581e-15 1.00871 0
3.88115e-15 1.00871 0
8.34577e-16 1.00871 0
-6.52516e-15 1.00871 0
-3.42175e-16 1.0102 0
1.02418e-14 1.0102 0
-6.52516e-15 1.00871 0
-6.98067e-15 1.00871 0
1.02418e-14 1.0102 0
6.95635e-15 1.0102 0
-3.91846e-15 1.0102 0
-4.37942e-16 1.0102 0
4.24744e-15 1.01166 0
8.56314e-16 1.01166 0
-4.37942e-16 1.0102 0
-7.13286e-15 1.0102 0
8.56314e-16 1.01166 0
5.75986e-15 1.01166 0
-4.64671e-15 1.01166 0
2.23139e-15 1.01166 0
4.40298e-15 1.0131 0
-8.98281e-16 1.0131 0
2.23139e-15 1.01166 0
-2.05264e-15 1.01166 0
-8.98281e-16 1.0131 0
5.79585e-15 1.0131 0
-7.13286e-15 1.0102 0
-1.21508e-15 1.0102 0
5.75986e-15 1.01166 0
3.6799e-15 1.01166 0
-1.21508e-15 1.0102 0
-9.88403e-16 1.0102 0
3.6799e-15 1.01166 0
3.86702e-15 1.01166 0
-2.05264e-15 1.01166 0
-6.01319e-15 1.01166 0
5.79585e-15 1.0131 0
2.55708e-15 1.0131 0
-6.01319e-15 1.01166 0
8.72918e-15 1.01166 0
2.55708e-15 1.0131 0
-3.14604e-15 1.0131 0
0 1.0131 0
-8.04222e-14 1.0131 0
0 1.01452 0
-8.20274e-14 1.01452 0
-8.04222e-14 1.0131 0
-1.43488e-13 1.0131 0
-8.20274e-14 1.01452 0
-1.37532e-13 1.01452 0
0 1.01452 0
9.5665e-14 1.01452 0
0 1.01594 0
8.51752e-14 1.01594 0
9.5665e-14 1.01452 0
1.43191e-13 1.01452 0
8.51752e-14 1.01594 0
1.47679e-13 1.01594 0
-1.43488e-13 1.0131 0
5.30301e-14 1.0131 0
-1.37532e-13 1.01452 0
4.86297e-14 1.01452 0
5.30301e-14 1.0131 0
7.00571e-14 1.0131 0
4.86297e-14 1.01452 0
7.692e-14 1.01452 0
1.43191e-13 1.01452 0
-1.52244e-13 1.01452 0
1.47679e-13 1.01594 0
-1.4712e-13 1.01594 0
-1.52244e-13 1.01452 0
-3.21808e-14 1.01452 0
-1.4712e-13 1.01594 0
-3.46018e-14 1.01594 0
0 1.01594 0
-8.13823e-14 1.01594 0
0 1.01736 0
-7.70516e-14 1.01736 0
-8.13823e-14 1.01594 0
-9.72084e-14 1.01594 0
-7.70516e-14 1.01736 0
-9.58257e-14 1.01736 0
0 1.01736 0
5.08904e-14 1.01736 0
0 1.01878 0
5.55775e-14 1.01878 0
5.08904e-14 1.01736 0
4.41518e-14 1.01736 0
5.55775e-14 1.01878 0
4.89743e-14 1.01878 0
-9.72084e-14 1.01594 0
1.1899e-13 1.01594 0
-9.58257e-14 1.01736 0
1.19216e-13 1.01736 0
1.1899e-13 1.01594 0
4.99007e-14 1.01594 0
1.19216e-13 1.01736 0
4.86748e-14 1.01736 0
4.41518e-14 1.01736 0
-6.15622e-14 1.01736 0
4.89743e-14 1.01878 0
-5.5621e-14 1.01878 0
-6.15622e-14 1.01736 0
-1.64327e-14 1.01736 0
-5.5621e-14 1.01878 0
-1.85356e-14 1.01878 0
7.00571e-14 1.0131 0
8.67539e-14 1.0131 0
7.692e-14 1.01452 0
8.91594e-14 1.01452 0
8.67539e-14 1.0131 0
1.23814e-14 1.0131 0
8.91594e-14 1.01452 0
1.33973e-14 1.01452 0
-3.21808e-14 1.01452 0
-2.07751e-14 1.01452 0
-3.46018e-14 1.01594 0
-1.56345e-14 1.01594 0
-2.07751e-14 1.01452 0
-1.24088e-14 1.01452 0
-1.56345e-14 1.01594 0
-4.58626e-15 1.01594 0
1.23814e-14 1.0131 0
-1.65542e-14 1.0131 0
1.33973e-14 1.01452 0
-9.73742e-15 1.01452 0
-1.65542e-14 1.0131 0
7.17075e-15 1.0131 0
-9.73742e-15 1.01452 0
8.17056e-15 1.01452 0
-1.24088e-14 1.01452 0
1.03808e-16 1.01452 0
-4.58626e-15 1.01594 0
9.08965e-15 1.01594 0
1.03808e-16 1.01452 0
-6.33291e-15 1.01452 0
9.08965e-15 1.01594 0
-2.10885e-15 1.01594 0
4.99007e-14 1.01594 0
1.50598e-15 1.01594 0
4.86748e-14 1.01736 0
7.41012e-15 1.01736 0
1.50598e-15 1.01594 0
3.90819e-15 1.01594 0
7.41012e-15 1.01736 0
2.36761e-16 1.01736 0
-1.64327e-14 1.01736 0
-1.57586e-14 1.01736 0
-1.85356e-14 1.01878 0
-1.04432e-14 1.01878 0
-1.57586e-14 1.01736 0
-8.42329e-16 1.01736 0
-1.04432e-14 1.01878 0
1.9863e-16 1.01878 0
3.90819e-15 1.01594 0
-4.47875e-15 1.01594 0
2.36761e-16 1.01736 0
6.89191e-15 1.01736 0
-4.47875e-15 1.01594 0
-4.58227e-15 1.01594 0
6.89191e-15 1.01736 0
4.46564e-15 1.01736 0
-8.42329e-16 1.01736 0
-3.53871e-15 1.01736 0
1.9863e-16 1.01878 0
4.27893e-15 1.01878 0
-3.53871e-15 1.01736 0
-4.84715e-15 1.01736 0
4.27893e-15 1.01878 0
5.11835e-15 1.01878 0
0 1.01878 0
1.7971e-14 1.01878 0
0 1.02022 0
1.96102e-14 1.02022 0
1.7971e-14 1.01878 0
-3.91244e-14 1.01878 0
1.96102e-14 1.02022 0
-3.79342e-14 1.02022 0
0 1.02022 0
-4.13681e-14 1.02022 0
0 1.02162 0
-3.55722e-14 1.02162 0
-4.13681e-14 1.02022 0
3.6486e-14 1.02022 0
-3.55722e-14 1.02162 0
3.56781e-14 1.02162 0
-3.91244e-14 1.01878 0
5.11529e-15 1.01878 0
-3.79342e-14 1.02022 0
1.0209e-14 1.02022 0
5.11529e-15 1.01878 0
-1.70216e-14 1.01878 0
1.0209e-14 1.02022 0
-1.10996e-14 1.02022 0
3.6486e-14 1.02022 0
-1.33864e-14 1.02022 0
3.56781e-14 1.02162 0
-1.11209e-14 1.02162 0
-1.33864e-14 1.02022 0
-9.20549e-15 1.02022 0
-1.11209e-14 1.02162 0
-8.76322e-15 1.02162 0
0 1.02162 0
6.47409e-15 1.02162 0
0 1.02284 0
3.15361e-15 1.02284 0
6.47409e-15 1.02162 0
-3.61941e-14 1.02162 0
3.15361e-15 1.02284 0
-3.48553e-14 1.02284 0
0 1.02284 0
5.77716e-15 1.02284 0
0 1.02341 0
2.61481e-15 1.02341 0
5.77716e-15 1.02284 0
-4.97637e-15 1.02284 0
2.61481e-15 1.02341 0
3.91422e-15 1.02341 0
-3.61941e-14 1.02162 0
1.30736e-14 1.02162 0
-3.48553e-14 1.02284 0
1.26045e-14 1.02284 0
1.30736e-14 1.02162 0
8.06493e-15 1.02162 0
1.26045e-14 1.02284 0
4.54817e-15 1.02284 0
-4.97637e-15 1.02284 0
-9.73883e-15 1.02284 0
3.91422e-15 1.02341 0
-1.88545e-14 1.02341 0
-9.73883e-15 1.02284 0
2.26269e-15 1.02284 0
-1.88545e-14 1.02341 0
2.08129e-14 1.02341 0
-1.70216e-14 1.01878 0
-1.79721e-14 1.01878 0
-1.10996e-14 1.02022 0
-1.03196e-14 1.02022 0
-1.79721e-14 1.01878 0
-1.25436e-15 1.01878 0
-1.03196e-14 1.02022 0
2.42466e-15 1.02022 0
-9.20549e-15 1.02022 0
1.22611e-14 1.02022 0
-8.76322e-15 1.02162 0
1.62925e-14 1.02162 0
1.22611e-14 1.02022 0
-4.07981e-15 1.02022 0
1.62925e-14 1.02162 0
2.85976e-15 1.02162 0
-1.25436e-15 1.01878 0
-1.532e-15 1.01878 0
2.42466e-15 1.02022 0
1.70253e-15 1.02022 0
-1.532e-15 1.01878 0
-6.50497e-15 1.01878 0
1.70253e-15 1.02022 0
4.98184e-15 1.02022 0
-4.07981e-15 1.02022 0
-5.998e-15 1.02022 0
2.85976e-15 1.02162 0
3.54517e-15 1.02162 0
-5.998e-15 1.02022 0
-4.04047e-15 1.02022 0
3.54517e-15 1.02162 0
2.67725e-15 1.02162 0
8.06493e-15 1.02162 0
-2.11697e-14 1.02162 0
4.54817e-15 1.02284 0
-1.41634e-14 1.02284 0
-2.11697e-14 1.02162 0
-2.87278e-15 1.02162 0
-1.41634e-14 1.02284 0
2.64719e-15 1.02284 0
2.26269e-15 1.02284 0
1.21704e-16 1.02284 0
2.08129e-14 1.02341 0
8.71827e-15 1.02341 0
1.21704e-16 1.02284 0
-2.62165e-15 1.02284 0
8.71827e-15 1.02341 0
-5.29853e-16 1.02341 0
-2.87278e-15 1.02162 0
-3.32585e-15 1.02162 0
2.64719e-15 1.02284 0
2.41548e-15 1.02284 0
-3.32585e-15 1.02162 0
4.16708e-16 1.02162 0
2.41548e-15 1.02284 0
6.49378e-16 1.02284 0
-2.62165e-15 1.02284 0
-1.29389e-15 1.02284 0
-5.29853e-16 1.02341 0
8.70226e-15 1.02341 0
-1.29389e-15 1.02284 0
-7.68161e-16 1.02284 0
8.70226e-15 1.02341 0
-2.20965e-14 1.02341 0
7.17075e-15 1.0131 0
1.53963e-14 1.0131 0
8.17056e-15 1.01452 0
2.04848e-14 1.01452 0
1.53963e-14 1.0131 0
-2.51998e-14 1.0131 0
2.04848e-14 1.01452 0
-2.24607e-14 1.01452 0
-6.33291e-15 1.01452 0
-1.16585e-14 1.01452 0
-2.10885e-15 1.01594 0
4.66318e-15 1.01594 0
-1.16585e-14 1.01452 0
-2.36473e-15 1.01452 0
4.66318e-15 1.01594 0
6.89421e-16 1.01594 0
-2.51998e-14 1.0131 0
1.85685e-17 1.0131 0
-2.24607e-14 1.01452 0
-1.06099e-16 1.01452 0
1.85685e-17 1.0131 0
-1.82179e-15 1.0131 0
-1.06099e-16 1.01452 0
4.91117e-15 1.01452 0
-2.36473e-15 1.01452 0
-2.58964e-15 1.01452 0
6.89421e-16 1.01594 0
1.9931e-15 1.01594 0
-2.58964e-15 1.01452 0
-2.10721e-15 1.01452 0
1.9931e-15 1.01594 0
5.5371e-15 1.01594 0
-4.58227e-15 1.01594 0
-6.46559e-15 1.01594 0
4.46564e-15 1.01736 0
7.19162e-15 1.01736 0
-6.46559e-15 1.01594 0
-6.59212e-15 1.01594 0
7.19162e-15 1.01736 0
8.78283e-15 1.01736 0
-4.84715e-15 1.01736 0
-3.22654e-15 1.01736 0
5.11835e-15 1.01878 0
4.97322e-16 1.01878 0
-3.22654e-15 1.01736 0
-1.45712e-15 1.01736 0
4.97322e-16 1.01878 0
2.09829e-15 1.01878 0
-6.59212e-15 1.01594 0
4.38546e-16 1.01594 0
8.78283e-15 1.01736 0
7.86183e-16 1.01736 0
4.38546e-16 1.01594 0
-3.6197e-15 1.01594 0
7.86183e-16 1.01736 0
1.35777e-15 1.01736 0
-1.45712e-15 1.01736 0
-6.1755e-15 1.01736 0
2.09829e-15 1.01878 0
7.67334e-15 1.01878 0
-6.1755e-15 1.01736 0
8.53134e-16 1.01736 0
7.67334e-15 1.01878 0
2.81312e-15 1.01878 0
-1.82179e-15 1.0131 0
-3.2429e-16 1.0131 0
4.91117e-15 1.01452 0
2.39904e-15 1.01452 0
-3.2429e-16 1.0131 0
1.00999e-16 1.0131 0
2.39904e-15 1.01452 0
5.56043e-15 1.01452 0
-2.10721e-15 1.01452 0
1.9511e-15 1.01452 0
5.5371e-15 1.01594 0
1.71477e-16 1.01594 0
1.9511e-15 1.01452 0
-2.25563e-15 1.01452 0
1.71477e-16 1.01594 0
6.8167e-16 1.01594 0
1.00999e-16 1.0131 0
-3.57578e-15 1.0131 0
5.56043e-15 1.01452 0
3.30918e-15 1.01452 0
-3.57578e-15 1.0131 0
-2.07143e-16 1.0131 0
3.30918e-15 1.01452 0
7.26427e-17 1.01452 0
-2.25563e-15 1.01452 0
-1.54851e-15 1.01452 0
6.8167e-16 1.01594 0
3.99694e-15 1.01594 0
-1.54851e-15 1.01452 0
-1.77029e-15 1.01452 0
3.99694e-15 1.01594 0
4.90623e-15 1.01594 0
-3.6197e-15 1.01594 0
-2.31225e-15 1.01594 0
1.35777e-15 1.01736 0
2.60836e-15 1.01736 0
-2.31225e-15 1.01594 0
3.12699e-15 1.01594 0
2.60836e-15 1.01736 0
2.26417e-15 1.01736 0
8.53134e-16 1.01736 0
-1.85198e-15 1.01736 0
2.81312e-15 1.01878 0
2.82419e-15 1.01878 0
-1.85198e-15 1.01736 0
-5.869e-15 1.01736 0
2.82419e-15 1.01878 0
5.30579e-15 1.01878 0
3.12699e-15 1.01594 0
-9.94793e-16 1.01594 0
2.26417e-15 1.01736 0
4.44808e-15 1.01736 0
-9.94793e-16 1.01594 0
-2.50544e-15 1.01594 0
4.44808e-15 1.01736 0
9.4452e-15 1.01736 0
-5.869e-15 1.01736 0
-4.80785e-15 1.01736 0
5.30579e-15 1.01878 0
5.31414e-16 1.01878 0
-4.80785e-15 1.01736 0
4.91187e-15 1.01736 0
5.31414e-16 1.01878 0
-2.84767e-15 1.01878 0
-6.50497e-15 1.01878 0
-4.9447e-15 1.01878 0
4.98184e-15 1.02022 0
-7.85067e-16 1.02022 0
-4.9447e-15 1.01878 0
-4.20241e-15 1.01878 0
-7.85067e-16 1.02022 0
2.18859e-15 1.02022 0
-4.04047e-15 1.02022 0
1.37952e-16 1.02022 0
2.67725e-15 1.02162 0
2.86874e-15 1.02162 0
1.37952e-16 1.02022 0
-1.36612e-15 1.02022 0
2.86874e-15 1.02162 0
9.2684e-16 1.02162 0
-4.20241e-15 1.01878 0
1.39215e-15 1.01878 0
2.18859e-15 1.02022 0
2.37262e-15 1.02022 0
1.39215e-15 1.01878 0
-1.06442e-15 1.01878 0
2.37262e-15 1.02022 0
1.98743e-15 1.02022 0
-1.36612e-15 1.02022 0
-4.74884e-15 1.02022 0
9.2684e-16 1.02162 0
3.94116e-15 1.02162 0
-4.74884e-15 1.02022 0
-2.51402e-17 1.02022 0
3.94116e-15 1.02162 0
1.80973e-15 1.02162 0