# vtk DataFile Version 3.0
#This file was generated by the deal.II library on 2018/10/11 at 23:39:52
ASCII
DATASET UNSTRUCTURED_GRID

POINTS 5120 double
0 0 0
0.392699 0 0
0 0.622021 0
0.392699 0.622021 0
0.392699 0 0
0.785398 0 0
0.392699 0.622021 0
0.785398 0.622021 0
0 0.622021 0
0.392699 0.622021 0
0 1.24721 0
0.392699 1.24721 0
0.392699 0.622021 0
0.785398 0.622021 0
0.392699 1.24721 0
0.785398 1.24721 0
0.785398 0 0
1.1781 0 0
0.785398 0.622021 0
1.1781 0.622021 0
1.1781 0 0
1.5708 0 0
1.1781 0.622021 0
1.5708 0.622021 0
0.785398 0.622021 0
1.1781 0.622021 0
0.785398 1.24721 0
1.1781 1.24721 0
1.1781 0.622021 0
1.5708 0.622021 0
1.1781 1.24721 0
1.5708 1.24721 0
0 1.24721 0
0.392699 1.24721 0
0 1.87226 0
0.392699 1.87226 0
0.392699 1.24721 0
0.785398 1.24721 0
0.392699 1.87226 0
0.785398 1.87226 0
0 1.87226 0
0.392699 1.87226 0
0 2.49741 0
0.392699 2.49741 0
0.392699 1.87226 0
0.785398 1.87226 0
0.392699 2.49741 0
0.785398 2.49741 0
0.785398 1.24721 0
1.1781 1.24721 0
0.785398 1.87226 0
1.1781 1.87226 0
1.1781 1.24721 0
1.5708 1.24721 0
1.1781 1.87226 0
1.5708 1.87226 0
0.785398 1.87226 0
1.1781 1.87226 0
0.785398 2.49741 0
1.1781 2.49741 0
1.1781 1.87226 0
1.5708 1.87226 0
1.1781 2.49741 0
1.5708 2.49741 0
1.5708 0 0
1.9635 0 0
1.5708 0.622021 0
1.9635 0.622021 0
1.9635 0 0
2.35619 0 0
1.9635 0.622021 0
2.35619 0.622021 0
1.5708 0.622021 0
1.9635 0.622021 0
1.5708 1.24721 0
1.9635 1.24721 0
1.9635 0.622021 0
2.35619 0.622021 0
1.9635 1.24721 0
2.35619 1.24721 0
2.35619 0 0
2.74889 0 0
2.35619 0.622021 0
2.74889 0.622021 0
2.74889 0 0
3.14159 0 0
2.74889 0.622021 0
3.14159 0.622021 0
2.35619 0.622021 0
2.74889 0.622021 0
2.35619 1.24721 0
2.74889 1.24721 0
2.74889 0.622021 0
3.14159 0.622021 0
2.74889 1.24721 0
3.14159 1.24721 0
1.5708 1.24721 0
1.9635 1.24721 0
1.5708 1.87226 0
1.9635 1.87226 0
1.9635 1.24721 0
2.35619 1.24721 0
1.9635 1.87226 0
2.35619 1.87226 0
1.5708 1.87226 0
1.9635 1.87226 0
1.5708 2.49741 0
1.9635 2.49741 0
1.9635 1.87226 0
2.35619 1.87226 0
1.9635 2.49741 0
2.35619 2.49741 0
2.35619 1.24721 0
2.74889 1.24721 0
2.35619 1.87226 0
2.74889 1.87226 0
2.74889 1.24721 0
3.14159 1.24721 0
2.74889 1.87226 0
3.14159 1.87226 0
2.35619 1.87226 0
2.74889 1.87226 0
2.35619 2.49741 0
2.74889 2.49741 0
2.74889 1.87226 0
3.14159 1.87226 0
2.74889 2.49741 0
3.14159 2.49741 0
0 2.49741 0
0.392699 2.49741 0
0 3.12253 0
0.392699 3.12253 0
0.392699 2.49741 0
0.785398 2.49741 0
0.392699 3.12253 0
0.785398 3.12253 0
0 3.12253 0
0.392699 3.12253 0
0 3.74766 0
0.392699 3.74766 0
0.392699 3.12253 0
0.785398 3.12253 0
0.392699 3.74766 0
0.785398 3.74766 0
0.785398 2.49741 0
1.1781 2.49741 0
0.785398 3.12253 0
1.1781 3.12253 0
1.1781 2.49741 0
1.5708 2.49741 0
1.1781 3.12253 0
1.5708 3.12253 0
0.785398 3.12253 0
1.1781 3.12253 0
0.785398 3.74766 0
1.1781 3.74766 0
1.1781 3.12253 0
1.5708 3.12253 0
1.1781 3.74766 0
1.5708 3.74766 0
0 3.74766 0
0.392699 3.74766 0
0 4.37277 0
0.392699 4.37277 0
0.392699 3.74766 0
0.785398 3.74766 0
0.392699 4.37277 0
0.785398 4.37277 0
0 4.37277 0
0.392699 4.37277 0
0 4.99787 0
0.392699 4.99787 0
0.392699 4.37277 0
0.785398 4.37277 0
0.392699 4.99787 0
0.785398 4.99787 0
0.785398 3.74766 0
1.1781 3.74766 0
0.785398 4.37277 0
1.1781 4.37277 0
1.1781 3.74766 0
1.5708 3.74766 0
1.1781 4.37277 0
1.5708 4.37277 0
0.785398 4.37277 0
1.1781 4.37277 0
0.785398 4.99787 0
1.1781 4.99787 0
1.1781 4.37277 0
1.5708 4.37277 0
1.1781 4.99787 0
1.5708 4.99787 0
1.5708 2.49741 0
1.9635 2.49741 0
1.5708 3.12253 0
1.9635 3.12253 0
1.9635 2.49741 0
2.35619 2.49741 0
1.9635 3.12253 0
2.35619 3.12253 0
1.5708 3.12253 0
1.9635 3.12253 0
1.5708 3.74766 0
1.9635 3.74766 0
1.9635 3.12253 0
2.35619 3.12253 0
1.9635 3.74766 0
2.35619 3.74766 0
2.35619 2.49741 0
2.74889 2.49741 0
2.35619 3.12253 0
2.74889 3.12253 0
2.74889 2.49741 0
3.14159 2.49741 0
2.74889 3.12253 0
3.14159 3.12253 0
2.35619 3.12253 0
2.74889 3.12253 0
2.35619 3.74766 0
2.74889 3.74766 0
2.74889 3.12253 0
3.14159 3.12253 0
2.74889 3.74766 0
3.14159 3.74766 0
1.5708 3.74766 0
1.9635 3.74766 0
1.5708 4.37277 0
1.9635 4.37277 0
1.9635 3.74766 0
2.35619 3.74766 0
1.9635 4.37277 0
2.35619 4.37277 0
1.5708 4.37277 0
1.9635 4.37277 0
1.5708 4.99787 0
1.9635 4.99787 0
1.9635 4.37277 0
2.35619 4.37277 0
1.9635 4.99787 0
2.35619 4.99787 0
2.35619 3.74766 0
2.74889 3.74766 0
2.35619 4.37277 0
2.74889 4.37277 0
2.74889 3.74766 0
3.14159 3.74766 0
2.74889 4.37277 0
3.14159 4.37277 0
2.35619 4.37277 0
2.74889 4.37277 0
2.35619 4.99787 0
2.74889 4.99787 0
2.74889 4.37277 0
3.14159 4.37277 0
2.74889 4.99787 0
3.14159 4.99787 0
3.14159 0 0
3.53429 0 0
3.14159 0.622021 0
3.53429 0.622021 0
3.53429 0 0
3.92699 0 0
3.53429 0.622021 0
3.92699 0.622021 0
3.14159 0.622021 0
3.53429 0.622021 0
3.14159 1.24721 0
3.53429 1.24721 0
3.53429 0.622021 0
3.92699 0.622021 0
3.53429 1.24721 0
3.92699 1.24721 0
3.92699 0 0
4.31969 0 0
3.92699 0.622021 0
4.31969 0.622021 0
4.31969 0 0
4.71239 0 0
4.31969 0.622021 0
4.71239 0.622021 0
3.92699 0.622021 0
4.31969 0.622021 0
3.92699 1.24721 0
4.31969 1.24721 0
4.31969 0.622021 0
4.71239 0.622021 0
4.31969 1.24721 0
4.71239 1.24721 0
3.14159 1.24721 0
3.53429 1.24721 0
3.14159 1.87226 0
3.53429 1.87226 0
3.53429 1.24721 0
3.92699 1.24721 0
3.53429 1.87226 0
3.92699 1.87226 0
3.14159 1.87226 0
3.53429 1.87226 0
3.14159 2.49741 0
3.53429 2.49741 0
3.53429 1.87226 0
3.92699 1.87226 0
3.53429 2.49741 0
3.92699 2.49741 0
3.92699 1.24721 0
4.31969 1.24721 0
3.92699 1.87226 0
4.31969 1.87226 0
4.31969 1.24721 0
4.71239 1.24721 0
4.31969 1.87226 0
4.71239 1.87226 0
3.92699 1.87226 0
4.31969 1.87226 0
3.92699 2.49741 0
4.31969 2.49741 0
4.31969 1.87226 0
4.71239 1.87226 0
4.31969 2.49741 0
4.71239 2.49741 0
4.71239 0 0
5.10509 0 0
4.71239 0.622021 0
5.10509 0.622021 0
5.10509 0 0
5.49779 0 0
5.10509 0.622021 0
5.49779 0.622021 0
4.71239 0.622021 0
5.10509 0.622021 0
4.71239 1.24721 0
5.10509 1.24721 0
5.10509 0.622021 0
5.49779 0.622021 0
5.10509 1.24721 0
5.49779 1.24721 0
5.49779 0 0
5.89049 0 0
5.49779 0.622021 0
5.89049 0.622021 0
5.89049 0 0
6.28319 0 0
5.89049 0.622021 0
6.28319 0.622021 0
5.49779 0.622021 0
5.89049 0.622021 0
5.49779 1.24721 0
5.89049 1.24721 0
5.89049 0.622021 0
6.28319 0.622021 0
5.89049 1.24721 0
6.28319 1.24721 0
4.71239 1.24721 0
5.10509 1.24721 0
4.71239 1.87226 0
5.10509 1.87226 0
5.10509 1.24721 0
5.49779 1.24721 0
5.10509 1.87226 0
5.49779 1.87226 0
4.71239 1.87226 0
5.10509 1.87226 0
4.71239 2.49741 0
5.10509 2.49741 0
5.10509 1.87226 0
5.49779 1.87226 0
5.10509 2.49741 0
5.49779 2.49741 0
5.49779 1.24721 0
5.89049 1.24721 0
5.49779 1.87226 0
5.89049 1.87226 0
5.89049 1.24721 0
6.28319 1.24721 0
5.89049 1.87226 0
6.28319 1.87226 0
5.49779 1.87226 0
5.89049 1.87226 0
5.49779 2.49741 0
5.89049 2.49741 0
5.89049 1.87226 0
6.28319 1.87226 0
5.89049 2.49741 0
6.28319 2.49741 0
3.14159 2.49741 0
3.53429 2.49741 0
3.14159 3.12253 0
3.53429 3.12253 0
3.53429 2.49741 0
3.92699 2.49741 0
3.53429 3.12253 0
3.92699 3.12253 0
3.14159 3.12253 0
3.53429 3.12253 0
3.14159 3.74766 0
3.53429 3.74766 0
3.53429 3.12253 0
3.92699 3.12253 0
3.53429 3.74766 0
3.92699 3.74766 0
3.92699 2.49741 0
4.31969 2.49741 0
3.92699 3.12253 0
4.31969 3.12253 0
4.31969 2.49741 0
4.71239 2.49741 0
4.31969 3.12253 0
4.71239 3.12253 0
3.92699 3.12253 0
4.31969 3.12253 0
3.92699 3.74766 0
4.31969 3.74766 0
4.31969 3.12253 0
4.71239 3.12253 0
4.31969 3.74766 0
4.71239 3.74766 0
3.14159 3.74766 0
3.53429 3.74766 0
3.14159 4.37277 0
3.53429 4.37277 0
3.53429 3.74766 0
3.92699 3.74766 0
3.53429 4.37277 0
3.92699 4.37277 0
3.14159 4.37277 0
3.53429 4.37277 0
3.14159 4.99787 0
3.53429 4.99787 0
3.53429 4.37277 0
3.92699 4.37277 0
3.53429 4.99787 0
3.92699 4.99787 0
3.92699 3.74766 0
4.31969 3.74766 0
3.92699 4.37277 0
4.31969 4.37277 0
4.31969 3.74766 0
4.71239 3.74766 0
4.31969 4.37277 0
4.71239 4.37277 0
3.92699 4.37277 0
4.31969 4.37277 0
3.92699 4.99787 0
4.31969 4.99787 0
4.31969 4.37277 0
4.71239 4.37277 0
4.31969 4.99787 0
4.71239 4.99787 0
4.71239 2.49741 0
5.10509 2.49741 0
4.71239 3.12253 0
5.10509 3.12253 0
5.10509 2.49741 0
5.49779 2.49741 0
5.10509 3.12253 0
5.49779 3.12253 0
4.71239 3.12253 0
5.10509 3.12253 0
4.71239 3.74766 0
5.10509 3.74766 0
5.10509 3.12253 0
5.49779 3.12253 0
5.10509 3.74766 0
5.49779 3.74766 0
5.49779 2.49741 0
5.89049 2.49741 0
5.49779 3.12253 0
5.89049 3.12253 0
5.89049 2.49741 0
6.28319 2.49741 0
5.89049 3.12253 0
6.28319 3.12253 0
5.49779 3.12253 0
5.89049 3.12253 0
5.49779 3.74766 0
5.89049 3.74766 0
5.89049 3.12253 0
6.28319 3.12253 0
5.89049 3.74766 0
6.28319 3.74766 0
4.71239 3.74766 0
5.10509 3.74766 0
4.71239 4.37277 0
5.10509 4.37277 0
5.10509 3.74766 0
5.49779 3.74766 0
5.10509 4.37277 0
5.49779 4.37277 0
4.71239 4.37277 0
5.10509 4.37277 0
4.71239 4.99787 0
5.10509 4.99787 0
5.10509 4.37277 0
5.49779 4.37277 0
5.10509 4.99787 0
5.49779 4.99787 0
5.49779 3.74766 0
5.89049 3.74766 0
5.49779 4.37277 0
5.89049 4.37277 0
5.89049 3.74766 0
6.28319 3.74766 0
5.89049 4.37277 0
6.28319 4.37277 0
5.49779 4.37277 0
5.89049 4.37277 0
5.49779 4.99787 0
5.89049 4.99787 0
5.89049 4.37277 0
6.28319 4.37277 0
5.89049 4.99787 0
6.28319 4.99787 0
0 4.99787 0
0.392699 4.99787 0
0 5.62296 0
0.392699 5.62296 0
0.392699 4.99787 0
0.785398 4.99787 0
0.392699 5.62296 0
0.785398 5.62296 0
0 5.62296 0
0.392699 5.62296 0
0 6.24803 0
0.392699 6.24803 0
0.392699 5.62296 0
0.785398 5.62296 0
0.392699 6.24803 0
0.785398 6.24803 0
0.785398 4.99787 0
1.1781 4.99787 0
0.785398 5.62296 0
1.1781 5.62296 0
1.1781 4.99787 0
1.5708 4.99787 0
1.1781 5.62296 0
1.5708 5.62296 0
0.785398 5.62296 0
1.1781 5.62296 0
0.785398 6.24803 0
1.1781 6.24803 0
1.1781 5.62296 0
1.5708 5.62296 0
1.1781 6.24803 0
1.5708 6.24803 0
0 6.24803 0
0.392699 6.24803 0
0 6.8731 0
0.392699 6.8731 0
0.392699 6.24803 0
0.785398 6.24803 0
0.392699 6.8731 0
0.785398 6.8731 0
0 6.8731 0
0.392699 6.8731 0
0 7.49816 0
0.392699 7.49816 0
0.392699 6.8731 0
0.785398 6.8731 0
0.392699 7.49816 0
0.785398 7.49816 0
0.785398 6.24803 0
1.1781 6.24803 0
0.785398 6.8731 0
[...]
POINT_DATA 5120
VECTORS uf double
0 1 0
-5.50625e-15 1 0
0 1.00171 0
-8.95371e-15 1.00171 0
-5.50625e-15 1 0
-4.10664e-15 1 0
-8.95371e-15 1.00171 0
2.2661e-15 1.00171 0
0 1.00171 0
-2.24289e-15 1.00171 0
0 1.00262 0
2.14836e-14 1.00262 0
-2.24289e-15 1.00171 0
-5.34379e-15 1.00171 0
2.14836e-14 1.00262 0
1.16747e-14 1.00262 0
-4.10664e-15 1 0
-1.9423e-14 1 0
2.2661e-15 1.00171 0
2.59885e-14 1.00171 0
-1.9423e-14 1 0
-2.05559e-14 1 0
2.59885e-14 1.00171 0
2.15027e-14 1.00171 0
-5.34379e-15 1.00171 0
-2.22188e-14 1.00171 0
1.16747e-14 1.00262 0
2.07154e-14 1.00262 0
-2.22188e-14 1.00171 0
-2.13638e-14 1.00171 0
2.07154e-14 1.00262 0
2.54004e-14 1.00262 0
0 1.00262 0
-8.35452e-15 1.00262 0
0 1.00371 0
6.94216e-15 1.00371 0
-8.35452e-15 1.00262 0
-1.21245e-14 1.00262 0
6.94216e-15 1.00371 0
1.12086e-14 1.00371 0
0 1.00371 0
-1.28295e-14 1.00371 0
0 1.00473 0
6.43343e-15 1.00473 0
-1.28295e-14 1.00371 0
-1.63815e-14 1.00371 0
6.43343e-15 1.00473 0
2.06144e-14 1.00473 0
-1.21245e-14 1.00262 0
-2.74107e-14 1.00262 0
1.12086e-14 1.00371 0
3.01167e-14 1.00371 0
-2.74107e-14 1.00262 0
-2.21402e-14 1.00262 0
3.01167e-14 1.00371 0
2.07687e-14 1.00371 0
-1.63815e-14 1.00371 0
-1.44685e-14 1.00371 0
2.06144e-14 1.00473 0
1.50951e-14 1.00473 0
-1.44685e-14 1.00371 0
-1.20994e-14 1.00371 0
1.50951e-14 1.00473 0
9.07867e-15 1.00473 0
-2.05559e-14 1 0
-2.01416e-14 1 0
2.15027e-14 1.00171 0
1.68433e-14 1.00171 0
-2.01416e-14 1 0
-1.81262e-14 1 0
1.68433e-14 1.00171 0
1.34724e-14 1.00171 0
-2.13638e-14 1.00171 0
-1.3911e-14 1.00171 0
2.54004e-14 1.00262 0
2.16404e-14 1.00262 0
-1.3911e-14 1.00171 0
-1.37811e-14 1.00171 0
2.16404e-14 1.00262 0
2.34755e-14 1.00262 0
-1.81262e-14 1 0
-1.72168e-14 1 0
1.34724e-14 1.00171 0
2.18166e-14 1.00171 0
-1.72168e-14 1 0
-6.70433e-15 1 0
2.18166e-14 1.00171 0
-5.06421e-16 1.00171 0
-1.37811e-14 1.00171 0
-2.48639e-14 1.00171 0
2.34755e-14 1.00262 0
3.04462e-14 1.00262 0
-2.48639e-14 1.00171 0
-6.06053e-15 1.00171 0
3.04462e-14 1.00262 0
2.56205e-14 1.00262 0
-2.21402e-14 1.00262 0
-1.7362e-14 1.00262 0
2.07687e-14 1.00371 0
2.0084e-14 1.00371 0
-1.7362e-14 1.00262 0
-9.61404e-15 1.00262 0
2.0084e-14 1.00371 0
9.43473e-15 1.00371 0
-1.20994e-14 1.00371 0
-1.91137e-14 1.00371 0
9.07867e-15 1.00473 0
1.7659e-14 1.00473 0
-1.91137e-14 1.00371 0
-1.22943e-14 1.00371 0
1.7659e-14 1.00473 0
1.743e-14 1.00473 0
-9.61404e-15 1.00262 0
-2.47415e-14 1.00262 0
9.43473e-15 1.00371 0
2.15343e-14 1.00371 0
-2.47415e-14 1.00262 0
-2.48605e-14 1.00262 0
2.15343e-14 1.00371 0
2.4219e-14 1.00371 0
-1.22943e-14 1.00371 0
-1.15625e-14 1.00371 0
1.743e-14 1.00473 0
1.53619e-14 1.00473 0
-1.15625e-14 1.00371 0
-1.67412e-14 1.00371 0
1.53619e-14 1.00473 0
2.01207e-14 1.00473 0
0 1.00473 0
1.95593e-15 1.00473 0
0 1.00575 0
5.22365e-15 1.00575 0
1.95593e-15 1.00473 0
-1.06762e-14 1.00473 0
5.22365e-15 1.00575 0
-2.68494e-16 1.00575 0
0 1.00575 0
-5.94975e-15 1.00575 0
0 1.00676 0
-3.63575e-15 1.00676 0
-5.94975e-15 1.00575 0
-4.83986e-15 1.00575 0
-3.63575e-15 1.00676 0
1.62321e-14 1.00676 0
-1.06762e-14 1.00473 0
-1.81318e-14 1.00473 0
-2.68494e-16 1.00575 0
1.55456e-14 1.00575 0
-1.81318e-14 1.00473 0
-2.41587e-15 1.00473 0
1.55456e-14 1.00575 0
1.09751e-14 1.00575 0
-4.83986e-15 1.00575 0
-2.03681e-14 1.00575 0
1.62321e-14 1.00676 0
2.34284e-14 1.00676 0
-2.03681e-14 1.00575 0
-1.737e-14 1.00575 0
2.34284e-14 1.00676 0
7.96543e-15 1.00676 0
0 1.00676 0
5.93833e-15 1.00676 0
0 1.00776 0
4.17354e-15 1.00776 0
5.93833e-15 1.00676 0
-1.28639e-14 1.00676 0
4.17354e-15 1.00776 0
1.8082e-15 1.00776 0
0 1.00776 0
2.16878e-16 1.00776 0
0 1.00875 0
5.31175e-15 1.00875 0
2.16878e-16 1.00776 0
2.41944e-15 1.00776 0
5.31175e-15 1.00875 0
1.36981e-14 1.00875 0
-1.28639e-14 1.00676 0
-1.68871e-14 1.00676 0
1.8082e-15 1.00776 0
5.82093e-15 1.00776 0
-1.68871e-14 1.00676 0
-1.23977e-14 1.00676 0
5.82093e-15 1.00776 0
1.93086e-14 1.00776 0
2.41944e-15 1.00776 0
3.91105e-15 1.00776 0
1.36981e-14 1.00875 0
3.92331e-15 1.00875 0
3.91105e-15 1.00776 0
-6.06877e-15 1.00776 0
3.92331e-15 1.00875 0
4.50729e-15 1.00875 0
-2.41587e-15 1.00473 0
-1.86444e-14 1.00473 0
1.09751e-14 1.00575 0
1.75326e-14 1.00575 0
-1.86444e-14 1.00473 0
-1.60118e-14 1.00473 0
1.75326e-14 1.00575 0
1.19736e-14 1.00575 0
-1.737e-14 1.00575 0
-1.4877e-14 1.00575 0
7.96543e-15 1.00676 0
1.34433e-14 1.00676 0
-1.4877e-14 1.00575 0
-4.09923e-15 1.00575 0
1.34433e-14 1.00676 0
1.11782e-14 1.00676 0
-1.60118e-14 1.00473 0
-1.6125e-14 1.00473 0
1.19736e-14 1.00575 0
1.69714e-14 1.00575 0
-1.6125e-14 1.00473 0
-2.79765e-14 1.00473 0
1.69714e-14 1.00575 0
2.76834e-14 1.00575 0
-4.09923e-15 1.00575 0
-1.00989e-14 1.00575 0
1.11782e-14 1.00676 0
9.00723e-15 1.00676 0
-1.00989e-14 1.00575 0
-2.17292e-14 1.00575 0
9.00723e-15 1.00676 0
2.58655e-14 1.00676 0
-1.23977e-14 1.00676 0
-6.19301e-15 1.00676 0
1.93086e-14 1.00776 0
1.30142e-14 1.00776 0
-6.19301e-15 1.00676 0
-2.13555e-14 1.00676 0
1.30142e-14 1.00776 0
2.3027e-14 1.00776 0
-6.06877e-15 1.00776 0
-1.41979e-14 1.00776 0
4.50729e-15 1.00875 0
1.25363e-14 1.00875 0
-1.41979e-14 1.00776 0
-1.85327e-14 1.00776 0
1.25363e-14 1.00875 0
1.77374e-14 1.00875 0
-2.13555e-14 1.00676 0
-4.22986e-15 1.00676 0
2.3027e-14 1.00776 0
7.01841e-15 1.00776 0
-4.22986e-15 1.00676 0
-2.57449e-14 1.00676 0
7.01841e-15 1.00776 0
2.43683e-14 1.00776 0
-1.85327e-14 1.00776 0
-1.24227e-14 1.00776 0
1.77374e-14 1.00875 0
1.22394e-14 1.00875 0
-1.24227e-14 1.00776 0
-2.12303e-14 1.00776 0
1.22394e-14 1.00875 0
1.72551e-14 1.00875 0
-6.70433e-15 1 0
-2.1646e-14 1 0
-5.06421e-16 1.00171 0
2.17766e-14 1.00171 0
-2.1646e-14 1 0
-1.59201e-14 1 0
2.17766e-14 1.00171 0
2.30541e-14 1.00171 0
-6.06053e-15 1.00171 0
-6.8813e-15 1.00171 0
2.56205e-14 1.00262 0
1.51768e-14 1.00262 0
-6.8813e-15 1.00171 0
-9.7529e-15 1.00171 0
1.51768e-14 1.00262 0
9.04315e-15 1.00262 0
-1.59201e-14 1 0
-9.89401e-15 1 0
2.30541e-14 1.00171 0
1.4759e-14 1.00171 0
-9.89401e-15 1 0
-1.6604e-14 1 0
1.4759e-14 1.00171 0
1.80004e-14 1.00171 0
-9.7529e-15 1.00171 0
-1.64429e-14 1.00171 0
9.04315e-15 1.00262 0
1.67843e-14 1.00262 0
-1.64429e-14 1.00171 0
-9.77496e-15 1.00171 0
1.67843e-14 1.00262 0
1.96455e-14 1.00262 0
-2.48605e-14 1.00262 0
-1.40046e-14 1.00262 0
2.4219e-14 1.00371 0
1.74934e-14 1.00371 0
-1.40046e-14 1.00262 0
-1.15392e-14 1.00262 0
1.74934e-14 1.00371 0
1.75876e-14 1.00371 0
-1.67412e-14 1.00371 0
-1.63106e-14 1.00371 0
2.01207e-14 1.00473 0
2.00418e-14 1.00473 0
-1.63106e-14 1.00371 0
-1.4883e-14 1.00371 0
2.00418e-14 1.00473 0
1.67168e-14 1.00473 0
-1.15392e-14 1.00262 0
-1.13419e-14 1.00262 0
1.75876e-14 1.00371 0
1.82838e-14 1.00371 0
-1.13419e-14 1.00262 0
-1.80688e-14 1.00262 0
1.82838e-14 1.00371 0
2.0658e-14 1.00371 0
-1.4883e-14 1.00371 0
-1.77257e-14 1.00371 0
1.67168e-14 1.00473 0
1.88339e-14 1.00473 0
-1.77257e-14 1.00371 0
-1.31376e-14 1.00371 0
1.88339e-14 1.00473 0
1.68053e-14 1.00473 0
-1.6604e-14 1 0
-1.93312e-14 1 0
1.80004e-14 1.00171 0
2.52915e-14 1.00171 0
-1.93312e-14 1 0
-1.52086e-14 1 0
2.52915e-14 1.00171 0
2.40339e-14 1.00171 0
-9.77496e-15 1.00171 0
-1.74575e-14 1.00171 0
1.96455e-14 1.00262 0
2.09951e-14 1.00262 0
-1.74575e-14 1.00171 0
-2.48973e-14 1.00171 0
2.09951e-14 1.00262 0
2.79537e-14 1.00262 0
-1.52086e-14 1 0
-5.01783e-15 1 0
2.40339e-14 1.00171 0
9.26237e-15 1.00171 0
-5.01783e-15 1 0
-1.00532e-14 1 0
9.26237e-15 1.00171 0
1.60534e-14 1.00171 0
-2.48973e-14 1.00171 0
-1.35131e-14 1.00171 0
2.79537e-14 1.00262 0
2.28651e-14 1.00262 0
-1.35131e-14 1.00171 0
-5.18654e-15 1.00171 0
2.28651e-14 1.00262 0
1.47999e-14 1.00262 0
-1.80688e-14 1.00262 0
-1.09125e-14 1.00262 0
2.0658e-14 1.00371 0
1.71609e-14 1.00371 0
-1.09125e-14 1.00262 0
-1.22342e-14 1.00262 0
1.71609e-14 1.00371 0
2.04644e-14 1.00371 0
-1.31376e-14 1.00371 0
-1.3745e-14 1.00371 0
1.68053e-14 1.00473 0
1.53945e-14 1.00473 0
-1.3745e-14 1.00371 0
-2.28759e-14 1.00371 0
1.53945e-14 1.00473 0
1.82431e-14 1.00473 0
-1.22342e-14 1.00262 0
-2.30082e-14 1.00262 0
2.04644e-14 1.00371 0
2.43075e-14 1.00371 0
-2.30082e-14 1.00262 0
-2.08316e-14 1.00262 0
2.43075e-14 1.00371 0
2.06817e-14 1.00371 0
-2.28759e-14 1.00371 0
-1.44147e-14 1.00371 0
1.82431e-14 1.00473 0
1.34044e-14 1.00473 0
-1.44147e-14 1.00371 0
-1.28372e-14 1.00371 0
1.34044e-14 1.00473 0
1.77787e-14 1.00473 0
-2.79765e-14 1.00473 0
-2.36384e-14 1.00473 0
2.76834e-14 1.00575 0
2.70194e-14 1.00575 0
-2.36384e-14 1.00473 0
-1.41799e-14 1.00473 0
2.70194e-14 1.00575 0
1.72777e-14 1.00575 0
-2.17292e-14 1.00575 0
-1.88963e-14 1.00575 0
2.58655e-14 1.00676 0
1.74353e-14 1.00676 0
-1.88963e-14 1.00575 0
-7.12042e-15 1.00575 0
1.74353e-14 1.00676 0
7.75208e-15 1.00676 0
-1.41799e-14 1.00473 0
-1.18308e-14 1.00473 0
1.72777e-14 1.00575 0
1.89084e-14 1.00575 0
-1.18308e-14 1.00473 0
-1.51557e-14 1.00473 0
1.89084e-14 1.00575 0
1.53695e-14 1.00575 0
-7.12042e-15 1.00575 0
-1.71857e-14 1.00575 0
7.75208e-15 1.00676 0
1.39319e-14 1.00676 0
-1.71857e-14 1.00575 0
-1.00295e-14 1.00575 0
1.39319e-14 1.00676 0
1.39495e-14 1.00676 0
-2.57449e-14 1.00676 0
-1.39453e-14 1.00676 0
2.43683e-14 1.00776 0
1.53458e-14 1.00776 0
-1.39453e-14 1.00676 0
-1.24147e-14 1.00676 0
1.53458e-14 1.00776 0
1.42944e-14 1.00776 0
-2.12303e-14 1.00776 0
-1.8649e-14 1.00776 0
1.72551e-14 1.00875 0
2.00194e-14 1.00875 0
-1.8649e-14 1.00776 0
-1.93848e-14 1.00776 0
2.00194e-14 1.00875 0
2.06815e-14 1.00875 0
-1.24147e-14 1.00676 0
-1.5009e-14 1.00676 0
1.42944e-14 1.00776 0
1.2871e-14 1.00776 0
-1.5009e-14 1.00676 0
-1.68449e-14 1.00676 0
1.2871e-14 1.00776 0
1.44952e-14 1.00776 0
-1.93848e-14 1.00776 0
-1.27731e-14 1.00776 0
2.06815e-14 1.00875 0
1.75941e-14 1.00875 0
-1.27731e-14 1.00776 0
-8.07025e-15 1.00776 0
1.75941e-14 1.00875 0
9.65447e-15 1.00875 0
-1.51557e-14 1.00473 0
-1.05314e-14 1.00473 0
1.53695e-14 1.00575 0
1.47182e-14 1.00575 0
-1.05314e-14 1.00473 0
-1.02301e-14 1.00473 0
1.47182e-14 1.00575 0
1.70959e-14 1.00575 0
-1.00295e-14 1.00575 0
-6.80518e-15 1.00575 0
1.39495e-14 1.00676 0
6.7953e-15 1.00676 0
-6.80518e-15 1.00575 0
-1.18847e-14 1.00575 0
6.7953e-15 1.00676 0
1.01999e-14 1.00676 0
-1.02301e-14 1.00473 0
2.169e-15 1.00473 0
1.70959e-14 1.00575 0
3.06503e-15 1.00575 0
2.169e-15 1.00473 0
-8.63265e-15 1.00473 0
3.06503e-15 1.00575 0
1.16299e-14 1.00575 0
-1.18847e-14 1.00575 0
-7.78444e-15 1.00575 0
1.01999e-14 1.00676 0
1.26024e-14 1.00676 0
-7.78444e-15 1.00575 0
-1.4465e-14 1.00575 0
1.26024e-14 1.00676 0
1.80636e-14 1.00676 0
-1.68449e-14 1.00676 0
-9.50675e-15 1.00676 0
1.44952e-14 1.00776 0
5.07744e-15 1.00776 0
-9.50675e-15 1.00676 0
-1.25307e-14 1.00676 0
5.07744e-15 1.00776 0
9.18158e-15 1.00776 0
-8.07025e-15 1.00776 0
-8.72187e-15 1.00776 0
9.65447e-15 1.00875 0
1.32957e-14 1.00875 0
-8.72187e-15 1.00776 0
-8.04595e-15 1.00776 0
1.32957e-14 1.00875 0
7.87887e-15 1.00875 0
-1.25307e-14 1.00676 0
-1.13764e-14 1.00676 0
9.18158e-15 1.00776 0
1.43696e-14 1.00776 0
-1.13764e-14 1.00676 0
-9.007e-15 1.00676 0
1.43696e-14 1.00776 0
1.06786e-14 1.00776 0
-8.04595e-15 1.00776 0
-1.35836e-14 1.00776 0
7.87887e-15 1.00875 0
1.21391e-14 1.00875 0
-1.35836e-14 1.00776 0
-5.32053e-15 1.00776 0
1.21391e-14 1.00875 0
6.79792e-15 1.00875 0
0 1.00875 0
-1.69516e-14 1.00875 0
0 1.00974 0
4.15159e-15 1.00974 0
-1.69516e-14 1.00875 0
-1.81346e-14 1.00875 0
4.15159e-15 1.00974 0
5.14686e-15 1.00974 0
0 1.00974 0
-1.84101e-15 1.00974 0
0 1.01073 0
7.71567e-15 1.01073 0
-1.84101e-15 1.00974 0
-4.70247e-15 1.00974 0
7.71567e-15 1.01073 0
1.00258e-14 1.01073 0
-1.81346e-14 1.00875 0
-6.73733e-15 1.00875 0
5.14686e-15 1.00974 0
1.70677e-16 1.00974 0
-6.73733e-15 1.00875 0
-4.06277e-15 1.00875 0
1.70677e-16 1.00974 0
7.21299e-15 1.00974 0
-4.70247e-15 1.00974 0
-1.00856e-14 1.00974 0
1.00258e-14 1.01073 0
1.50333e-14 1.01073 0
-1.00856e-14 1.00974 0
-9.33077e-15 1.00974 0
1.50333e-14 1.01073 0
1.41918e-14 1.01073 0
0 1.01073 0
-6.30829e-15 1.01073 0
0 1.01175 0
4.28579e-15 1.01175 0
-6.30829e-15 1.01073 0
-5.47915e-15 1.01073 0
4.28579e-15 1.01175 0
6.41487e-15 1.01175 0
0 1.01175 0
-4.67182e-15 1.01175 0
0 1.01279 0
2.89435e-15 1.01279 0
-4.67182e-15 1.01175 0
-6.4814e-15 1.01175 0
2.89435e-15 1.01279 0
2.70529e-15 1.01279 0
-5.47915e-15 1.01073 0
-1.0946e-14 1.01073 0
6.41487e-15 1.01175 0
9.87559e-15 1.01175 0
-1.0946e-14 1.01073 0
-1.63468e-14 1.01073 0
9.87559e-15 1.01175 0
1.05699e-14 1.01175 0
-6.4814e-15 1.01175 0
-8.47967e-15 1.01175 0
2.70529e-15 1.01279 0
8.81033e-15 1.01279 0
-8.47967e-15 1.01175 0
-6.00318e-15 1.01175 0
8.81033e-15 1.01279 0
7.87554e-15 1.01279 0
-4.06277e-15 1.00875 0
-1.70027e-14 1.00875 0
7.21299e-15 1.00974 0
1.26546e-14 1.00974 0
-1.70027e-14 1.00875 0
-1.44525e-14 1.00875 0
1.26546e-14 1.00974 0
1.50228e-14 1.00974 0
-9.33077e-15 1.00974 0
-1.10884e-14 1.00974 0
1.41918e-14 1.01073 0
1.81062e-14 1.01073 0
-1.10884e-14 1.00974 0
-1.2646e-14 1.00974 0
1.81062e-14 1.01073 0
1.41458e-14 1.01073 0
-1.44525e-14 1.00875 0
-1.24629e-14 1.00875 0
1.50228e-14 1.00974 0
1.43662e-14 1.00974 0
-1.24629e-14 1.00875 0
-1.07861e-14 1.00875 0
1.43662e-14 1.00974 0
1.44705e-14 1.00974 0
-1.2646e-14 1.00974 0
-1.30573e-14 1.00974 0
1.41458e-14 1.01073 0
1.47383e-14 1.01073 0
-1.30573e-14 1.00974 0
-1.74321e-14 1.00974 0
1.47383e-14 1.01073 0
1.85296e-14 1.01073 0
-1.63468e-14 1.01073 0
-1.75437e-14 1.01073 0
1.05699e-14 1.01175 0
1.51981e-14 1.01175 0
-1.75437e-14 1.01073 0
-1.79662e-14 1.01073 0
1.51981e-14 1.01175 0
1.71648e-14 1.01175 0
-6.00318e-15 1.01175 0
-1.3691e-14 1.01175 0
7.87554e-15 1.01279 0
1.47489e-14 1.01279 0
-1.3691e-14 1.01175 0
-1.41691e-14 1.01175 0
1.47489e-14 1.01279 0
1.37904e-14 1.01279 0
-1.79662e-14 1.01073 0
-1.53825e-14 1.01073 0
1.71648e-14 1.01175 0
1.73746e-14 1.01175 0
-1.53825e-14 1.01073 0
-1.69606e-14 1.01073 0
1.73746e-14 1.01175 0
1.54642e-14 1.01175 0
-1.41691e-14 1.01175 0
-1.65329e-14 1.01175 0
1.37904e-14 1.01279 0
1.38406e-14 1.01279 0
-1.65329e-14 1.01175 0
-1.40548e-14 1.01175 0
1.38406e-14 1.01279 0
1.24002e-14 1.01279 0
0 1.01279 0
1.54042e-15 1.01279 0
0 1.01385 0
1.12123e-15 1.01385 0
1.54042e-15 1.01279 0
-3.04592e-15 1.01279 0
1.12123e-15 1.01385 0
4.08216e-15 1.01385 0
0 1.01385 0
-2.5488e-15 1.01385 0
0 1.0149 0
1.72927e-15 1.0149 0
-2.5488e-15 1.01385 0
-9.78737e-16 1.01385 0
1.72927e-15 1.0149 0
2.31204e-15 1.0149 0
-3.04592e-15 1.01279 0
-1.14237e-14 1.01279 0
4.08216e-15 1.01385 0
8.90436e-15 1.01385 0
-1.14237e-14 1.01279 0
-1.19082e-14 1.01279 0
8.90436e-15 1.01385 0
8.7073e-15 1.01385 0
-9.78737e-16 1.01385 0
-1.1898e-15 1.01385 0
2.31204e-15 1.0149 0
3.87502e-15 1.0149 0
-1.1898e-15 1.01385 0
-4.59102e-15 1.01385 0
3.87502e-15 1.0149 0
5.70762e-15 1.0149 0
0 1.0149 0
5.64893e-16 1.0149 0
0 1.01578 0
-3.20235e-16 1.01578 0
5.64893e-16 1.0149 0
-4.07907e-15 1.0149 0
-3.20235e-16 1.01578 0
7.82521e-16 1.01578 0
0 1.01578 0
-5.8582e-16 1.01578 0
0 1.01603 0
3.86829e-15 1.01603 0
-5.8582e-16 1.01578 0
-4.90231e-15 1.01578 0
3.86829e-15 1.01603 0
1.60323e-15 1.01603 0
-4.07907e-15 1.0149 0
-6.71407e-15 1.0149 0
7.82521e-16 1.01578 0
4.20498e-15 1.01578 0
-6.71407e-15 1.0149 0
-4.96489e-15 1.0149 0
4.20498e-15 1.01578 0
3.24329e-15 1.01578 0
-4.90231e-15 1.01578 0
-8.47784e-15 1.01578 0
1.60323e-15 1.01603 0
3.8142e-15 1.01603 0
-8.47784e-15 1.01578 0
-5.11488e-15 1.01578 0
3.8142e-15 1.01603 0
-2.31169e-16 1.01603 0
-1.19082e-14 1.01279 0
-1.30363e-14 1.01279 0
8.7073e-15 1.01385 0
8.03018e-15 1.01385 0
-1.30363e-14 1.01279 0
-1.17977e-14 1.01279 0
8.03018e-15 1.01385 0
8.60934e-15 1.01385 0
-4.59102e-15 1.01385 0
-4.48601e-15 1.01385 0
5.70762e-15 1.0149 0
7.16196e-15 1.0149 0
-4.48601e-15 1.01385 0
-9.14564e-15 1.01385 0
7.16196e-15 1.0149 0
1.13013e-14 1.0149 0
-1.17977e-14 1.01279 0
-1.13135e-14 1.01279 0
8.60934e-15 1.01385 0
9.46555e-15 1.01385 0
-1.13135e-14 1.01279 0
-1.0063e-14 1.01279 0
9.46555e-15 1.01385 0
9.26181e-15 1.01385 0
-9.14564e-15 1.01385 0
-8.18753e-15 1.01385 0
1.13013e-14 1.0149 0
7.49829e-15 1.0149 0
-8.18753e-15 1.01385 0
-6.38982e-15 1.01385 0
7.49829e-15 1.0149 0
7.77379e-15 1.0149 0
-4.96489e-15 1.0149 0
-8.0608e-15 1.0149 0
3.24329e-15 1.01578 0
5.51978e-15 1.01578 0
-8.0608e-15 1.0149 0
-7.72946e-15 1.0149 0
5.51978e-15 1.01578 0
5.9582e-15 1.01578 0
-5.11488e-15 1.01578 0
-6.20925e-15 1.01578 0
-2.31169e-16 1.01603 0
5.9011e-15 1.01603 0
-6.20925e-15 1.01578 0
-5.56327e-15 1.01578 0
5.9011e-15 1.01603 0
7.17118e-15 1.01603 0
-7.72946e-15 1.0149 0
-7.35151e-15 1.0149 0
5.9582e-15 1.01578 0
6.62796e-15 1.01578 0
-7.35151e-15 1.0149 0
-9.29609e-15 1.0149 0
6.62796e-15 1.01578 0
7.95228e-15 1.01578 0
-5.56327e-15 1.01578 0
-2.14867e-15 1.01578 0
7.17118e-15 1.01603 0
2.18733e-15 1.01603 0
-2.14867e-15 1.01578 0
-4.14368e-15 1.01578 0
2.18733e-15 1.01603 0
4.78025e-15 1.01603 0
-1.07861e-14 1.00875 0
-1.57145e-14 1.00875 0
1.44705e-14 1.00974 0
1.8479e-14 1.00974 0
-1.57145e-14 1.00875 0
-1.15338e-14 1.00875 0
1.8479e-14 1.00974 0
1.10575e-14 1.00974 0
-1.74321e-14 1.00974 0
-2.36957e-14 1.00974 0
1.85296e-14 1.01073 0
2.80867e-14 1.01073 0
-2.36957e-14 1.00974 0
-1.08006e-14 1.00974 0
2.80867e-14 1.01073 0
1.38902e-14 1.01073 0
-1.15338e-14 1.00875 0
-1.10491e-14 1.00875 0
1.10575e-14 1.00974 0
1.21566e-14 1.00974 0
-1.10491e-14 1.00875 0
-1.15171e-14 1.00875 0
1.21566e-14 1.00974 0
1.47567e-14 1.00974 0
-1.08006e-14 1.00974 0
-1.38443e-14 1.00974 0
1.38902e-14 1.01073 0
1.54793e-14 1.01073 0
-1.38443e-14 1.00974 0
-1.19298e-14 1.00974 0
1.54793e-14 1.01073 0
1.89656e-14 1.01073 0
-1.69606e-14 1.01073 0
-2.57941e-14 1.01073 0
1.54642e-14 1.01175 0
2.17837e-14 1.01175 0
-2.57941e-14 1.01073 0
-2.06781e-14 1.01073 0
2.17837e-14 1.01175 0
2.28849e-14 1.01175 0
-1.40548e-14 1.01175 0
-1.75518e-14 1.01175 0
1.24002e-14 1.01279 0
1.52463e-14 1.01279 0
-1.75518e-14 1.01175 0
-1.2609e-14 1.01175 0
1.52463e-14 1.01279 0
1.07963e-14 1.01279 0
-2.06781e-14 1.01073 0
-1.51771e-14 1.01073 0
2.28849e-14 1.01175 0
1.51266e-14 1.01175 0
-1.51771e-14 1.01073 0
-1.79806e-14 1.01073 0
1.51266e-14 1.01175 0
1.47511e-14 1.01175 0
-1.2609e-14 1.01175 0
-9.22384e-15 1.01175 0
1.07963e-14 1.01279 0
9.3879e-15 1.01279 0
-9.22384e-15 1.01175 0
-7.56505e-15 1.01175 0
9.3879e-15 1.01279 0
8.77485e-15 1.01279 0
-1.15171e-14 1.00875 0
-1.34418e-14 1.00875 0
1.47567e-14 1.00974 0
1.32411e-14 1.00974 0
-1.34418e-14 1.00875 0
-4.84659e-15 1.00875 0
1.32411e-14 1.00974 0
1.25024e-14 1.00974 0
-1.19298e-14 1.00974 0
-6.26032e-15 1.00974 0
1.89656e-14 1.01073 0
1.34602e-14 1.01073 0
-6.26032e-15 1.00974 0
-1.1452e-15 1.00974 0
1.34602e-14 1.01073 0
5.87209e-15 1.01073 0
-4.84659e-15 1.00875 0
-3.8627e-15 1.00875 0
1.25024e-14 1.00974 0
1.3396e-14 1.00974 0
-3.8627e-15 1.00875 0
-2.13307e-15 1.00875 0
1.3396e-14 1.00974 0
8.38419e-15 1.00974 0
-1.1452e-15 1.00974 0
-1.08779e-14 1.00974 0
5.87209e-15 1.01073 0
1.14975e-14 1.01073 0
-1.08779e-14 1.00974 0
-1.0127e-14 1.00974 0
1.14975e-14 1.01073 0
1.29585e-14 1.01073 0
-1.79806e-14 1.01073 0
-1.28508e-14 1.01073 0
1.47511e-14 1.01175 0
1.16009e-14 1.01175 0
-1.28508e-14 1.01073 0
-8.14031e-15 1.01073 0
1.16009e-14 1.01175 0
8.35373e-15 1.01175 0
-7.56505e-15 1.01175 0
-9.80785e-15 1.01175 0
8.77485e-15 1.01279 0
8.86481e-15 1.01279 0
-9.80785e-15 1.01175 0
-1.58555e-14 1.01175 0
8.86481e-15 1.01279 0
1.66622e-14 1.01279 0
-8.14031e-15 1.01073 0
-1.29464e-14 1.01073 0
8.35373e-15 1.01175 0
1.16454e-14 1.01175 0
-1.29464e-14 1.01073 0
-1.67585e-14 1.01073 0
1.16454e-14 1.01175 0
1.63762e-14 1.01175 0
-1.58555e-14 1.01175 0
-7.12305e-15 1.01175 0
1.66622e-14 1.01279 0
5.2181e-15 1.01279 0
-7.12305e-15 1.01175 0
-9.13316e-15 1.01175 0
5.2181e-15 1.01279 0
9.24595e-15 1.01279 0
-1.0063e-14 1.01279 0
-1.18289e-14 1.01279 0
9.26181e-15 1.01385 0
1.32458e-14 1.01385 0
-1.18289e-14 1.01279 0
-1.16225e-14 1.01279 0
1.32458e-14 1.01385 0
1.06168e-14 1.01385 0
-6.38982e-15 1.01385 0
-9.62424e-15 1.01385 0
7.77379e-15 1.0149 0
9.17922e-15 1.0149 0
-9.62424e-15 1.01385 0
-6.84122e-15 1.01385 0
9.17922e-15 1.0149 0
5.93785e-15 1.0149 0
-1.16225e-14 1.01279 0
-5.70056e-15 1.01279 0
1.06168e-14 1.01385 0
5.17501e-15 1.01385 0
-5.70056e-15 1.01279 0