# vtk DataFile Version 3.0
#This file was generated by the deal.II library on 2018/10/12 at 0:36:47
ASCII
DATASET UNSTRUCTURED_GRID

POINTS 5120 double
0 0 0
0.392699 0 0
0 0.608051 0
0.392699 0.608051 0
0.392699 0 0
0.785398 0 0
0.392699 0.608051 0
0.785398 0.608051 0
0 0.608051 0
0.392699 0.608051 0
0 1.23432 0
0.392699 1.23432 0
0.392699 0.608051 0
0.785398 0.608051 0
0.392699 1.23432 0
0.785398 1.23432 0
0.785398 0 0
1.1781 0 0
0.785398 0.608051 0
1.1781 0.608051 0
1.1781 0 0
1.5708 0 0
1.1781 0.608051 0
1.5708 0.608051 0
0.785398 0.608051 0
1.1781 0.608051 0
0.785398 1.23432 0
1.1781 1.23432 0
1.1781 0.608051 0
1.5708 0.608051 0
1.1781 1.23432 0
1.5708 1.23432 0
0 1.23432 0
0.392699 1.23432 0
0 1.85991 0
0.392699 1.85991 0
0.392699 1.23432 0
0.785398 1.23432 0
0.392699 1.85991 0
0.785398 1.85991 0
0 1.85991 0
0.392699 1.85991 0
0 2.4861 0
0.392699 2.4861 0
0.392699 1.85991 0
0.785398 1.85991 0
0.392699 2.4861 0
0.785398 2.4861 0
0.785398 1.23432 0
1.1781 1.23432 0
0.785398 1.85991 0
1.1781 1.85991 0
1.1781 1.23432 0
1.5708 1.23432 0
1.1781 1.85991 0
1.5708 1.85991 0
0.785398 1.85991 0
1.1781 1.85991 0
0.785398 2.4861 0
1.1781 2.4861 0
1.1781 1.85991 0
1.5708 1.85991 0
1.1781 2.4861 0
1.5708 2.4861 0
1.5708 0 0
1.9635 0 0
1.5708 0.608051 0
1.9635 0.608051 0
1.9635 0 0
2.35619 0 0
1.9635 0.608051 0
2.35619 0.608051 0
1.5708 0.608051 0
1.9635 0.608051 0
1.5708 1.23432 0
1.9635 1.23432 0
1.9635 0.608051 0
2.35619 0.608051 0
1.9635 1.23432 0
2.35619 1.23432 0
2.35619 0 0
2.74889 0 0
2.35619 0.608051 0
2.74889 0.608051 0
2.74889 0 0
3.14159 0 0
2.74889 0.608051 0
3.14159 0.608051 0
2.35619 0.608051 0
2.74889 0.608051 0
2.35619 1.23432 0
2.74889 1.23432 0
2.74889 0.608051 0
3.14159 0.608051 0
2.74889 1.23432 0
3.14159 1.23432 0
1.5708 1.23432 0
1.9635 1.23432 0
1.5708 1.85991 0
1.9635 1.85991 0
1.9635 1.23432 0
2.35619 1.23432 0
1.9635 1.85991 0
2.35619 1.85991 0
1.5708 1.85991 0
1.9635 1.85991 0
1.5708 2.4861 0
1.9635 2.4861 0
1.9635 1.85991 0
2.35619 1.85991 0
1.9635 2.4861 0
2.35619 2.4861 0
2.35619 1.23432 0
2.74889 1.23432 0
2.35619 1.85991 0
2.74889 1.85991 0
2.74889 1.23432 0
3.14159 1.23432 0
2.74889 1.85991 0
3.14159 1.85991 0
2.35619 1.85991 0
2.74889 1.85991 0
2.35619 2.4861 0
2.74889 2.4861 0
2.74889 1.85991 0
3.14159 1.85991 0
2.74889 2.4861 0
3.14159 2.4861 0
0 2.4861 0
0.392699 2.4861 0
0 3.11212 0
0.392699 3.11212 0
0.392699 2.4861 0
0.785398 2.4861 0
0.392699 3.11212 0
0.785398 3.11212 0
0 3.11212 0
0.392699 3.11212 0
0 3.73815 0
0.392699 3.73815 0
0.392699 3.11212 0
0.785398 3.11212 0
0.392699 3.73815 0
0.785398 3.73815 0
0.785398 2.4861 0
1.1781 2.4861 0
0.785398 3.11212 0
1.1781 3.11212 0
1.1781 2.4861 0
1.5708 2.4861 0
1.1781 3.11212 0
1.5708 3.11212 0
0.785398 3.11212 0
1.1781 3.11212 0
0.785398 3.73815 0
1.1781 3.73815 0
1.1781 3.11212 0
1.5708 3.11212 0
1.1781 3.73815 0
1.5708 3.73815 0
0 3.73815 0
0.392699 3.73815 0
0 4.36413 0
0.392699 4.36413 0
0.392699 3.73815 0
0.785398 3.73815 0
0.392699 4.36413 0
0.785398 4.36413 0
0 4.36413 0
0.392699 4.36413 0
0 4.99006 0
0.392699 4.99006 0
0.392699 4.36413 0
0.785398 4.36413 0
0.392699 4.99006 0
0.785398 4.99006 0
0.785398 3.73815 0
1.1781 3.73815 0
0.785398 4.36413 0
1.1781 4.36413 0
1.1781 3.73815 0
1.5708 3.73815 0
1.1781 4.36413 0
1.5708 4.36413 0
0.785398 4.36413 0
1.1781 4.36413 0
0.785398 4.99006 0
1.1781 4.99006 0
1.1781 4.36413 0
1.5708 4.36413 0
1.1781 4.99006 0
1.5708 4.99006 0
1.5708 2.4861 0
1.9635 2.4861 0
1.5708 3.11212 0
1.9635 3.11212 0
1.9635 2.4861 0
2.35619 2.4861 0
1.9635 3.11212 0
2.35619 3.11212 0
1.5708 3.11212 0
1.9635 3.11212 0
1.5708 3.73815 0
1.9635 3.73815 0
1.9635 3.11212 0
2.35619 3.11212 0
1.9635 3.73815 0
2.35619 3.73815 0
2.35619 2.4861 0
2.74889 2.4861 0
2.35619 3.11212 0
2.74889 3.11212 0
2.74889 2.4861 0
3.14159 2.4861 0
2.74889 3.11212 0
3.14159 3.11212 0
2.35619 3.11212 0
2.74889 3.11212 0
2.35619 3.73815 0
2.74889 3.73815 0
2.74889 3.11212 0
3.14159 3.11212 0
2.74889 3.73815 0
3.14159 3.73815 0
1.5708 3.73815 0
1.9635 3.73815 0
1.5708 4.36413 0
1.9635 4.36413 0
1.9635 3.73815 0
2.35619 3.73815 0
1.9635 4.36413 0
2.35619 4.36413 0
1.5708 4.36413 0
1.9635 4.36413 0
1.5708 4.99006 0
1.9635 4.99006 0
1.9635 4.36413 0
2.35619 4.36413 0
1.9635 4.99006 0
2.35619 4.99006 0
2.35619 3.73815 0
2.74889 3.73815 0
2.35619 4.36413 0
2.74889 4.36413 0
2.74889 3.73815 0
3.14159 3.73815 0
2.74889 4.36413 0
3.14159 4.36413 0
2.35619 4.36413 0
2.74889 4.36413 0
2.35619 4.99006 0
2.74889 4.99006 0
2.74889 4.36413 0
3.14159 4.36413 0
2.74889 4.99006 0
3.14159 4.99006 0
3.14159 0 0
3.53429 0 0
3.14159 0.608051 0
3.53429 0.608051 0
3.53429 0 0
3.92699 0 0
3.53429 0.608051 0
3.92699 0.608051 0
3.14159 0.608051 0
3.53429 0.608051 0
3.14159 1.23432 0
3.53429 1.23432 0
3.53429 0.608051 0
3.92699 0.608051 0
3.53429 1.23432 0
3.92699 1.23432 0
3.92699 0 0
4.31969 0 0
3.92699 0.608051 0
4.31969 0.608051 0
4.31969 0 0
4.71239 0 0
4.31969 0.608051 0
4.71239 0.608051 0
3.92699 0.608051 0
4.31969 0.608051 0
3.92699 1.23432 0
4.31969 1.23432 0
4.31969 0.608051 0
4.71239 0.608051 0
4.31969 1.23432 0
4.71239 1.23432 0
3.14159 1.23432 0
3.53429 1.23432 0
3.14159 1.85991 0
3.53429 1.85991 0
3.53429 1.23432 0
3.92699 1.23432 0
3.53429 1.85991 0
3.92699 1.85991 0
3.14159 1.85991 0
3.53429 1.85991 0
3.14159 2.4861 0
3.53429 2.4861 0
3.53429 1.85991 0
3.92699 1.85991 0
3.53429 2.4861 0
3.92699 2.4861 0
3.92699 1.23432 0
4.31969 1.23432 0
3.92699 1.85991 0
4.31969 1.85991 0
4.31969 1.23432 0
4.71239 1.23432 0
4.31969 1.85991 0
4.71239 1.85991 0
3.92699 1.85991 0
4.31969 1.85991 0
3.92699 2.4861 0
4.31969 2.4861 0
4.31969 1.85991 0
4.71239 1.85991 0
4.31969 2.4861 0
4.71239 2.4861 0
4.71239 0 0
5.10509 0 0
4.71239 0.608051 0
5.10509 0.608051 0
5.10509 0 0
5.49779 0 0
5.10509 0.608051 0
5.49779 0.608051 0
4.71239 0.608051 0
5.10509 0.608051 0
4.71239 1.23432 0
5.10509 1.23432 0
5.10509 0.608051 0
5.49779 0.608051 0
5.10509 1.23432 0
5.49779 1.23432 0
5.49779 0 0
5.89049 0 0
5.49779 0.608051 0
5.89049 0.608051 0
5.89049 0 0
6.28319 0 0
5.89049 0.608051 0
6.28319 0.608051 0
5.49779 0.608051 0
5.89049 0.608051 0
5.49779 1.23432 0
5.89049 1.23432 0
5.89049 0.608051 0
6.28319 0.608051 0
5.89049 1.23432 0
6.28319 1.23432 0
4.71239 1.23432 0
5.10509 1.23432 0
4.71239 1.85991 0
5.10509 1.85991 0
5.10509 1.23432 0
5.49779 1.23432 0
5.10509 1.85991 0
5.49779 1.85991 0
4.71239 1.85991 0
5.10509 1.85991 0
4.71239 2.4861 0
5.10509 2.4861 0
5.10509 1.85991 0
5.49779 1.85991 0
5.10509 2.4861 0
5.49779 2.4861 0
5.49779 1.23432 0
5.89049 1.23432 0
5.49779 1.85991 0
5.89049 1.85991 0
5.89049 1.23432 0
6.28319 1.23432 0
5.89049 1.85991 0
6.28319 1.85991 0
5.49779 1.85991 0
5.89049 1.85991 0
5.49779 2.4861 0
5.89049 2.4861 0
5.89049 1.85991 0
6.28319 1.85991 0
5.89049 2.4861 0
6.28319 2.4861 0
3.14159 2.4861 0
3.53429 2.4861 0
3.14159 3.11212 0
3.53429 3.11212 0
3.53429 2.4861 0
3.92699 2.4861 0
3.53429 3.11212 0
3.92699 3.11212 0
3.14159 3.11212 0
3.53429 3.11212 0
3.14159 3.73815 0
3.53429 3.73815 0
3.53429 3.11212 0
3.92699 3.11212 0
3.53429 3.73815 0
3.92699 3.73815 0
3.92699 2.4861 0
4.31969 2.4861 0
3.92699 3.11212 0
4.31969 3.11212 0
4.31969 2.4861 0
4.71239 2.4861 0
4.31969 3.11212 0
4.71239 3.11212 0
3.92699 3.11212 0
4.31969 3.11212 0
3.92699 3.73815 0
4.31969 3.73815 0
4.31969 3.11212 0
4.71239 3.11212 0
4.31969 3.73815 0
4.71239 3.73815 0
3.14159 3.73815 0
3.53429 3.73815 0
3.14159 4.36413 0
3.53429 4.36413 0
3.53429 3.73815 0
3.92699 3.73815 0
3.53429 4.36413 0
3.92699 4.36413 0
3.14159 4.36413 0
3.53429 4.36413 0
3.14159 4.99006 0
3.53429 4.99006 0
3.53429 4.36413 0
3.92699 4.36413 0
3.53429 4.99006 0
3.92699 4.99006 0
3.92699 3.73815 0
4.31969 3.73815 0
3.92699 4.36413 0
4.31969 4.36413 0
4.31969 3.73815 0
4.71239 3.73815 0
4.31969 4.36413 0
4.71239 4.36413 0
3.92699 4.36413 0
4.31969 4.36413 0
3.92699 4.99006 0
4.31969 4.99006 0
4.31969 4.36413 0
4.71239 4.36413 0
4.31969 4.99006 0
4.71239 4.99006 0
4.71239 2.4861 0
5.10509 2.4861 0
4.71239 3.11212 0
5.10509 3.11212 0
5.10509 2.4861 0
5.49779 2.4861 0
5.10509 3.11212 0
5.49779 3.11212 0
4.71239 3.11212 0
5.10509 3.11212 0
4.71239 3.73815 0
5.10509 3.73815 0
5.10509 3.11212 0
5.49779 3.11212 0
5.10509 3.73815 0
5.49779 3.73815 0
5.49779 2.4861 0
5.89049 2.4861 0
5.49779 3.11212 0
5.89049 3.11212 0
5.89049 2.4861 0
6.28319 2.4861 0
5.89049 3.11212 0
6.28319 3.11212 0
5.49779 3.11212 0
5.89049 3.11212 0
5.49779 3.73815 0
5.89049 3.73815 0
5.89049 3.11212 0
6.28319 3.11212 0
5.89049 3.73815 0
6.28319 3.73815 0
4.71239 3.73815 0
5.10509 3.73815 0
4.71239 4.36413 0
5.10509 4.36413 0
5.10509 3.73815 0
5.49779 3.73815 0
5.10509 4.36413 0
5.49779 4.36413 0
4.71239 4.36413 0
5.10509 4.36413 0
4.71239 4.99006 0
5.10509 4.99006 0
5.10509 4.36413 0
5.49779 4.36413 0
5.10509 4.99006 0
5.49779 4.99006 0
5.49779 3.73815 0
5.89049 3.73815 0
5.49779 4.36413 0
5.89049 4.36413 0
5.89049 3.73815 0
6.28319 3.73815 0
5.89049 4.36413 0
6.28319 4.36413 0
5.49779 4.36413 0
5.89049 4.36413 0
5.49779 4.99006 0
5.89049 4.99006 0
5.89049 4.36413 0
6.28319 4.36413 0
5.89049 4.99006 0
6.28319 4.99006 0
0 4.99006 0
0.392699 4.99006 0
0 5.61594 0
0.392699 5.61594 0
0.392699 4.99006 0
0.785398 4.99006 0
0.392699 5.61594 0
0.785398 5.61594 0
0 5.61594 0
0.392699 5.61594 0
0 6.24177 0
0.392699 6.24177 0
0.392699 5.61594 0
0.785398 5.61594 0
0.392699 6.24177 0
0.785398 6.24177 0
0.785398 4.99006 0
1.1781 4.99006 0
0.785398 5.61594 0
1.1781 5.61594 0
1.1781 4.99006 0
1.5708 4.99006 0
1.1781 5.61594 0
1.5708 5.61594 0
0.785398 5.61594 0
1.1781 5.61594 0
0.785398 6.24177 0
1.1781 6.24177 0
1.1781 5.61594 0
1.5708 5.61594 0
1.1781 6.24177 0
1.5708 6.24177 0
0 6.24177 0
0.392699 6.24177 0
0 6.86756 0
0.392699 6.86756 0
0.392699 6.24177 0
0.785398 6.24177 0
0.392699 6.86756 0
0.785398 6.86756 0
0 6.86756 0
0.392699 6.86756 0
0 7.49335 0
0.392699 7.49335 0
0.392699 6.86756 0
0.785398 6.86756 0
0.392699 7.49335 0
0.785398 7.49335 0
0.785398 6.24177 0
1.1781 6.24177 0
0.785398 6.86756 0
1.1781 6.86756 0
1.1781 6.24177 0
1.5708 6.24177 0
[...]
POINT_DATA 5120
VECTORS uf double
0 1 0
-5.32e-14 1 0
0 1.00233 0
-6.13175e-14 1.00233 0
-5.32e-14 1 0
-7.97709e-15 1 0
-6.13175e-14 1.00233 0
-6.36839e-15 1.00233 0
0 1.00233 0
1.57771e-14 1.00233 0
0 1.00352 0
1.66799e-14 1.00352 0
1.57771e-14 1.00233 0
2.00357e-14 1.00233 0
1.66799e-14 1.00352 0
1.64826e-14 1.00352 0
-7.97709e-15 1 0
1.02042e-13 1 0
-6.36839e-15 1.00233 0
1.1431e-13 1.00233 0
1.02042e-13 1 0
3.06344e-14 1 0
1.1431e-13 1.00233 0
4.10014e-14 1.00233 0
2.00357e-14 1.00233 0
-1.16694e-13 1.00233 0
1.64826e-14 1.00352 0
-9.33515e-14 1.00352 0
-1.16694e-13 1.00233 0
-3.69191e-14 1.00233 0
-9.33515e-14 1.00352 0
-3.16857e-14 1.00352 0
0 1.00352 0
1.81892e-14 1.00352 0
0 1.00497 0
1.68216e-14 1.00497 0
1.81892e-14 1.00352 0
-2.16399e-14 1.00352 0
1.68216e-14 1.00497 0
-2.0514e-14 1.00497 0
0 1.00497 0
2.68961e-14 1.00497 0
0 1.00632 0
4.20056e-14 1.00632 0
2.68961e-14 1.00497 0
7.03898e-14 1.00497 0
4.20056e-14 1.00632 0
6.86948e-14 1.00632 0
-2.16399e-14 1.00352 0
-6.70595e-15 1.00352 0
-2.0514e-14 1.00497 0
5.90023e-15 1.00497 0
-6.70595e-15 1.00352 0
-5.96921e-15 1.00352 0
5.90023e-15 1.00497 0
1.23767e-14 1.00497 0
7.03898e-14 1.00497 0
-1.25774e-15 1.00497 0
6.86948e-14 1.00632 0
1.07551e-14 1.00632 0
-1.25774e-15 1.00497 0
-3.00527e-14 1.00497 0
1.07551e-14 1.00632 0
-1.53215e-14 1.00632 0
3.06344e-14 1 0
-2.20714e-14 1 0
4.10014e-14 1.00233 0
-5.0919e-15 1.00233 0
-2.20714e-14 1 0
-1.00962e-14 1 0
-5.0919e-15 1.00233 0
6.90784e-15 1.00233 0
-3.69191e-14 1.00233 0
1.28375e-14 1.00233 0
-3.16857e-14 1.00352 0
1.6016e-14 1.00352 0
1.28375e-14 1.00233 0
-6.58468e-15 1.00233 0
1.6016e-14 1.00352 0
1.02393e-14 1.00352 0
-1.00962e-14 1 0
-2.41263e-15 1 0
6.90784e-15 1.00233 0
3.84318e-15 1.00233 0
-2.41263e-15 1 0
-4.57864e-15 1 0
3.84318e-15 1.00233 0
4.75113e-15 1.00233 0
-6.58468e-15 1.00233 0
-6.62603e-15 1.00233 0
1.02393e-14 1.00352 0
1.16199e-14 1.00352 0
-6.62603e-15 1.00233 0
-7.4543e-16 1.00233 0
1.16199e-14 1.00352 0
8.71611e-15 1.00352 0
-5.96921e-15 1.00352 0
2.2621e-14 1.00352 0
1.23767e-14 1.00497 0
3.16142e-14 1.00497 0
2.2621e-14 1.00352 0
3.77985e-15 1.00352 0
3.16142e-14 1.00497 0
1.37672e-15 1.00497 0
-3.00527e-14 1.00497 0
-1.0594e-14 1.00497 0
-1.53215e-14 1.00632 0
-2.40462e-15 1.00632 0
-1.0594e-14 1.00497 0
-4.86003e-15 1.00497 0
-2.40462e-15 1.00632 0
8.14539e-15 1.00632 0
3.77985e-15 1.00352 0
-6.05436e-15 1.00352 0
1.37672e-15 1.00497 0
1.14543e-14 1.00497 0
-6.05436e-15 1.00352 0
-1.21144e-15 1.00352 0
1.14543e-14 1.00497 0
1.07774e-14 1.00497 0
-4.86003e-15 1.00497 0
-7.93832e-15 1.00497 0
8.14539e-15 1.00632 0
4.81953e-15 1.00632 0
-7.93832e-15 1.00497 0
-1.11092e-14 1.00497 0
4.81953e-15 1.00632 0
8.21582e-15 1.00632 0
0 1.00632 0
-4.22886e-14 1.00632 0
0 1.00766 0
-2.60672e-14 1.00766 0
-4.22886e-14 1.00632 0
-7.53647e-14 1.00632 0
-2.60672e-14 1.00766 0
-6.59635e-14 1.00766 0
0 1.00766 0
1.59633e-14 1.00766 0
0 1.00898 0
2.16616e-14 1.00898 0
1.59633e-14 1.00766 0
8.5508e-14 1.00766 0
2.16616e-14 1.00898 0
8.66047e-14 1.00898 0
-7.53647e-14 1.00632 0
-1.52634e-14 1.00632 0
-6.59635e-14 1.00766 0
7.67723e-15 1.00766 0
-1.52634e-14 1.00632 0
5.26191e-14 1.00632 0
7.67723e-15 1.00766 0
4.92023e-14 1.00766 0
8.5508e-14 1.00766 0
8.53843e-15 1.00766 0
8.66047e-14 1.00898 0
1.43326e-14 1.00898 0
8.53843e-15 1.00766 0
-6.28752e-14 1.00766 0
1.43326e-14 1.00898 0
-5.09382e-14 1.00898 0
0 1.00898 0
1.70231e-14 1.00898 0
0 1.01027 0
1.8437e-14 1.01027 0
1.70231e-14 1.00898 0
-1.51571e-13 1.00898 0
1.8437e-14 1.01027 0
-1.47629e-13 1.01027 0
0 1.01027 0
-1.27937e-14 1.01027 0
0 1.01155 0
-8.67324e-15 1.01155 0
-1.27937e-14 1.01027 0
1.25639e-13 1.01027 0
-8.67324e-15 1.01155 0
1.26204e-13 1.01155 0
-1.51571e-13 1.00898 0
-8.80703e-15 1.00898 0
-1.47629e-13 1.01027 0
-5.09639e-15 1.01027 0
-8.80703e-15 1.00898 0
9.44645e-14 1.00898 0
-5.09639e-15 1.01027 0
9.74473e-14 1.01027 0
1.25639e-13 1.01027 0
6.58295e-15 1.01027 0
1.26204e-13 1.01155 0
1.07554e-14 1.01155 0
6.58295e-15 1.01027 0
-1.28106e-13 1.01027 0
1.07554e-14 1.01155 0
-1.19412e-13 1.01155 0
5.26191e-14 1.00632 0
-2.12458e-14 1.00632 0
4.92023e-14 1.00766 0
-1.11938e-14 1.00766 0
-2.12458e-14 1.00632 0
-1.07114e-14 1.00632 0
-1.11938e-14 1.00766 0
4.36281e-15 1.00766 0
-6.28752e-14 1.00766 0
5.54365e-15 1.00766 0
-5.09382e-14 1.00898 0
8.50011e-15 1.00898 0
5.54365e-15 1.00766 0
-1.93102e-15 1.00766 0
8.50011e-15 1.00898 0
2.77312e-15 1.00898 0
-1.07114e-14 1.00632 0
-5.12026e-15 1.00632 0
4.36281e-15 1.00766 0
4.67484e-15 1.00766 0
-5.12026e-15 1.00632 0
-1.18201e-14 1.00632 0
4.67484e-15 1.00766 0
1.31944e-14 1.00766 0
-1.93102e-15 1.00766 0
-2.55381e-15 1.00766 0
2.77312e-15 1.00898 0
4.24615e-15 1.00898 0
-2.55381e-15 1.00766 0
-1.70114e-15 1.00766 0
4.24615e-15 1.00898 0
7.50239e-15 1.00898 0
9.44645e-14 1.00898 0
-8.53155e-15 1.00898 0
9.74473e-14 1.01027 0
-9.46539e-15 1.01027 0
-8.53155e-15 1.00898 0
5.60974e-16 1.00898 0
-9.46539e-15 1.01027 0
2.71276e-15 1.01027 0
-1.28106e-13 1.01027 0
-1.11273e-14 1.01027 0
-1.19412e-13 1.01155 0
-1.36286e-14 1.01155 0
-1.11273e-14 1.01027 0
-2.11362e-15 1.01027 0
-1.36286e-14 1.01155 0
6.41631e-15 1.01155 0
5.60974e-16 1.00898 0
4.13409e-15 1.00898 0
2.71276e-15 1.01027 0
2.94615e-15 1.01027 0
4.13409e-15 1.00898 0
-7.34567e-16 1.00898 0
2.94615e-15 1.01027 0
4.46575e-15 1.01027 0
-2.11362e-15 1.01027 0
-6.18264e-15 1.01027 0
6.41631e-15 1.01155 0
3.79448e-15 1.01155 0
-6.18264e-15 1.01027 0
-7.12135e-15 1.01027 0
3.79448e-15 1.01155 0
5.01944e-15 1.01155 0
-4.57864e-15 1 0
-9.57297e-15 1 0
4.75113e-15 1.00233 0
1.78935e-14 1.00233 0
-9.57297e-15 1 0
-1.08632e-15 1 0
1.78935e-14 1.00233 0
1.15841e-14 1.00233 0
-7.4543e-16 1.00233 0
-1.00842e-15 1.00233 0
8.71611e-15 1.00352 0
2.1625e-15 1.00352 0
-1.00842e-15 1.00233 0
-6.31818e-15 1.00233 0
2.1625e-15 1.00352 0
3.28785e-15 1.00352 0
-1.08632e-15 1 0
-1.22276e-15 1 0
1.15841e-14 1.00233 0
1.40231e-14 1.00233 0
-1.22276e-15 1 0
-6.38412e-15 1 0
1.40231e-14 1.00233 0
1.62285e-14 1.00233 0
-6.31818e-15 1.00233 0
-1.41831e-14 1.00233 0
3.28785e-15 1.00352 0
1.39739e-14 1.00352 0
-1.41831e-14 1.00233 0
-3.42093e-16 1.00233 0
1.39739e-14 1.00352 0
-2.27366e-15 1.00352 0
-1.21144e-15 1.00352 0
1.06808e-15 1.00352 0
1.07774e-14 1.00497 0
7.93861e-15 1.00497 0
1.06808e-15 1.00352 0
3.42172e-15 1.00352 0
7.93861e-15 1.00497 0
8.83994e-15 1.00497 0
-1.11092e-14 1.00497 0
-5.5573e-16 1.00497 0
8.21582e-15 1.00632 0
1.04202e-14 1.00632 0
-5.5573e-16 1.00497 0
-3.17227e-15 1.00497 0
1.04202e-14 1.00632 0
8.66081e-15 1.00632 0
3.42172e-15 1.00352 0
6.36941e-15 1.00352 0
8.83994e-15 1.00497 0
6.66562e-15 1.00497 0
6.36941e-15 1.00352 0
3.43591e-15 1.00352 0
6.66562e-15 1.00497 0
1.26373e-14 1.00497 0
-3.17227e-15 1.00497 0
-1.10376e-14 1.00497 0
8.66081e-15 1.00632 0
5.66146e-15 1.00632 0
-1.10376e-14 1.00497 0
-6.75629e-15 1.00497 0
5.66146e-15 1.00632 0
1.33383e-14 1.00632 0
-6.38412e-15 1 0
-1.90952e-15 1 0
1.62285e-14 1.00233 0
1.55362e-14 1.00233 0
-1.90952e-15 1 0
-1.45645e-15 1 0
1.55362e-14 1.00233 0
1.7642e-14 1.00233 0
-3.42093e-16 1.00233 0
3.13659e-15 1.00233 0
-2.27366e-15 1.00352 0
-3.62306e-15 1.00352 0
3.13659e-15 1.00233 0
-1.18045e-14 1.00233 0
-3.62306e-15 1.00352 0
2.08586e-14 1.00352 0
-1.45645e-15 1 0
1.61915e-15 1 0
1.7642e-14 1.00233 0
1.25677e-14 1.00233 0
1.61915e-15 1 0
2.8002e-15 1 0
1.25677e-14 1.00233 0
1.06377e-14 1.00233 0
-1.18045e-14 1.00233 0
-3.20254e-15 1.00233 0
2.08586e-14 1.00352 0
7.28859e-15 1.00352 0
-3.20254e-15 1.00233 0
-3.21653e-15 1.00233 0
7.28859e-15 1.00352 0
5.56293e-15 1.00352 0
3.43591e-15 1.00352 0
-4.35421e-15 1.00352 0
1.26373e-14 1.00497 0
9.19165e-15 1.00497 0
-4.35421e-15 1.00352 0
-1.38068e-15 1.00352 0
9.19165e-15 1.00497 0
2.67029e-15 1.00497 0
-6.75629e-15 1.00497 0
5.80561e-16 1.00497 0
1.33383e-14 1.00632 0
5.50845e-15 1.00632 0
5.80561e-16 1.00497 0
-4.79605e-15 1.00497 0
5.50845e-15 1.00632 0
3.86289e-15 1.00632 0
-1.38068e-15 1.00352 0
-5.08081e-15 1.00352 0
2.67029e-15 1.00497 0
1.32407e-14 1.00497 0
-5.08081e-15 1.00352 0
-3.42406e-15 1.00352 0
1.32407e-14 1.00497 0
9.90686e-15 1.00497 0
-4.79605e-15 1.00497 0
-1.40947e-15 1.00497 0
3.86289e-15 1.00632 0
9.40122e-15 1.00632 0
-1.40947e-15 1.00497 0
-5.76753e-15 1.00497 0
9.40122e-15 1.00632 0
1.23767e-14 1.00632 0
-1.18201e-14 1.00632 0
-7.1449e-15 1.00632 0
1.31944e-14 1.00766 0
4.42912e-15 1.00766 0
-7.1449e-15 1.00632 0
-7.58429e-15 1.00632 0
4.42912e-15 1.00766 0
6.90377e-15 1.00766 0
-1.70114e-15 1.00766 0
-6.83977e-15 1.00766 0
7.50239e-15 1.00898 0
2.71809e-15 1.00898 0
-6.83977e-15 1.00766 0
5.49734e-16 1.00766 0
2.71809e-15 1.00898 0
9.00581e-16 1.00898 0
-7.58429e-15 1.00632 0
3.38638e-15 1.00632 0
6.90377e-15 1.00766 0
3.28512e-15 1.00766 0
3.38638e-15 1.00632 0
-1.24356e-14 1.00632 0
3.28512e-15 1.00766 0
1.28582e-14 1.00766 0
5.49734e-16 1.00766 0
3.62356e-15 1.00766 0
9.00581e-16 1.00898 0
-1.83137e-15 1.00898 0
3.62356e-15 1.00766 0
-5.01228e-15 1.00766 0
-1.83137e-15 1.00898 0
5.06166e-15 1.00898 0
-7.34567e-16 1.00898 0
4.97529e-15 1.00898 0
4.46575e-15 1.01027 0
7.26761e-15 1.01027 0
4.97529e-15 1.00898 0
1.63956e-15 1.00898 0
7.26761e-15 1.01027 0
3.24224e-15 1.01027 0
-7.12135e-15 1.01027 0
-4.00011e-15 1.01027 0
5.01944e-15 1.01155 0
9.62006e-15 1.01155 0
-4.00011e-15 1.01027 0
2.53057e-15 1.01027 0
9.62006e-15 1.01155 0
6.49294e-15 1.01155 0
1.63956e-15 1.00898 0
-4.78449e-15 1.00898 0
3.24224e-15 1.01027 0
4.16823e-15 1.01027 0
-4.78449e-15 1.00898 0
-1.92127e-15 1.00898 0
4.16823e-15 1.01027 0
3.59534e-15 1.01027 0
2.53057e-15 1.01027 0
4.3733e-15 1.01027 0
6.49294e-15 1.01155 0
2.33578e-15 1.01155 0
4.3733e-15 1.01027 0
-2.12686e-15 1.01027 0
2.33578e-15 1.01155 0
6.29362e-15 1.01155 0
-1.24356e-14 1.00632 0
-8.19742e-16 1.00632 0
1.28582e-14 1.00766 0
1.44853e-15 1.00766 0
-8.19742e-16 1.00632 0
2.94041e-15 1.00632 0
1.44853e-15 1.00766 0
3.90839e-15 1.00766 0
-5.01228e-15 1.00766 0
-2.91529e-15 1.00766 0
5.06166e-15 1.00898 0
5.61577e-15 1.00898 0
-2.91529e-15 1.00766 0
1.29538e-15 1.00766 0
5.61577e-15 1.00898 0
-1.40142e-15 1.00898 0
2.94041e-15 1.00632 0
-1.86801e-15 1.00632 0
3.90839e-15 1.00766 0
7.26367e-15 1.00766 0
-1.86801e-15 1.00632 0
-2.43792e-16 1.00632 0
7.26367e-15 1.00766 0
4.66694e-15 1.00766 0
1.29538e-15 1.00766 0
-5.88133e-15 1.00766 0
-1.40142e-15 1.00898 0
9.9262e-15 1.00898 0
-5.88133e-15 1.00766 0
2.75422e-16 1.00766 0
9.9262e-15 1.00898 0
5.15322e-15 1.00898 0
-1.92127e-15 1.00898 0
5.15533e-16 1.00898 0
3.59534e-15 1.01027 0
1.12513e-15 1.01027 0
5.15533e-16 1.00898 0
-8.49099e-16 1.00898 0
1.12513e-15 1.01027 0
5.5514e-15 1.01027 0
-2.12686e-15 1.01027 0
8.41923e-16 1.01027 0
6.29362e-15 1.01155 0
3.66711e-15 1.01155 0
8.41923e-16 1.01027 0
-3.33432e-15 1.01027 0
3.66711e-15 1.01155 0
8.72801e-15 1.01155 0
-8.49099e-16 1.00898 0
-2.30721e-15 1.00898 0
5.5514e-15 1.01027 0
3.26632e-15 1.01027 0
-2.30721e-15 1.00898 0
-5.83178e-15 1.00898 0
3.26632e-15 1.01027 0
7.55723e-15 1.01027 0
-3.33432e-15 1.01027 0
-1.73271e-16 1.01027 0
8.72801e-15 1.01155 0
-9.86136e-16 1.01155 0
-1.73271e-16 1.01027 0
2.2081e-16 1.01027 0
-9.86136e-16 1.01155 0
4.36692e-16 1.01155 0
0 1.01155 0
-7.17039e-15 1.01155 0
0 1.01282 0
3.871e-17 1.01282 0
-7.17039e-15 1.01155 0
-8.37043e-14 1.01155 0
3.871e-17 1.01282 0
-7.7083e-14 1.01282 0
0 1.01282 0
1.25963e-14 1.01282 0
0 1.01409 0
7.97328e-15 1.01409 0
1.25963e-14 1.01282 0
5.7994e-14 1.01282 0
7.97328e-15 1.01409 0
5.89841e-14 1.01409 0
-8.37043e-14 1.01155 0
9.54335e-15 1.01155 0
-7.7083e-14 1.01282 0
6.21965e-15 1.01282 0
9.54335e-15 1.01155 0
8.26908e-14 1.01155 0
6.21965e-15 1.01282 0
7.86872e-14 1.01282 0
5.7994e-14 1.01282 0
-3.1959e-14 1.01282 0
5.89841e-14 1.01409 0
-2.06486e-14 1.01409 0
-3.1959e-14 1.01282 0
-1.79198e-14 1.01282 0
-2.06486e-14 1.01409 0
-1.69728e-14 1.01409 0
0 1.01409 0
-1.39908e-14 1.01409 0
0 1.01536 0
-1.73941e-14 1.01536 0
-1.39908e-14 1.01409 0
-3.6982e-14 1.01409 0
-1.73941e-14 1.01536 0
-3.1894e-14 1.01536 0
0 1.01536 0
-1.86565e-16 1.01536 0
0 1.01666 0
8.7734e-15 1.01666 0
-1.86565e-16 1.01536 0
1.74377e-14 1.01536 0
8.7734e-15 1.01666 0
1.91115e-14 1.01666 0
-3.6982e-14 1.01409 0
9.61893e-15 1.01409 0
-3.1894e-14 1.01536 0
1.14957e-14 1.01536 0
9.61893e-15 1.01409 0
3.8239e-15 1.01409 0
1.14957e-14 1.01536 0
9.75617e-15 1.01536 0
1.74377e-14 1.01536 0
-7.56593e-15 1.01536 0
1.91115e-14 1.01666 0
-1.53776e-15 1.01666 0
-7.56593e-15 1.01536 0
-8.56061e-15 1.01536 0
-1.53776e-15 1.01666 0
-1.12034e-15 1.01666 0
8.26908e-14 1.01155 0
-6.84632e-15 1.01155 0
7.86872e-14 1.01282 0
-3.54045e-15 1.01282 0
-6.84632e-15 1.01155 0
-7.28194e-15 1.01155 0
-3.54045e-15 1.01282 0
1.57909e-15 1.01282 0
-1.79198e-14 1.01282 0
1.9883e-14 1.01282 0
-1.69728e-14 1.01409 0
2.573e-14 1.01409 0
1.9883e-14 1.01282 0
-4.20059e-15 1.01282 0
2.573e-14 1.01409 0
3.53719e-15 1.01409 0
-7.28194e-15 1.01155 0
2.74348e-16 1.01155 0
1.57909e-15 1.01282 0
3.77944e-15 1.01282 0
2.74348e-16 1.01155 0
-6.13019e-16 1.01155 0
3.77944e-15 1.01282 0
7.54162e-15 1.01282 0
-4.20059e-15 1.01282 0
-8.17242e-15 1.01282 0
3.53719e-15 1.01409 0
5.87695e-15 1.01409 0
-8.17242e-15 1.01282 0
-7.45643e-15 1.01282 0
5.87695e-15 1.01409 0
6.20718e-15 1.01409 0
3.8239e-15 1.01409 0
-8.75463e-15 1.01409 0
9.75617e-15 1.01536 0
6.11336e-16 1.01536 0
-8.75463e-15 1.01409 0
4.65914e-16 1.01409 0
6.11336e-16 1.01536 0
2.30368e-15 1.01536 0
-8.56061e-15 1.01536 0
-6.03027e-15 1.01536 0
-1.12034e-15 1.01666 0
7.54915e-16 1.01666 0
-6.03027e-15 1.01536 0
-2.84987e-15 1.01536 0
7.54915e-16 1.01666 0
4.28673e-15 1.01666 0
4.65914e-16 1.01409 0
-9.53238e-17 1.01409 0
2.30368e-15 1.01536 0
6.16584e-15 1.01536 0
-9.53238e-17 1.01409 0
-4.63586e-15 1.01409 0
6.16584e-15 1.01536 0
5.92218e-15 1.01536 0
-2.84987e-15 1.01536 0
-7.34171e-15 1.01536 0
4.28673e-15 1.01666 0
7.48477e-15 1.01666 0
-7.34171e-15 1.01536 0
-6.27676e-15 1.01536 0
7.48477e-15 1.01666 0
7.4166e-15 1.01666 0
0 1.01666 0
1.03565e-14 1.01666 0
0 1.01796 0
7.24173e-15 1.01796 0
1.03565e-14 1.01666 0
-2.57145e-14 1.01666 0
7.24173e-15 1.01796 0
-2.7131e-14 1.01796 0
0 1.01796 0
-1.70348e-14 1.01796 0
0 1.01923 0
-1.17184e-14 1.01923 0
-1.70348e-14 1.01796 0
3.0373e-14 1.01796 0
-1.17184e-14 1.01923 0
2.89878e-14 1.01923 0
-2.57145e-14 1.01666 0
-3.93816e-15 1.01666 0
-2.7131e-14 1.01796 0
-2.70045e-15 1.01796 0
-3.93816e-15 1.01666 0
-1.18544e-14 1.01666 0
-2.70045e-15 1.01796 0
-7.55829e-15 1.01796 0
3.0373e-14 1.01796 0
3.6941e-15 1.01796 0
2.89878e-14 1.01923 0
9.31767e-15 1.01923 0
3.6941e-15 1.01796 0
1.60195e-15 1.01796 0
9.31767e-15 1.01923 0
2.72577e-15 1.01923 0
0 1.01923 0
1.18781e-14 1.01923 0
0 1.02034 0
1.07862e-14 1.02034 0
1.18781e-14 1.01923 0
-1.61997e-14 1.01923 0
1.07862e-14 1.02034 0
-1.36326e-14 1.02034 0
0 1.02034 0
2.75808e-16 1.02034 0
0 1.02079 0
-1.25683e-14 1.02079 0
2.75808e-16 1.02034 0
9.29089e-16 1.02034 0
-1.25683e-14 1.02079 0
1.55995e-14 1.02079 0
-1.61997e-14 1.01923 0
-6.30157e-16 1.01923 0
-1.36326e-14 1.02034 0
1.76141e-15 1.02034 0
-6.30157e-16 1.01923 0
2.0806e-15 1.01923 0
1.76141e-15 1.02034 0
3.03404e-15 1.02034 0
9.29089e-16 1.02034 0
-3.5336e-15 1.02034 0
1.55995e-14 1.02079 0
-8.98551e-15 1.02079 0
-3.5336e-15 1.02034 0
4.95851e-16 1.02034 0
-8.98551e-15 1.02079 0
7.99596e-15 1.02079 0
-1.18544e-14 1.01666 0
-3.45322e-15 1.01666 0
-7.55829e-15 1.01796 0
3.29996e-15 1.01796 0
-3.45322e-15 1.01666 0
-1.12633e-15 1.01666 0
3.29996e-15 1.01796 0
2.43595e-15 1.01796 0
1.60195e-15 1.01796 0
-5.90776e-15 1.01796 0
2.72577e-15 1.01923 0
-2.3231e-15 1.01923 0
-5.90776e-15 1.01796 0
-3.34622e-15 1.01796 0
-2.3231e-15 1.01923 0
1.80535e-15 1.01923 0
-1.12633e-15 1.01666 0
-2.87747e-15 1.01666 0
2.43595e-15 1.01796 0
1.8965e-15 1.01796 0
-2.87747e-15 1.01666 0
-7.88554e-16 1.01666 0
1.8965e-15 1.01796 0
1.80554e-15 1.01796 0
-3.34622e-15 1.01796 0
-4.66843e-15 1.01796 0
1.80535e-15 1.01923 0
2.01028e-15 1.01923 0
-4.66843e-15 1.01796 0
-2.63395e-15 1.01796 0
2.01028e-15 1.01923 0
2.17015e-15 1.01923 0
2.0806e-15 1.01923 0
-5.71069e-16 1.01923 0
3.03404e-15 1.02034 0
5.6309e-15 1.02034 0
-5.71069e-16 1.01923 0
-1.54027e-15 1.01923 0
5.6309e-15 1.02034 0
1.71331e-15 1.02034 0
4.95851e-16 1.02034 0
-2.51605e-15 1.02034 0
7.99596e-15 1.02079 0
1.35838e-15 1.02079 0
-2.51605e-15 1.02034 0
-1.19499e-15 1.02034 0
1.35838e-15 1.02079 0
8.10878e-16 1.02079 0
-1.54027e-15 1.01923 0
-2.66864e-15 1.01923 0
1.71331e-15 1.02034 0
5.69168e-16 1.02034 0
-2.66864e-15 1.01923 0
-2.56235e-15 1.01923 0
5.69168e-16 1.02034 0
4.05867e-15 1.02034 0
-1.19499e-15 1.02034 0
9.32516e-17 1.02034 0
8.10878e-16 1.02079 0
4.25982e-15 1.02079 0
9.32516e-17 1.02034 0
4.37763e-16 1.02034 0
4.25982e-15 1.02079 0
-9.02811e-15 1.02079 0
-6.13019e-16 1.01155 0
-3.45762e-15 1.01155 0
7.54162e-15 1.01282 0
4.21657e-15 1.01282 0
-3.45762e-15 1.01155 0
-6.07816e-15 1.01155 0
4.21657e-15 1.01282 0
-9.49571e-16 1.01282 0
-7.45643e-15 1.01282 0
-8.28471e-16 1.01282 0
6.20718e-15 1.01409 0
2.67023e-15 1.01409 0
-8.28471e-16 1.01282 0
2.59027e-15 1.01282 0
2.67023e-15 1.01409 0
1.76834e-15 1.01409 0
-6.07816e-15 1.01155 0
-4.79741e-15 1.01155 0
-9.49571e-16 1.01282 0
3.64198e-15 1.01282 0
-4.79741e-15 1.01155 0
-7.06649e-16 1.01155 0
3.64198e-15 1.01282 0
3.14864e-15 1.01282 0
2.59027e-15 1.01282 0
-5.86736e-15 1.01282 0
1.76834e-15 1.01409 0
6.7782e-15 1.01409 0
-5.86736e-15 1.01282 0
-1.16132e-15 1.01282 0
6.7782e-15 1.01409 0
4.65406e-16 1.01409 0
-4.63586e-15 1.01409 0
-9.43239e-16 1.01409 0
5.92218e-15 1.01536 0
3.72338e-15 1.01536 0
-9.43239e-16 1.01409 0
-1.0967e-15 1.01409 0
3.72338e-15 1.01536 0
1.45468e-15 1.01536 0
-6.27676e-15 1.01536 0
-4.90595e-15 1.01536 0
7.4166e-15 1.01666 0
4.73546e-15 1.01666 0
-4.90595e-15 1.01536 0
-8.27182e-16 1.01536 0
4.73546e-15 1.01666 0
-5.80534e-16 1.01666 0
-1.0967e-15 1.01409 0
-4.71507e-15 1.01409 0
1.45468e-15 1.01536 0
8.12929e-15 1.01536 0
-4.71507e-15 1.01409 0
1.57513e-17 1.01409 0
8.12929e-15 1.01536 0
8.34897e-16 1.01536 0
-8.27182e-16 1.01536 0
-3.62325e-15 1.01536 0
-5.80534e-16 1.01666 0
5.68883e-15 1.01666 0
-3.62325e-15 1.01536 0
-2.27363e-15 1.01536 0
5.68883e-15 1.01666 0
3.16668e-15 1.01666 0
-7.06649e-16 1.01155 0
-9.85823e-16 1.01155 0
3.14864e-15 1.01282 0
3.70512e-15 1.01282 0
-9.85823e-16 1.01155 0
-1.87425e-15 1.01155 0
3.70512e-15 1.01282 0
7.27316e-15 1.01282 0
-1.16132e-15 1.01282 0
-3.23453e-15 1.01282 0
4.65406e-16 1.01409 0
5.11408e-15 1.01409 0
-3.23453e-15 1.01282 0
-1.64542e-15 1.01282 0
5.11408e-15 1.01409 0
2.57902e-15 1.01409 0
-1.87425e-15 1.01155 0
-1.17118e-15 1.01155 0
7.27316e-15 1.01282 0
2.40129e-15 1.01282 0
-1.17118e-15 1.01155 0
4.75323e-16 1.01155 0
2.40129e-15 1.01282 0
3.50313e-15 1.01282 0
-1.64542e-15 1.01282 0
2.65472e-15 1.01282 0
2.57902e-15 1.01409 0
2.4679e-15 1.01409 0
2.65472e-15 1.01282 0
-5.72033e-15 1.01282 0
2.4679e-15 1.01409 0
6.14256e-15 1.01409 0
1.57513e-17 1.01409 0
-3.46498e-15 1.01409 0
8.34897e-16 1.01536 0
2.37211e-15 1.01536 0
-3.46498e-15 1.01409 0
1.64135e-15 1.01409 0
2.37211e-15 1.01536 0
1.06557e-16 1.01536 0
-2.27363e-15 1.01536 0
-9.35072e-17 1.01536 0
3.16668e-15 1.01666 0
1.61458e-15 1.01666 0
-9.35072e-17 1.01536 0
-6.20297e-15 1.01536 0
1.61458e-15 1.01666 0
6.19233e-15 1.01666 0
1.64135e-15 1.01409 0
-2.23649e-15 1.01409 0
1.06557e-16 1.01536 0
3.94645e-15 1.01536 0
-2.23649e-15 1.01409 0
-5.65389e-15 1.01409 0
3.94645e-15 1.01536 0
7.07302e-15 1.01536 0
-6.20297e-15 1.01536 0
-3.54248e-15 1.01536 0
6.19233e-15 1.01666 0
1.31061e-15 1.01666 0
-3.54248e-15 1.01536 0
2.64269e-15 1.01536 0
1.31061e-15 1.01666 0
8.30715e-16 1.01666 0
-7.88554e-16 1.01666 0
-5.54581e-15 1.01666 0
1.80554e-15 1.01796 0
4.57782e-15 1.01796 0
-5.54581e-15 1.01666 0
-3.70147e-15 1.01666 0
4.57782e-15 1.01796 0
5.76444e-16 1.01796 0
-2.63395e-15 1.01796 0
-9.60625e-16 1.01796 0
2.17015e-15 1.01923 0
7.76519e-16 1.01923 0
-9.60625e-16 1.01796 0
-2.56304e-15 1.01796 0
7.76519e-16 1.01923 0
3.21954e-15 1.01923 0
-3.70147e-15 1.01666 0
-5.02084e-15 1.01666 0
5.76444e-16 1.01796 0
1.52205e-15 1.01796 0