# vtk DataFile Version 3.0
#This file was generated by the deal.II library on 2018/10/12 at 2:06:19
ASCII
DATASET UNSTRUCTURED_GRID

POINTS 5120 double
0 0 0
0.392699 0 0
0 0.582872 0
0.392699 0.582872 0
0.392699 0 0
0.785398 0 0
0.392699 0.582872 0
0.785398 0.582872 0
0 0.582872 0
0.392699 0.582872 0
0 1.21071 0
0.392699 1.21071 0
0.392699 0.582872 0
0.785398 0.582872 0
0.392699 1.21071 0
0.785398 1.21071 0
0.785398 0 0
1.1781 0 0
0.785398 0.582872 0
1.1781 0.582872 0
1.1781 0 0
1.5708 0 0
1.1781 0.582872 0
1.5708 0.582872 0
0.785398 0.582872 0
1.1781 0.582872 0
0.785398 1.21071 0
1.1781 1.21071 0
1.1781 0.582872 0
1.5708 0.582872 0
1.1781 1.21071 0
1.5708 1.21071 0
0 1.21071 0
0.392699 1.21071 0
0 1.83727 0
0.392699 1.83727 0
0.392699 1.21071 0
0.785398 1.21071 0
0.392699 1.83727 0
0.785398 1.83727 0
0 1.83727 0
0.392699 1.83727 0
0 2.46547 0
0.392699 2.46547 0
0.392699 1.83727 0
0.785398 1.83727 0
0.392699 2.46547 0
0.785398 2.46547 0
0.785398 1.21071 0
1.1781 1.21071 0
0.785398 1.83727 0
1.1781 1.83727 0
1.1781 1.21071 0
1.5708 1.21071 0
1.1781 1.83727 0
1.5708 1.83727 0
0.785398 1.83727 0
1.1781 1.83727 0
0.785398 2.46547 0
1.1781 2.46547 0
1.1781 1.83727 0
1.5708 1.83727 0
1.1781 2.46547 0
1.5708 2.46547 0
1.5708 0 0
1.9635 0 0
1.5708 0.582872 0
1.9635 0.582872 0
1.9635 0 0
2.35619 0 0
1.9635 0.582872 0
2.35619 0.582872 0
1.5708 0.582872 0
1.9635 0.582872 0
1.5708 1.21071 0
1.9635 1.21071 0
1.9635 0.582872 0
2.35619 0.582872 0
1.9635 1.21071 0
2.35619 1.21071 0
2.35619 0 0
2.74889 0 0
2.35619 0.582872 0
2.74889 0.582872 0
2.74889 0 0
3.14159 0 0
2.74889 0.582872 0
3.14159 0.582872 0
2.35619 0.582872 0
2.74889 0.582872 0
2.35619 1.21071 0
2.74889 1.21071 0
2.74889 0.582872 0
3.14159 0.582872 0
2.74889 1.21071 0
3.14159 1.21071 0
1.5708 1.21071 0
1.9635 1.21071 0
1.5708 1.83727 0
1.9635 1.83727 0
1.9635 1.21071 0
2.35619 1.21071 0
1.9635 1.83727 0
2.35619 1.83727 0
1.5708 1.83727 0
1.9635 1.83727 0
1.5708 2.46547 0
1.9635 2.46547 0
1.9635 1.83727 0
2.35619 1.83727 0
1.9635 2.46547 0
2.35619 2.46547 0
2.35619 1.21071 0
2.74889 1.21071 0
2.35619 1.83727 0
2.74889 1.83727 0
2.74889 1.21071 0
3.14159 1.21071 0
2.74889 1.83727 0
3.14159 1.83727 0
2.35619 1.83727 0
2.74889 1.83727 0
2.35619 2.46547 0
2.74889 2.46547 0
2.74889 1.83727 0
3.14159 1.83727 0
2.74889 2.46547 0
3.14159 2.46547 0
0 2.46547 0
0.392699 2.46547 0
0 3.09321 0
0.392699 3.09321 0
0.392699 2.46547 0
0.785398 2.46547 0
0.392699 3.09321 0
0.785398 3.09321 0
0 3.09321 0
0.392699 3.09321 0
0 3.721 0
0.392699 3.721 0
0.392699 3.09321 0
0.785398 3.09321 0
0.392699 3.721 0
0.785398 3.721 0
0.785398 2.46547 0
1.1781 2.46547 0
0.785398 3.09321 0
1.1781 3.09321 0
1.1781 2.46547 0
1.5708 2.46547 0
1.1781 3.09321 0
1.5708 3.09321 0
0.785398 3.09321 0
1.1781 3.09321 0
0.785398 3.721 0
1.1781 3.721 0
1.1781 3.09321 0
1.5708 3.09321 0
1.1781 3.721 0
1.5708 3.721 0
0 3.721 0
0.392699 3.721 0
0 4.34866 0
0.392699 4.34866 0
0.392699 3.721 0
0.785398 3.721 0
0.392699 4.34866 0
0.785398 4.34866 0
0 4.34866 0
0.392699 4.34866 0
0 4.97621 0
0.392699 4.97621 0
0.392699 4.34866 0
0.785398 4.34866 0
0.392699 4.97621 0
0.785398 4.97621 0
0.785398 3.721 0
1.1781 3.721 0
0.785398 4.34866 0
1.1781 4.34866 0
1.1781 3.721 0
1.5708 3.721 0
1.1781 4.34866 0
1.5708 4.34866 0
0.785398 4.34866 0
1.1781 4.34866 0
0.785398 4.97621 0
1.1781 4.97621 0
1.1781 4.34866 0
1.5708 4.34866 0
1.1781 4.97621 0
1.5708 4.97621 0
1.5708 2.46547 0
1.9635 2.46547 0
1.5708 3.09321 0
1.9635 3.09321 0
1.9635 2.46547 0
2.35619 2.46547 0
1.9635 3.09321 0
2.35619 3.09321 0
1.5708 3.09321 0
1.9635 3.09321 0
1.5708 3.721 0
1.9635 3.721 0
1.9635 3.09321 0
2.35619 3.09321 0
1.9635 3.721 0
2.35619 3.721 0
2.35619 2.46547 0
2.74889 2.46547 0
2.35619 3.09321 0
2.74889 3.09321 0
2.74889 2.46547 0
3.14159 2.46547 0
2.74889 3.09321 0
3.14159 3.09321 0
2.35619 3.09321 0
2.74889 3.09321 0
2.35619 3.721 0
2.74889 3.721 0
2.74889 3.09321 0
3.14159 3.09321 0
2.74889 3.721 0
3.14159 3.721 0
1.5708 3.721 0
1.9635 3.721 0
1.5708 4.34866 0
1.9635 4.34866 0
1.9635 3.721 0
2.35619 3.721 0
1.9635 4.34866 0
2.35619 4.34866 0
1.5708 4.34866 0
1.9635 4.34866 0
1.5708 4.97621 0
1.9635 4.97621 0
1.9635 4.34866 0
2.35619 4.34866 0
1.9635 4.97621 0
2.35619 4.97621 0
2.35619 3.721 0
2.74889 3.721 0
2.35619 4.34866 0
2.74889 4.34866 0
2.74889 3.721 0
3.14159 3.721 0
2.74889 4.34866 0
3.14159 4.34866 0
2.35619 4.34866 0
2.74889 4.34866 0
2.35619 4.97621 0
2.74889 4.97621 0
2.74889 4.34866 0
3.14159 4.34866 0
2.74889 4.97621 0
3.14159 4.97621 0
3.14159 0 0
3.53429 0 0
3.14159 0.582872 0
3.53429 0.582872 0
3.53429 0 0
3.92699 0 0
3.53429 0.582872 0
3.92699 0.582872 0
3.14159 0.582872 0
3.53429 0.582872 0
3.14159 1.21071 0
3.53429 1.21071 0
3.53429 0.582872 0
3.92699 0.582872 0
3.53429 1.21071 0
3.92699 1.21071 0
3.92699 0 0
4.31969 0 0
3.92699 0.582872 0
4.31969 0.582872 0
4.31969 0 0
4.71239 0 0
4.31969 0.582872 0
4.71239 0.582872 0
3.92699 0.582872 0
4.31969 0.582872 0
3.92699 1.21071 0
4.31969 1.21071 0
4.31969 0.582872 0
4.71239 0.582872 0
4.31969 1.21071 0
4.71239 1.21071 0
3.14159 1.21071 0
3.53429 1.21071 0
3.14159 1.83727 0
3.53429 1.83727 0
3.53429 1.21071 0
3.92699 1.21071 0
3.53429 1.83727 0
3.92699 1.83727 0
3.14159 1.83727 0
3.53429 1.83727 0
3.14159 2.46547 0
3.53429 2.46547 0
3.53429 1.83727 0
3.92699 1.83727 0
3.53429 2.46547 0
3.92699 2.46547 0
3.92699 1.21071 0
4.31969 1.21071 0
3.92699 1.83727 0
4.31969 1.83727 0
4.31969 1.21071 0
4.71239 1.21071 0
4.31969 1.83727 0
4.71239 1.83727 0
3.92699 1.83727 0
4.31969 1.83727 0
3.92699 2.46547 0
4.31969 2.46547 0
4.31969 1.83727 0
4.71239 1.83727 0
4.31969 2.46547 0
4.71239 2.46547 0
4.71239 0 0
5.10509 0 0
4.71239 0.582872 0
5.10509 0.582872 0
5.10509 0 0
5.49779 0 0
5.10509 0.582872 0
5.49779 0.582872 0
4.71239 0.582872 0
5.10509 0.582872 0
4.71239 1.21071 0
5.10509 1.21071 0
5.10509 0.582872 0
5.49779 0.582872 0
5.10509 1.21071 0
5.49779 1.21071 0
5.49779 0 0
5.89049 0 0
5.49779 0.582872 0
5.89049 0.582872 0
5.89049 0 0
6.28319 0 0
5.89049 0.582872 0
6.28319 0.582872 0
5.49779 0.582872 0
5.89049 0.582872 0
5.49779 1.21071 0
5.89049 1.21071 0
5.89049 0.582872 0
6.28319 0.582872 0
5.89049 1.21071 0
6.28319 1.21071 0
4.71239 1.21071 0
5.10509 1.21071 0
4.71239 1.83727 0
5.10509 1.83727 0
5.10509 1.21071 0
5.49779 1.21071 0
5.10509 1.83727 0
5.49779 1.83727 0
4.71239 1.83727 0
5.10509 1.83727 0
4.71239 2.46547 0
5.10509 2.46547 0
5.10509 1.83727 0
5.49779 1.83727 0
5.10509 2.46547 0
5.49779 2.46547 0
5.49779 1.21071 0
5.89049 1.21071 0
5.49779 1.83727 0
5.89049 1.83727 0
5.89049 1.21071 0
6.28319 1.21071 0
5.89049 1.83727 0
6.28319 1.83727 0
5.49779 1.83727 0
5.89049 1.83727 0
5.49779 2.46547 0
5.89049 2.46547 0
5.89049 1.83727 0
6.28319 1.83727 0
5.89049 2.46547 0
6.28319 2.46547 0
3.14159 2.46547 0
3.53429 2.46547 0
3.14159 3.09321 0
3.53429 3.09321 0
3.53429 2.46547 0
3.92699 2.46547 0
3.53429 3.09321 0
3.92699 3.09321 0
3.14159 3.09321 0
3.53429 3.09321 0
3.14159 3.721 0
3.53429 3.721 0
3.53429 3.09321 0
3.92699 3.09321 0
3.53429 3.721 0
3.92699 3.721 0
3.92699 2.46547 0
4.31969 2.46547 0
3.92699 3.09321 0
4.31969 3.09321 0
4.31969 2.46547 0
4.71239 2.46547 0
4.31969 3.09321 0
4.71239 3.09321 0
3.92699 3.09321 0
4.31969 3.09321 0
3.92699 3.721 0
4.31969 3.721 0
4.31969 3.09321 0
4.71239 3.09321 0
4.31969 3.721 0
4.71239 3.721 0
3.14159 3.721 0
3.53429 3.721 0
3.14159 4.34866 0
3.53429 4.34866 0
3.53429 3.721 0
3.92699 3.721 0
3.53429 4.34866 0
3.92699 4.34866 0
3.14159 4.34866 0
3.53429 4.34866 0
3.14159 4.97621 0
3.53429 4.97621 0
3.53429 4.34866 0
3.92699 4.34866 0
3.53429 4.97621 0
3.92699 4.97621 0
3.92699 3.721 0
4.31969 3.721 0
3.92699 4.34866 0
4.31969 4.34866 0
4.31969 3.721 0
4.71239 3.721 0
4.31969 4.34866 0
4.71239 4.34866 0
3.92699 4.34866 0
4.31969 4.34866 0
3.92699 4.97621 0
4.31969 4.97621 0
4.31969 4.34866 0
4.71239 4.34866 0
4.31969 4.97621 0
4.71239 4.97621 0
4.71239 2.46547 0
5.10509 2.46547 0
4.71239 3.09321 0
5.10509 3.09321 0
5.10509 2.46547 0
5.49779 2.46547 0
5.10509 3.09321 0
5.49779 3.09321 0
4.71239 3.09321 0
5.10509 3.09321 0
4.71239 3.721 0
5.10509 3.721 0
5.10509 3.09321 0
5.49779 3.09321 0
5.10509 3.721 0
5.49779 3.721 0
5.49779 2.46547 0
5.89049 2.46547 0
5.49779 3.09321 0
5.89049 3.09321 0
5.89049 2.46547 0
6.28319 2.46547 0
5.89049 3.09321 0
6.28319 3.09321 0
5.49779 3.09321 0
5.89049 3.09321 0
5.49779 3.721 0
5.89049 3.721 0
5.89049 3.09321 0
6.28319 3.09321 0
5.89049 3.721 0
6.28319 3.721 0
4.71239 3.721 0
5.10509 3.721 0
4.71239 4.34866 0
5.10509 4.34866 0
5.10509 3.721 0
5.49779 3.721 0
5.10509 4.34866 0
5.49779 4.34866 0
4.71239 4.34866 0
5.10509 4.34866 0
4.71239 4.97621 0
5.10509 4.97621 0
5.10509 4.34866 0
5.49779 4.34866 0
5.10509 4.97621 0
5.49779 4.97621 0
5.49779 3.721 0
5.89049 3.721 0
5.49779 4.34866 0
5.89049 4.34866 0
5.89049 3.721 0
6.28319 3.721 0
5.89049 4.34866 0
6.28319 4.34866 0
5.49779 4.34866 0
5.89049 4.34866 0
5.49779 4.97621 0
5.89049 4.97621 0
5.89049 4.34866 0
6.28319 4.34866 0
5.89049 4.97621 0
6.28319 4.97621 0
0 4.97621 0
0.392699 4.97621 0
0 5.60364 0
0.392699 5.60364 0
0.392699 4.97621 0
0.785398 4.97621 0
0.392699 5.60364 0
0.785398 5.60364 0
0 5.60364 0
0.392699 5.60364 0
0 6.23094 0
0.392699 6.23094 0
0.392699 5.60364 0
0.785398 5.60364 0
0.392699 6.23094 0
0.785398 6.23094 0
0.785398 4.97621 0
1.1781 4.97621 0
0.785398 5.60364 0
1.1781 5.60364 0
1.1781 4.97621 0
1.5708 4.97621 0
1.1781 5.60364 0
1.5708 5.60364 0
0.785398 5.60364 0
1.1781 5.60364 0
0.785398 6.23094 0
1.1781 6.23094 0
1.1781 5.60364 0
1.5708 5.60364 0
1.1781 6.23094 0
1.5708 6.23094 0
0 6.23094 0
0.392699 6.23094 0
0 6.85816 0
0.392699 6.85816 0
0.392699 6.23094 0
0.785398 6.23094 0
0.392699 6.85816 0
0.785398 6.85816 0
0 6.85816 0
0.392699 6.85816 0
0 7.48538 0
0.392699 7.48538 0
0.392699 6.85816 0
0.785398 6.85816 0
0.392699 7.48538 0
0.785398 7.48538 0
0.785398 6.23094 0
1.1781 6.23094 0
0.785398 6.85816 0
1.1781 6.85816 0
1.1781 6.23094 0
1.5708 6.23094 0
1.1781 6.85816 0
1.5708 6.85816 0
0.785398 6.85816 0
1.1781 6.85816 0
[...]
POINT_DATA 5120
VECTORS uf double
0 1 0
-2.43586e-13 1 0
0 1.00266 0
-2.38481e-13 1.00266 0
-2.43586e-13 1 0
1.94201e-14 1 0
-2.38481e-13 1.00266 0
2.65947e-14 1.00266 0
0 1.00266 0
2.27209e-13 1.00266 0
0 1.00403 0
2.14954e-13 1.00403 0
2.27209e-13 1.00266 0
-6.6289e-14 1.00266 0
2.14954e-13 1.00403 0
-6.6141e-14 1.00403 0
1.94201e-14 1 0
3.58083e-13 1 0
2.65947e-14 1.00266 0
3.37673e-13 1.00266 0
3.58083e-13 1 0
1.01328e-13 1 0
3.37673e-13 1.00266 0
1.00796e-13 1.00266 0
-6.6289e-14 1.00266 0
-3.30876e-13 1.00266 0
-6.6141e-14 1.00403 0
-3.22756e-13 1.00403 0
-3.30876e-13 1.00266 0
-9.37002e-14 1.00266 0
-3.22756e-13 1.00403 0
-9.92322e-14 1.00403 0
0 1.00403 0
-3.75159e-14 1.00403 0
0 1.0057 0
-4.0235e-14 1.0057 0
-3.75159e-14 1.00403 0
1.42499e-13 1.00403 0
-4.0235e-14 1.0057 0
1.59575e-13 1.0057 0
0 1.0057 0
4.69618e-14 1.0057 0
0 1.00723 0
5.50521e-14 1.00723 0
4.69618e-14 1.0057 0
-1.00861e-13 1.0057 0
5.50521e-14 1.00723 0
-9.53338e-14 1.00723 0
1.42499e-13 1.00403 0
-2.00798e-14 1.00403 0
1.59575e-13 1.0057 0
-8.68432e-15 1.0057 0
-2.00798e-14 1.00403 0
-8.56071e-15 1.00403 0
-8.68432e-15 1.0057 0
8.5829e-15 1.0057 0
-1.00861e-13 1.0057 0
9.73025e-14 1.0057 0
-9.53338e-14 1.00723 0
8.80683e-14 1.00723 0
9.73025e-14 1.0057 0
-6.66778e-14 1.0057 0
8.80683e-14 1.00723 0
-5.14442e-14 1.00723 0
1.01328e-13 1 0
-2.43627e-14 1 0
1.00796e-13 1.00266 0
-2.3774e-14 1.00266 0
-2.43627e-14 1 0
-1.91425e-15 1 0
-2.3774e-14 1.00266 0
-3.72149e-18 1.00266 0
-9.37002e-14 1.00266 0
2.41933e-14 1.00266 0
-9.92322e-14 1.00403 0
2.23249e-14 1.00403 0
2.41933e-14 1.00266 0
-5.37363e-15 1.00266 0
2.23249e-14 1.00403 0
1.26233e-14 1.00403 0
-1.91425e-15 1 0
2.03373e-15 1 0
-3.72149e-18 1.00266 0
4.82278e-15 1.00266 0
2.03373e-15 1 0
-6.04194e-17 1 0
4.82278e-15 1.00266 0
-5.48633e-16 1.00266 0
-5.37363e-15 1.00266 0
-1.24319e-14 1.00266 0
1.26233e-14 1.00403 0
7.66782e-15 1.00403 0
-1.24319e-14 1.00266 0
3.36786e-15 1.00266 0
7.66782e-15 1.00403 0
-3.73339e-15 1.00403 0
-8.56071e-15 1.00403 0
1.14708e-13 1.00403 0
8.5829e-15 1.0057 0
1.10892e-13 1.0057 0
1.14708e-13 1.00403 0
-3.82266e-15 1.00403 0
1.10892e-13 1.0057 0
-1.20093e-15 1.0057 0
-6.66778e-14 1.0057 0
-1.00378e-13 1.0057 0
-5.14442e-14 1.00723 0
-1.0478e-13 1.00723 0
-1.00378e-13 1.0057 0
1.74517e-16 1.0057 0
-1.0478e-13 1.00723 0
-1.15576e-15 1.00723 0
-3.82266e-15 1.00403 0
-3.47335e-15 1.00403 0
-1.20093e-15 1.0057 0
5.44533e-15 1.0057 0
-3.47335e-15 1.00403 0
1.95628e-15 1.00403 0
5.44533e-15 1.0057 0
3.83181e-15 1.0057 0
1.74517e-16 1.0057 0
-4.93365e-15 1.0057 0
-1.15576e-15 1.00723 0
2.99698e-15 1.00723 0
-4.93365e-15 1.0057 0
-2.7417e-15 1.0057 0
2.99698e-15 1.00723 0
1.14466e-15 1.00723 0
0 1.00723 0
-1.2125e-13 1.00723 0
0 1.00877 0
-1.18156e-13 1.00877 0
-1.2125e-13 1.00723 0
1.65582e-14 1.00723 0
-1.18156e-13 1.00877 0
1.43171e-14 1.00877 0
0 1.00877 0
1.3603e-13 1.00877 0
0 1.01027 0
1.24324e-13 1.01027 0
1.3603e-13 1.00877 0
4.27812e-14 1.00877 0
1.24324e-13 1.01027 0
4.8684e-14 1.01027 0
1.65582e-14 1.00723 0
-1.13711e-13 1.00723 0
1.43171e-14 1.00877 0
-9.09927e-14 1.00877 0
-1.13711e-13 1.00723 0
7.16295e-14 1.00723 0
-9.09927e-14 1.00877 0
5.26104e-14 1.00877 0
4.27812e-14 1.00877 0
9.24017e-14 1.00877 0
4.8684e-14 1.01027 0
9.02749e-14 1.01027 0
9.24017e-14 1.00877 0
-6.20455e-14 1.00877 0
9.02749e-14 1.01027 0
-5.97791e-14 1.01027 0
0 1.01027 0
3.22158e-15 1.01027 0
0 1.01174 0
-2.43787e-15 1.01174 0
3.22158e-15 1.01027 0
-2.29935e-13 1.01027 0
-2.43787e-15 1.01174 0
-2.19505e-13 1.01174 0
0 1.01174 0
1.49028e-14 1.01174 0
0 1.01319 0
1.4584e-14 1.01319 0
1.49028e-14 1.01174 0
2.25058e-13 1.01174 0
1.4584e-14 1.01319 0
2.21064e-13 1.01319 0
-2.29935e-13 1.01027 0
-8.76719e-14 1.01027 0
-2.19505e-13 1.01174 0
-7.52424e-14 1.01174 0
-8.76719e-14 1.01027 0
1.44539e-13 1.01027 0
-7.52424e-14 1.01174 0
1.41765e-13 1.01174 0
2.25058e-13 1.01174 0
3.2357e-14 1.01174 0
2.21064e-13 1.01319 0
4.17009e-14 1.01319 0
3.2357e-14 1.01174 0
-1.52086e-13 1.01174 0
4.17009e-14 1.01319 0
-1.47497e-13 1.01319 0
7.16295e-14 1.00723 0
7.18233e-14 1.00723 0
5.26104e-14 1.00877 0
7.31511e-14 1.00877 0
7.18233e-14 1.00723 0
-2.44347e-15 1.00723 0
7.31511e-14 1.00877 0
5.30004e-15 1.00877 0
-6.20455e-14 1.00877 0
-9.02608e-14 1.00877 0
-5.97791e-14 1.01027 0
-8.61167e-14 1.01027 0
-9.02608e-14 1.00877 0
-4.79439e-14 1.00877 0
-8.61167e-14 1.01027 0
-4.20186e-14 1.01027 0
-2.44347e-15 1.00723 0
-1.31767e-15 1.00723 0
5.30004e-15 1.00877 0
-2.0068e-16 1.00877 0
-1.31767e-15 1.00723 0
-6.95005e-15 1.00723 0
-2.0068e-16 1.00877 0
1.14258e-14 1.00877 0
-4.79439e-14 1.00877 0
-9.47009e-16 1.00877 0
-4.20186e-14 1.01027 0
2.89392e-15 1.01027 0
-9.47009e-16 1.00877 0
6.24466e-14 1.00877 0
2.89392e-15 1.01027 0
6.18341e-14 1.01027 0
1.44539e-13 1.01027 0
-9.81145e-15 1.01027 0
1.41765e-13 1.01174 0
-6.77225e-15 1.01174 0
-9.81145e-15 1.01027 0
3.91492e-14 1.01027 0
-6.77225e-15 1.01174 0
5.19558e-14 1.01174 0
-1.52086e-13 1.01174 0
-4.25632e-14 1.01174 0
-1.47497e-13 1.01319 0
-4.09332e-14 1.01319 0
-4.25632e-14 1.01174 0
-8.72653e-15 1.01174 0
-4.09332e-14 1.01319 0
-4.02103e-15 1.01319 0
3.91492e-14 1.01027 0
-9.26363e-15 1.01027 0
5.19558e-14 1.01174 0
-4.65606e-15 1.01174 0
-9.26363e-15 1.01027 0
-6.65643e-14 1.01027 0
-4.65606e-15 1.01174 0
-6.04001e-14 1.01174 0
-8.72653e-15 1.01174 0
1.75358e-14 1.01174 0
-4.02103e-15 1.01319 0
1.96501e-14 1.01319 0
1.75358e-14 1.01174 0
-6.9992e-15 1.01174 0
1.96501e-14 1.01319 0
-7.46921e-16 1.01319 0
-6.04194e-17 1 0
-3.35444e-15 1 0
-5.48633e-16 1.00266 0
7.94862e-15 1.00266 0
-3.35444e-15 1 0
6.05949e-15 1 0
7.94862e-15 1.00266 0
3.55373e-15 1.00266 0
3.36786e-15 1.00266 0
2.74407e-15 1.00266 0
-3.73339e-15 1.00403 0
6.12569e-15 1.00403 0
2.74407e-15 1.00266 0
-6.94481e-15 1.00266 0
6.12569e-15 1.00403 0
3.79701e-15 1.00403 0
6.05949e-15 1 0
2.2295e-15 1 0
3.55373e-15 1.00266 0
5.12693e-15 1.00266 0
2.2295e-15 1 0
-1.96084e-15 1 0
5.12693e-15 1.00266 0
-5.50872e-16 1.00266 0
-6.94481e-15 1.00266 0
-1.09755e-14 1.00266 0
3.79701e-15 1.00403 0
9.90449e-15 1.00403 0
-1.09755e-14 1.00266 0
7.05456e-15 1.00266 0
9.90449e-15 1.00403 0
2.82524e-15 1.00403 0
1.95628e-15 1.00403 0
-7.01322e-15 1.00403 0
3.83181e-15 1.0057 0
4.25047e-15 1.0057 0
-7.01322e-15 1.00403 0
-5.55761e-15 1.00403 0
4.25047e-15 1.0057 0
9.29997e-15 1.0057 0
-2.7417e-15 1.0057 0
2.94138e-15 1.0057 0
1.14466e-15 1.00723 0
3.78352e-15 1.00723 0
2.94138e-15 1.0057 0
9.12072e-15 1.0057 0
3.78352e-15 1.00723 0
6.01364e-15 1.00723 0
-5.55761e-15 1.00403 0
1.22086e-14 1.00403 0
9.29997e-15 1.0057 0
-1.46351e-15 1.0057 0
1.22086e-14 1.00403 0
4.67469e-15 1.00403 0
-1.46351e-15 1.0057 0
5.26114e-15 1.0057 0
9.12072e-15 1.0057 0
-1.08883e-14 1.0057 0
6.01364e-15 1.00723 0
4.07201e-15 1.00723 0
-1.08883e-14 1.0057 0
7.22091e-15 1.0057 0
4.07201e-15 1.00723 0
3.4902e-15 1.00723 0
-1.96084e-15 1 0
1.08825e-15 1 0
-5.50872e-16 1.00266 0
5.09421e-15 1.00266 0
1.08825e-15 1 0
-4.45293e-16 1 0
5.09421e-15 1.00266 0
9.02655e-15 1.00266 0
7.05456e-15 1.00266 0
5.25106e-16 1.00266 0
2.82524e-15 1.00403 0
3.49105e-15 1.00403 0
5.25106e-16 1.00266 0
-3.59666e-15 1.00266 0
3.49105e-15 1.00403 0
1.09212e-14 1.00403 0
-4.45293e-16 1 0
4.96243e-15 1 0
9.02655e-15 1.00266 0
5.00661e-15 1.00266 0
4.96243e-15 1 0
2.11094e-15 1 0
5.00661e-15 1.00266 0
8.50809e-15 1.00266 0
-3.59666e-15 1.00266 0
6.17512e-15 1.00266 0
1.09212e-14 1.00403 0
3.98194e-15 1.00403 0
6.17512e-15 1.00266 0
-6.52515e-15 1.00266 0
3.98194e-15 1.00403 0
3.33488e-15 1.00403 0
4.67469e-15 1.00403 0
-1.38356e-14 1.00403 0
5.26114e-15 1.0057 0
1.70826e-14 1.0057 0
-1.38356e-14 1.00403 0
6.09162e-15 1.00403 0
1.70826e-14 1.0057 0
3.00101e-16 1.0057 0
7.22091e-15 1.0057 0
-1.29425e-15 1.0057 0
3.4902e-15 1.00723 0
4.65274e-15 1.00723 0
-1.29425e-15 1.0057 0
-4.11318e-17 1.0057 0
4.65274e-15 1.00723 0
4.9885e-16 1.00723 0
6.09162e-15 1.00403 0
-7.97881e-15 1.00403 0
3.00101e-16 1.0057 0
1.10958e-14 1.0057 0
-7.97881e-15 1.00403 0
7.43168e-16 1.00403 0
1.10958e-14 1.0057 0
6.94601e-15 1.0057 0
-4.11318e-17 1.0057 0
-7.26007e-16 1.0057 0
4.9885e-16 1.00723 0
6.28429e-15 1.00723 0
-7.26007e-16 1.0057 0
-7.14911e-15 1.0057 0
6.28429e-15 1.00723 0
6.01e-15 1.00723 0
-6.95005e-15 1.00723 0
-2.79244e-15 1.00723 0
1.14258e-14 1.00877 0
5.4283e-15 1.00877 0
-2.79244e-15 1.00723 0
-1.27424e-14 1.00723 0
5.4283e-15 1.00877 0
-3.72939e-15 1.00877 0
6.24466e-14 1.00877 0
-1.92667e-14 1.00877 0
6.18341e-14 1.01027 0
-8.34122e-15 1.01027 0
-1.92667e-14 1.00877 0
2.81554e-15 1.00877 0
-8.34122e-15 1.01027 0
4.09013e-15 1.01027 0
-1.27424e-14 1.00723 0
9.35094e-15 1.00723 0
-3.72939e-15 1.00877 0
-6.32998e-17 1.00877 0
9.35094e-15 1.00723 0
-2.55229e-15 1.00723 0
-6.32998e-17 1.00877 0
9.5525e-15 1.00877 0
2.81554e-15 1.00877 0
2.11808e-15 1.00877 0
4.09013e-15 1.01027 0
2.32099e-15 1.01027 0
2.11808e-15 1.00877 0
-3.50387e-15 1.00877 0
2.32099e-15 1.01027 0
5.36245e-15 1.01027 0
-6.65643e-14 1.01027 0
1.44156e-14 1.01027 0
-6.04001e-14 1.01174 0
2.57328e-14 1.01174 0
1.44156e-14 1.01027 0
-1.29506e-14 1.01027 0
2.57328e-14 1.01174 0
1.08078e-15 1.01174 0
-6.9992e-15 1.01174 0
-1.83145e-14 1.01174 0
-7.46921e-16 1.01319 0
-3.75125e-15 1.01319 0
-1.83145e-14 1.01174 0
3.32729e-14 1.01174 0
-3.75125e-15 1.01319 0
3.58339e-14 1.01319 0
-1.29506e-14 1.01027 0
-3.52083e-15 1.01027 0
1.08078e-15 1.01174 0
4.31378e-15 1.01174 0
-3.52083e-15 1.01027 0
-8.6732e-15 1.01027 0
4.31378e-15 1.01174 0
8.47791e-15 1.01174 0
3.32729e-14 1.01174 0
5.40322e-15 1.01174 0
3.58339e-14 1.01319 0
1.21663e-15 1.01319 0
5.40322e-15 1.01174 0
-5.95103e-15 1.01174 0
1.21663e-15 1.01319 0
3.93672e-15 1.01319 0
-2.55229e-15 1.00723 0
2.61046e-15 1.00723 0
9.5525e-15 1.00877 0
3.63096e-15 1.00877 0
2.61046e-15 1.00723 0
2.0988e-15 1.00723 0
3.63096e-15 1.00877 0
4.50474e-15 1.00877 0
-3.50387e-15 1.00877 0
-1.33276e-15 1.00877 0
5.36245e-15 1.01027 0
7.09359e-18 1.01027 0
-1.33276e-15 1.00877 0
-7.53944e-16 1.00877 0
7.09359e-18 1.01027 0
3.36666e-15 1.01027 0
2.0988e-15 1.00723 0
5.34713e-17 1.00723 0
4.50474e-15 1.00877 0
1.0432e-15 1.00877 0
5.34713e-17 1.00723 0
3.74504e-15 1.00723 0
1.0432e-15 1.00877 0
3.09638e-15 1.00877 0
-7.53944e-16 1.00877 0
-1.12736e-15 1.00877 0
3.36666e-15 1.01027 0
9.05079e-15 1.01027 0
-1.12736e-15 1.00877 0
-2.00024e-15 1.00877 0
9.05079e-15 1.01027 0
4.01308e-15 1.01027 0
-8.6732e-15 1.01027 0
-5.25098e-16 1.01027 0
8.47791e-15 1.01174 0
3.88299e-15 1.01174 0
-5.25098e-16 1.01027 0
-8.40126e-15 1.01027 0
3.88299e-15 1.01174 0
4.6326e-15 1.01174 0
-5.95103e-15 1.01174 0
-1.47033e-15 1.01174 0
3.93672e-15 1.01319 0
2.13259e-15 1.01319 0
-1.47033e-15 1.01174 0
4.75023e-16 1.01174 0
2.13259e-15 1.01319 0
1.71305e-15 1.01319 0
-8.40126e-15 1.01027 0
-3.27754e-15 1.01027 0
4.6326e-15 1.01174 0
2.71572e-15 1.01174 0
-3.27754e-15 1.01027 0
-2.63727e-15 1.01027 0
2.71572e-15 1.01174 0
6.08855e-15 1.01174 0
4.75023e-16 1.01174 0
-2.45096e-15 1.01174 0
1.71305e-15 1.01319 0
1.45454e-16 1.01319 0
-2.45096e-15 1.01174 0
2.02422e-15 1.01174 0
1.45454e-16 1.01319 0
2.91565e-16 1.01319 0
0 1.01319 0
-8.98306e-14 1.01319 0
0 1.01462 0
-8.61681e-14 1.01462 0
-8.98306e-14 1.01319 0
-1.49457e-13 1.01319 0
-8.61681e-14 1.01462 0
-1.44726e-13 1.01462 0
0 1.01462 0
1.05735e-13 1.01462 0
0 1.01604 0
1.02538e-13 1.01604 0
1.05735e-13 1.01462 0
1.60039e-13 1.01462 0
1.02538e-13 1.01604 0
1.58304e-13 1.01604 0
-1.49457e-13 1.01319 0
5.05922e-14 1.01319 0
-1.44726e-13 1.01462 0
5.30982e-14 1.01462 0
5.05922e-14 1.01319 0
7.17758e-14 1.01319 0
5.30982e-14 1.01462 0
6.57079e-14 1.01462 0
1.60039e-13 1.01462 0
-1.62673e-13 1.01462 0
1.58304e-13 1.01604 0
-1.57673e-13 1.01604 0
-1.62673e-13 1.01462 0
-2.23174e-14 1.01462 0
-1.57673e-13 1.01604 0
-1.80772e-14 1.01604 0
0 1.01604 0
-9.85824e-14 1.01604 0
0 1.01747 0
-9.40933e-14 1.01747 0
-9.85824e-14 1.01604 0
-1.10138e-13 1.01604 0
-9.40933e-14 1.01747 0
-1.0946e-13 1.01747 0
0 1.01747 0
6.15062e-14 1.01747 0
0 1.0189 0
6.0968e-14 1.0189 0
6.15062e-14 1.01747 0
4.54569e-14 1.01747 0
6.0968e-14 1.0189 0
4.64263e-14 1.0189 0
-1.10138e-13 1.01604 0
1.31263e-13 1.01604 0
-1.0946e-13 1.01747 0
1.26043e-13 1.01747 0
1.31263e-13 1.01604 0
4.13684e-14 1.01604 0
1.26043e-13 1.01747 0
5.06186e-14 1.01747 0
4.54569e-14 1.01747 0
-7.45284e-14 1.01747 0
4.64263e-14 1.0189 0
-7.42632e-14 1.0189 0
-7.45284e-14 1.01747 0
-1.7571e-14 1.01747 0
-7.42632e-14 1.0189 0
-1.81131e-14 1.0189 0
7.17758e-14 1.01319 0
8.92888e-14 1.01319 0
6.57079e-14 1.01462 0
8.91677e-14 1.01462 0
8.92888e-14 1.01319 0
1.3781e-14 1.01319 0
8.91677e-14 1.01462 0
1.76245e-14 1.01462 0
-2.23174e-14 1.01462 0
-2.23273e-14 1.01462 0
-1.80772e-14 1.01604 0
-1.89459e-14 1.01604 0
-2.23273e-14 1.01462 0
-1.62839e-14 1.01462 0
-1.89459e-14 1.01604 0
-9.4579e-15 1.01604 0
1.3781e-14 1.01319 0
-1.61421e-14 1.01319 0
1.76245e-14 1.01462 0
-7.74767e-15 1.01462 0
-1.61421e-14 1.01319 0
8.62867e-15 1.01319 0
-7.74767e-15 1.01462 0
4.5193e-15 1.01462 0
-1.62839e-14 1.01462 0
-5.0822e-15 1.01462 0
-9.4579e-15 1.01604 0
1.00358e-14 1.01604 0
-5.0822e-15 1.01462 0
-4.27561e-15 1.01462 0
1.00358e-14 1.01604 0
-1.62205e-15 1.01604 0
4.13684e-14 1.01604 0
4.59849e-15 1.01604 0
5.06186e-14 1.01747 0
5.43941e-15 1.01747 0
4.59849e-15 1.01604 0
2.93523e-15 1.01604 0
5.43941e-15 1.01747 0
1.83289e-15 1.01747 0
-1.7571e-14 1.01747 0
-2.39763e-14 1.01747 0
-1.81131e-14 1.0189 0
-1.47404e-14 1.0189 0
-2.39763e-14 1.01747 0
-3.82451e-15 1.01747 0
-1.47404e-14 1.0189 0
1.51532e-15 1.0189 0
2.93523e-15 1.01604 0
-3.99106e-15 1.01604 0
1.83289e-15 1.01747 0
3.71492e-15 1.01747 0
-3.99106e-15 1.01604 0
-9.0847e-15 1.01604 0
3.71492e-15 1.01747 0
8.24845e-15 1.01747 0
-3.82451e-15 1.01747 0
-1.95391e-15 1.01747 0
1.51532e-15 1.0189 0
4.89204e-15 1.0189 0
-1.95391e-15 1.01747 0
-5.79801e-15 1.01747 0
4.89204e-15 1.0189 0
5.04154e-15 1.0189 0
0 1.0189 0
1.64475e-14 1.0189 0
0 1.02035 0
1.41457e-14 1.02035 0
1.64475e-14 1.0189 0
-3.9072e-14 1.0189 0
1.41457e-14 1.02035 0
-3.8495e-14 1.02035 0
0 1.02035 0
-3.59948e-14 1.02035 0
0 1.02175 0
-3.57587e-14 1.02175 0
-3.59948e-14 1.02035 0
3.82955e-14 1.02035 0
-3.57587e-14 1.02175 0
3.67512e-14 1.02175 0
-3.9072e-14 1.0189 0
1.40024e-14 1.0189 0
-3.8495e-14 1.02035 0
2.17906e-14 1.02035 0
1.40024e-14 1.0189 0
-1.94906e-14 1.0189 0
2.17906e-14 1.02035 0
-1.4272e-14 1.02035 0
3.82955e-14 1.02035 0
-1.87094e-14 1.02035 0
3.67512e-14 1.02175 0
-1.73185e-14 1.02175 0
-1.87094e-14 1.02035 0
-1.05662e-14 1.02035 0
-1.73185e-14 1.02175 0
-8.08662e-15 1.02175 0
0 1.02175 0
7.88336e-15 1.02175 0
0 1.02298 0
3.04673e-15 1.02298 0
7.88336e-15 1.02175 0
-3.52361e-14 1.02175 0
3.04673e-15 1.02298 0
-3.56256e-14 1.02298 0
0 1.02298 0
9.64686e-15 1.02298 0
0 1.02356 0
6.65487e-15 1.02356 0
9.64686e-15 1.02298 0
-2.80671e-15 1.02298 0
6.65487e-15 1.02356 0
7.29621e-15 1.02356 0
-3.52361e-14 1.02175 0
1.91363e-14 1.02175 0
-3.56256e-14 1.02298 0
1.71892e-14 1.02298 0
1.91363e-14 1.02175 0
7.19474e-15 1.02175 0
1.71892e-14 1.02298 0
7.81949e-15 1.02298 0
-2.80671e-15 1.02298 0
-8.93102e-15 1.02298 0
7.29621e-15 1.02356 0
-2.03442e-14 1.02356 0
-8.93102e-15 1.02298 0
1.94297e-15 1.02298 0
-2.03442e-14 1.02356 0
2.08964e-14 1.02356 0
-1.94906e-14 1.0189 0
-1.79523e-14 1.0189 0
-1.4272e-14 1.02035 0
-1.10761e-14 1.02035 0
-1.79523e-14 1.0189 0
5.55282e-17 1.0189 0
-1.10761e-14 1.02035 0
1.5078e-16 1.02035 0
-1.05662e-14 1.02035 0
1.68061e-14 1.02035 0
-8.08662e-15 1.02175 0
1.67436e-14 1.02175 0
1.68061e-14 1.02035 0
-3.83881e-15 1.02035 0
1.67436e-14 1.02175 0
1.14612e-15 1.02175 0
5.55282e-17 1.0189 0
-8.44532e-16 1.0189 0
1.5078e-16 1.02035 0
1.3251e-15 1.02035 0
-8.44532e-16 1.0189 0
-4.98028e-15 1.0189 0
1.3251e-15 1.02035 0
3.995e-15 1.02035 0
-3.83881e-15 1.02035 0
-6.17772e-15 1.02035 0
1.14612e-15 1.02175 0
1.84198e-15 1.02175 0
-6.17772e-15 1.02035 0
-3.63032e-15 1.02035 0
1.84198e-15 1.02175 0
2.68297e-15 1.02175 0
7.19474e-15 1.02175 0
-2.06573e-14 1.02175 0
7.81949e-15 1.02298 0
-1.45035e-14 1.02298 0
-2.06573e-14 1.02175 0
-1.30825e-15 1.02175 0
-1.45035e-14 1.02298 0
9.7529e-16 1.02298 0
1.94297e-15 1.02298 0
2.53147e-16 1.02298 0
2.08964e-14 1.02356 0
9.76111e-15 1.02356 0
2.53147e-16 1.02298 0
-1.77621e-15 1.02298 0
9.76111e-15 1.02356 0
-1.95831e-15 1.02356 0
-1.30825e-15 1.02175 0
-1.24248e-15 1.02175 0
9.7529e-16 1.02298 0
-9.97711e-18 1.02298 0
-1.24248e-15 1.02175 0
-1.37269e-15 1.02175 0
-9.97711e-18 1.02298 0
1.39855e-15 1.02298 0
-1.77621e-15 1.02298 0
1.02864e-16 1.02298 0
-1.95831e-15 1.02356 0
7.55226e-15 1.02356 0
1.02864e-16 1.02298 0
-1.03498e-15 1.02298 0
7.55226e-15 1.02356 0
-2.27913e-14 1.02356 0
8.62867e-15 1.01319 0
1.66982e-14 1.01319 0
4.5193e-15 1.01462 0
1.97917e-14 1.01462 0
1.66982e-14 1.01319 0
-2.68286e-14 1.01319 0
1.97917e-14 1.01462 0
-2.07899e-14 1.01462 0
-4.27561e-15 1.01462 0
-1.28192e-14 1.01462 0
-1.62205e-15 1.01604 0
-4.04062e-16 1.01604 0
-1.28192e-14 1.01462 0
-2.74357e-15 1.01462 0
-4.04062e-16 1.01604 0
2.06678e-15 1.01604 0
-2.68286e-14 1.01319 0
2.10381e-16 1.01319 0
-2.07899e-14 1.01462 0
-1.93023e-15 1.01462 0
2.10381e-16 1.01319 0
-1.45543e-15 1.01319 0
-1.93023e-15 1.01462 0
6.77896e-15 1.01462 0
-2.74357e-15 1.01462 0
-1.36731e-15 1.01462 0
2.06678e-15 1.01604 0
-2.65228e-16 1.01604 0
-1.36731e-15 1.01462 0
-6.51648e-15 1.01462 0
-2.65228e-16 1.01604 0
8.98e-15 1.01604 0
-9.0847e-15 1.01604 0
-3.46459e-15 1.01604 0
8.24845e-15 1.01747 0
4.46256e-15 1.01747 0
-3.46459e-15 1.01604 0
-7.23676e-15 1.01604 0
4.46256e-15 1.01747 0
6.06096e-15 1.01747 0
-5.79801e-15 1.01747 0
-1.19191e-15 1.01747 0
5.04154e-15 1.0189 0
2.8917e-15 1.0189 0
-1.19191e-15 1.01747 0
-3.49376e-16 1.01747 0
2.8917e-15 1.0189 0
2.1584e-15 1.0189 0
-7.23676e-15 1.01604 0
2.02392e-15 1.01604 0
6.06096e-15 1.01747 0
-2.00788e-15 1.01747 0
2.02392e-15 1.01604 0
-6.85229e-15 1.01604 0
-2.00788e-15 1.01747 0
3.47422e-15 1.01747 0
-3.49376e-16 1.01747 0
-2.76611e-15 1.01747 0
2.1584e-15 1.0189 0
5.94206e-15 1.0189 0
-2.76611e-15 1.01747 0
-1.13255e-15 1.01747 0
5.94206e-15 1.0189 0
2.60439e-15 1.0189 0
-1.45543e-15 1.01319 0
-1.09676e-15 1.01319 0
6.77896e-15 1.01462 0
3.41673e-16 1.01462 0
-1.09676e-15 1.01319 0
4.53719e-17 1.01319 0
3.41673e-16 1.01462 0
5.92344e-15 1.01462 0
-6.51648e-15 1.01462 0
1.76679e-15 1.01462 0
8.98e-15 1.01604 0
-6.87999e-16 1.01604 0
1.76679e-15 1.01462 0
-3.07984e-15 1.01462 0
-6.87999e-16 1.01604 0
1.54642e-15 1.01604 0
4.53719e-17 1.01319 0
-3.43265e-15 1.01319 0
5.92344e-15 1.01462 0
3.01301e-15 1.01462 0
-3.43265e-15 1.01319 0
1.41209e-15 1.01319 0
3.01301e-15 1.01462 0
-3.01965e-16 1.01462 0
-3.07984e-15 1.01462 0
-1.3457e-15 1.01462 0
1.54642e-15 1.01604 0
-8.58268e-16 1.01604 0
-1.3457e-15 1.01462 0
-4.34207e-15 1.01462 0
-8.58268e-16 1.01604 0
6.66601e-15 1.01604 0
-6.85229e-15 1.01604 0
-1.77316e-15 1.01604 0
3.47422e-15 1.01747 0
1.64551e-15 1.01747 0
-1.77316e-15 1.01604 0
2.29434e-15 1.01604 0
1.64551e-15 1.01747 0
-3.65767e-16 1.01747 0
-1.13255e-15 1.01747 0
-1.88565e-15 1.01747 0
2.60439e-15 1.0189 0
4.83161e-15 1.0189 0
-1.88565e-15 1.01747 0
-1.21176e-15 1.01747 0
4.83161e-15 1.0189 0
3.73711e-15 1.0189 0
2.29434e-15 1.01604 0
1.02774e-15 1.01604 0
-3.65767e-16 1.01747 0
3.91358e-15 1.01747 0
1.02774e-15 1.01604 0
-2.05723e-15 1.01604 0
3.91358e-15 1.01747 0
5.12209e-15 1.01747 0
-1.21176e-15 1.01747 0
-3.24965e-15 1.01747 0
3.73711e-15 1.0189 0
6.17404e-16 1.0189 0
-3.24965e-15 1.01747 0
7.6242e-15 1.01747 0
6.17404e-16 1.0189 0
-1.00682e-15 1.0189 0
-4.98028e-15 1.0189 0
-8.94087e-15 1.0189 0
3.995e-15 1.02035 0
4.56855e-16 1.02035 0
-8.94087e-15 1.0189 0
-4.25054e-15 1.0189 0
4.56855e-16 1.02035 0
-5.71324e-16 1.02035 0
-3.63032e-15 1.02035 0
-8.62757e-16 1.02035 0
2.68297e-15 1.02175 0
1.12464e-15 1.02175 0
-8.62757e-16 1.02035 0
7.58212e-16 1.02035 0
1.12464e-15 1.02175 0
-2.75826e-16 1.02175 0
-4.25054e-15 1.0189 0
6.96935e-16 1.0189 0
-5.71324e-16 1.02035 0
1.73801e-15 1.02035 0
6.96935e-16 1.0189 0
-4.04411e-15 1.0189 0
1.73801e-15 1.02035 0
3.34656e-15 1.02035 0
7.58212e-16 1.02035 0