# vtk DataFile Version 3.0
#This file was generated by the deal.II library on 2018/10/12 at 1:13:47
ASCII
DATASET UNSTRUCTURED_GRID

POINTS 5120 double
0 0 0
0.392699 0 0
0 0.598046 0
0.392699 0.598046 0
0.392699 0 0
0.785398 0 0
0.392699 0.598046 0
0.785398 0.598046 0
0 0.598046 0
0.392699 0.598046 0
0 1.225 0
0.392699 1.225 0
0.392699 0.598046 0
0.785398 0.598046 0
0.392699 1.225 0
0.785398 1.225 0
0.785398 0 0
1.1781 0 0
0.785398 0.598046 0
1.1781 0.598046 0
1.1781 0 0
1.5708 0 0
1.1781 0.598046 0
1.5708 0.598046 0
0.785398 0.598046 0
1.1781 0.598046 0
0.785398 1.225 0
1.1781 1.225 0
1.1781 0.598046 0
1.5708 0.598046 0
1.1781 1.225 0
1.5708 1.225 0
0 1.225 0
0.392699 1.225 0
0 1.85098 0
0.392699 1.85098 0
0.392699 1.225 0
0.785398 1.225 0
0.392699 1.85098 0
0.785398 1.85098 0
0 1.85098 0
0.392699 1.85098 0
0 2.47795 0
0.392699 2.47795 0
0.392699 1.85098 0
0.785398 1.85098 0
0.392699 2.47795 0
0.785398 2.47795 0
0.785398 1.225 0
1.1781 1.225 0
0.785398 1.85098 0
1.1781 1.85098 0
1.1781 1.225 0
1.5708 1.225 0
1.1781 1.85098 0
1.5708 1.85098 0
0.785398 1.85098 0
1.1781 1.85098 0
0.785398 2.47795 0
1.1781 2.47795 0
1.1781 1.85098 0
1.5708 1.85098 0
1.1781 2.47795 0
1.5708 2.47795 0
1.5708 0 0
1.9635 0 0
1.5708 0.598046 0
1.9635 0.598046 0
1.9635 0 0
2.35619 0 0
1.9635 0.598046 0
2.35619 0.598046 0
1.5708 0.598046 0
1.9635 0.598046 0
1.5708 1.225 0
1.9635 1.225 0
1.9635 0.598046 0
2.35619 0.598046 0
1.9635 1.225 0
2.35619 1.225 0
2.35619 0 0
2.74889 0 0
2.35619 0.598046 0
2.74889 0.598046 0
2.74889 0 0
3.14159 0 0
2.74889 0.598046 0
3.14159 0.598046 0
2.35619 0.598046 0
2.74889 0.598046 0
2.35619 1.225 0
2.74889 1.225 0
2.74889 0.598046 0
3.14159 0.598046 0
2.74889 1.225 0
3.14159 1.225 0
1.5708 1.225 0
1.9635 1.225 0
1.5708 1.85098 0
1.9635 1.85098 0
1.9635 1.225 0
2.35619 1.225 0
1.9635 1.85098 0
2.35619 1.85098 0
1.5708 1.85098 0
1.9635 1.85098 0
1.5708 2.47795 0
1.9635 2.47795 0
1.9635 1.85098 0
2.35619 1.85098 0
1.9635 2.47795 0
2.35619 2.47795 0
2.35619 1.225 0
2.74889 1.225 0
2.35619 1.85098 0
2.74889 1.85098 0
2.74889 1.225 0
3.14159 1.225 0
2.74889 1.85098 0
3.14159 1.85098 0
2.35619 1.85098 0
2.74889 1.85098 0
2.35619 2.47795 0
2.74889 2.47795 0
2.74889 1.85098 0
3.14159 1.85098 0
2.74889 2.47795 0
3.14159 2.47795 0
0 2.47795 0
0.392699 2.47795 0
0 3.10465 0
0.392699 3.10465 0
0.392699 2.47795 0
0.785398 2.47795 0
0.392699 3.10465 0
0.785398 3.10465 0
0 3.10465 0
0.392699 3.10465 0
0 3.73137 0
0.392699 3.73137 0
0.392699 3.10465 0
0.785398 3.10465 0
0.392699 3.73137 0
0.785398 3.73137 0
0.785398 2.47795 0
1.1781 2.47795 0
0.785398 3.10465 0
1.1781 3.10465 0
1.1781 2.47795 0
1.5708 2.47795 0
1.1781 3.10465 0
1.5708 3.10465 0
0.785398 3.10465 0
1.1781 3.10465 0
0.785398 3.73137 0
1.1781 3.73137 0
1.1781 3.10465 0
1.5708 3.10465 0
1.1781 3.73137 0
1.5708 3.73137 0
0 3.73137 0
0.392699 3.73137 0
0 4.35801 0
0.392699 4.35801 0
0.392699 3.73137 0
0.785398 3.73137 0
0.392699 4.35801 0
0.785398 4.35801 0
0 4.35801 0
0.392699 4.35801 0
0 4.98458 0
0.392699 4.98458 0
0.392699 4.35801 0
0.785398 4.35801 0
0.392699 4.98458 0
0.785398 4.98458 0
0.785398 3.73137 0
1.1781 3.73137 0
0.785398 4.35801 0
1.1781 4.35801 0
1.1781 3.73137 0
1.5708 3.73137 0
1.1781 4.35801 0
1.5708 4.35801 0
0.785398 4.35801 0
1.1781 4.35801 0
0.785398 4.98458 0
1.1781 4.98458 0
1.1781 4.35801 0
1.5708 4.35801 0
1.1781 4.98458 0
1.5708 4.98458 0
1.5708 2.47795 0
1.9635 2.47795 0
1.5708 3.10465 0
1.9635 3.10465 0
1.9635 2.47795 0
2.35619 2.47795 0
1.9635 3.10465 0
2.35619 3.10465 0
1.5708 3.10465 0
1.9635 3.10465 0
1.5708 3.73137 0
1.9635 3.73137 0
1.9635 3.10465 0
2.35619 3.10465 0
1.9635 3.73137 0
2.35619 3.73137 0
2.35619 2.47795 0
2.74889 2.47795 0
2.35619 3.10465 0
2.74889 3.10465 0
2.74889 2.47795 0
3.14159 2.47795 0
2.74889 3.10465 0
3.14159 3.10465 0
2.35619 3.10465 0
2.74889 3.10465 0
2.35619 3.73137 0
2.74889 3.73137 0
2.74889 3.10465 0
3.14159 3.10465 0
2.74889 3.73137 0
3.14159 3.73137 0
1.5708 3.73137 0
1.9635 3.73137 0
1.5708 4.35801 0
1.9635 4.35801 0
1.9635 3.73137 0
2.35619 3.73137 0
1.9635 4.35801 0
2.35619 4.35801 0
1.5708 4.35801 0
1.9635 4.35801 0
1.5708 4.98458 0
1.9635 4.98458 0
1.9635 4.35801 0
2.35619 4.35801 0
1.9635 4.98458 0
2.35619 4.98458 0
2.35619 3.73137 0
2.74889 3.73137 0
2.35619 4.35801 0
2.74889 4.35801 0
2.74889 3.73137 0
3.14159 3.73137 0
2.74889 4.35801 0
3.14159 4.35801 0
2.35619 4.35801 0
2.74889 4.35801 0
2.35619 4.98458 0
2.74889 4.98458 0
2.74889 4.35801 0
3.14159 4.35801 0
2.74889 4.98458 0
3.14159 4.98458 0
3.14159 0 0
3.53429 0 0
3.14159 0.598046 0
3.53429 0.598046 0
3.53429 0 0
3.92699 0 0
3.53429 0.598046 0
3.92699 0.598046 0
3.14159 0.598046 0
3.53429 0.598046 0
3.14159 1.225 0
3.53429 1.225 0
3.53429 0.598046 0
3.92699 0.598046 0
3.53429 1.225 0
3.92699 1.225 0
3.92699 0 0
4.31969 0 0
3.92699 0.598046 0
4.31969 0.598046 0
4.31969 0 0
4.71239 0 0
4.31969 0.598046 0
4.71239 0.598046 0
3.92699 0.598046 0
4.31969 0.598046 0
3.92699 1.225 0
4.31969 1.225 0
4.31969 0.598046 0
4.71239 0.598046 0
4.31969 1.225 0
4.71239 1.225 0
3.14159 1.225 0
3.53429 1.225 0
3.14159 1.85098 0
3.53429 1.85098 0
3.53429 1.225 0
3.92699 1.225 0
3.53429 1.85098 0
3.92699 1.85098 0
3.14159 1.85098 0
3.53429 1.85098 0
3.14159 2.47795 0
3.53429 2.47795 0
3.53429 1.85098 0
3.92699 1.85098 0
3.53429 2.47795 0
3.92699 2.47795 0
3.92699 1.225 0
4.31969 1.225 0
3.92699 1.85098 0
4.31969 1.85098 0
4.31969 1.225 0
4.71239 1.225 0
4.31969 1.85098 0
4.71239 1.85098 0
3.92699 1.85098 0
4.31969 1.85098 0
3.92699 2.47795 0
4.31969 2.47795 0
4.31969 1.85098 0
4.71239 1.85098 0
4.31969 2.47795 0
4.71239 2.47795 0
4.71239 0 0
5.10509 0 0
4.71239 0.598046 0
5.10509 0.598046 0
5.10509 0 0
5.49779 0 0
5.10509 0.598046 0
5.49779 0.598046 0
4.71239 0.598046 0
5.10509 0.598046 0
4.71239 1.225 0
5.10509 1.225 0
5.10509 0.598046 0
5.49779 0.598046 0
5.10509 1.225 0
5.49779 1.225 0
5.49779 0 0
5.89049 0 0
5.49779 0.598046 0
5.89049 0.598046 0
5.89049 0 0
6.28319 0 0
5.89049 0.598046 0
6.28319 0.598046 0
5.49779 0.598046 0
5.89049 0.598046 0
5.49779 1.225 0
5.89049 1.225 0
5.89049 0.598046 0
6.28319 0.598046 0
5.89049 1.225 0
6.28319 1.225 0
4.71239 1.225 0
5.10509 1.225 0
4.71239 1.85098 0
5.10509 1.85098 0
5.10509 1.225 0
5.49779 1.225 0
5.10509 1.85098 0
5.49779 1.85098 0
4.71239 1.85098 0
5.10509 1.85098 0
4.71239 2.47795 0
5.10509 2.47795 0
5.10509 1.85098 0
5.49779 1.85098 0
5.10509 2.47795 0
5.49779 2.47795 0
5.49779 1.225 0
5.89049 1.225 0
5.49779 1.85098 0
5.89049 1.85098 0
5.89049 1.225 0
6.28319 1.225 0
5.89049 1.85098 0
6.28319 1.85098 0
5.49779 1.85098 0
5.89049 1.85098 0
5.49779 2.47795 0
5.89049 2.47795 0
5.89049 1.85098 0
6.28319 1.85098 0
5.89049 2.47795 0
6.28319 2.47795 0
3.14159 2.47795 0
3.53429 2.47795 0
3.14159 3.10465 0
3.53429 3.10465 0
3.53429 2.47795 0
3.92699 2.47795 0
3.53429 3.10465 0
3.92699 3.10465 0
3.14159 3.10465 0
3.53429 3.10465 0
3.14159 3.73137 0
3.53429 3.73137 0
3.53429 3.10465 0
3.92699 3.10465 0
3.53429 3.73137 0
3.92699 3.73137 0
3.92699 2.47795 0
4.31969 2.47795 0
3.92699 3.10465 0
4.31969 3.10465 0
4.31969 2.47795 0
4.71239 2.47795 0
4.31969 3.10465 0
4.71239 3.10465 0
3.92699 3.10465 0
4.31969 3.10465 0
3.92699 3.73137 0
4.31969 3.73137 0
4.31969 3.10465 0
4.71239 3.10465 0
4.31969 3.73137 0
4.71239 3.73137 0
3.14159 3.73137 0
3.53429 3.73137 0
3.14159 4.35801 0
3.53429 4.35801 0
3.53429 3.73137 0
3.92699 3.73137 0
3.53429 4.35801 0
3.92699 4.35801 0
3.14159 4.35801 0
3.53429 4.35801 0
3.14159 4.98458 0
3.53429 4.98458 0
3.53429 4.35801 0
3.92699 4.35801 0
3.53429 4.98458 0
3.92699 4.98458 0
3.92699 3.73137 0
4.31969 3.73137 0
3.92699 4.35801 0
4.31969 4.35801 0
4.31969 3.73137 0
4.71239 3.73137 0
4.31969 4.35801 0
4.71239 4.35801 0
3.92699 4.35801 0
4.31969 4.35801 0
3.92699 4.98458 0
4.31969 4.98458 0
4.31969 4.35801 0
4.71239 4.35801 0
4.31969 4.98458 0
4.71239 4.98458 0
4.71239 2.47795 0
5.10509 2.47795 0
4.71239 3.10465 0
5.10509 3.10465 0
5.10509 2.47795 0
5.49779 2.47795 0
5.10509 3.10465 0
5.49779 3.10465 0
4.71239 3.10465 0
5.10509 3.10465 0
4.71239 3.73137 0
5.10509 3.73137 0
5.10509 3.10465 0
5.49779 3.10465 0
5.10509 3.73137 0
5.49779 3.73137 0
5.49779 2.47795 0
5.89049 2.47795 0
5.49779 3.10465 0
5.89049 3.10465 0
5.89049 2.47795 0
6.28319 2.47795 0
5.89049 3.10465 0
6.28319 3.10465 0
5.49779 3.10465 0
5.89049 3.10465 0
5.49779 3.73137 0
5.89049 3.73137 0
5.89049 3.10465 0
6.28319 3.10465 0
5.89049 3.73137 0
6.28319 3.73137 0
4.71239 3.73137 0
5.10509 3.73137 0
4.71239 4.35801 0
5.10509 4.35801 0
5.10509 3.73137 0
5.49779 3.73137 0
5.10509 4.35801 0
5.49779 4.35801 0
4.71239 4.35801 0
5.10509 4.35801 0
4.71239 4.98458 0
5.10509 4.98458 0
5.10509 4.35801 0
5.49779 4.35801 0
5.10509 4.98458 0
5.49779 4.98458 0
5.49779 3.73137 0
5.89049 3.73137 0
5.49779 4.35801 0
5.89049 4.35801 0
5.89049 3.73137 0
6.28319 3.73137 0
5.89049 4.35801 0
6.28319 4.35801 0
5.49779 4.35801 0
5.89049 4.35801 0
5.49779 4.98458 0
5.89049 4.98458 0
5.89049 4.35801 0
6.28319 4.35801 0
5.89049 4.98458 0
6.28319 4.98458 0
0 4.98458 0
0.392699 4.98458 0
0 5.61106 0
0.392699 5.61106 0
0.392699 4.98458 0
0.785398 4.98458 0
0.392699 5.61106 0
0.785398 5.61106 0
0 5.61106 0
0.392699 5.61106 0
0 6.23746 0
0.392699 6.23746 0
0.392699 5.61106 0
0.785398 5.61106 0
0.392699 6.23746 0
0.785398 6.23746 0
0.785398 4.98458 0
1.1781 4.98458 0
0.785398 5.61106 0
1.1781 5.61106 0
1.1781 4.98458 0
1.5708 4.98458 0
1.1781 5.61106 0
1.5708 5.61106 0
0.785398 5.61106 0
1.1781 5.61106 0
0.785398 6.23746 0
1.1781 6.23746 0
1.1781 5.61106 0
1.5708 5.61106 0
1.1781 6.23746 0
1.5708 6.23746 0
0 6.23746 0
0.392699 6.23746 0
0 6.86381 0
0.392699 6.86381 0
0.392699 6.23746 0
0.785398 6.23746 0
0.392699 6.86381 0
0.785398 6.86381 0
0 6.86381 0
0.392699 6.86381 0
0 7.49016 0
0.392699 7.49016 0
0.392699 6.86381 0
0.785398 6.86381 0
0.392699 7.49016 0
0.785398 7.49016 0
0.785398 6.23746 0
1.1781 6.23746 0
0.785398 6.86381 0
1.1781 6.86381 0
1.1781 6.23746 0
1.5708 6.23746 0
1.1781 6.86381 0
1.5708 6.86381 0
0.785398 6.86381 0
1.1781 6.86381 0
[...]
POINT_DATA 5120
VECTORS velocity double
0 0 0
0 0 0
0 -0.00232216 0
-1.62092e-14 -0.00232216 0
0 0 0
0 0 0
-1.62092e-14 -0.00232216 0
2.06737e-15 -0.00232216 0
0 -0.00232216 0
-1.62092e-14 -0.00232216 0
0 -0.0021728 0
8.10485e-16 -0.0021728 0
-1.62092e-14 -0.00232216 0
2.06737e-15 -0.00232216 0
8.10485e-16 -0.0021728 0
-3.40562e-15 -0.0021728 0
0 0 0
0 0 0
2.06737e-15 -0.00232216 0
2.39133e-14 -0.00232216 0
0 0 0
0 0 0
2.39133e-14 -0.00232216 0
6.18078e-15 -0.00232216 0
2.06737e-15 -0.00232216 0
2.39133e-14 -0.00232216 0
-3.40562e-15 -0.0021728 0
-2.1815e-15 -0.0021728 0
2.39133e-14 -0.00232216 0
6.18078e-15 -0.00232216 0
-2.1815e-15 -0.0021728 0
-1.86895e-15 -0.0021728 0
0 -0.0021728 0
8.10485e-16 -0.0021728 0
0 -0.00208177 0
1.00837e-15 -0.00208177 0
8.10485e-16 -0.0021728 0
-3.40562e-15 -0.0021728 0
1.00837e-15 -0.00208177 0
9.20717e-15 -0.00208177 0
0 -0.00208177 0
1.00837e-15 -0.00208177 0
0 -0.00189766 0
-2.53013e-15 -0.00189766 0
1.00837e-15 -0.00208177 0
9.20717e-15 -0.00208177 0
-2.53013e-15 -0.00189766 0
-8.28391e-15 -0.00189766 0
-3.40562e-15 -0.0021728 0
-2.1815e-15 -0.0021728 0
9.20717e-15 -0.00208177 0
-1.32939e-15 -0.00208177 0
-2.1815e-15 -0.0021728 0
-1.86895e-15 -0.0021728 0
-1.32939e-15 -0.00208177 0
2.06734e-15 -0.00208177 0
9.20717e-15 -0.00208177 0
-1.32939e-15 -0.00208177 0
-8.28391e-15 -0.00189766 0
7.61313e-15 -0.00189766 0
-1.32939e-15 -0.00208177 0
2.06734e-15 -0.00208177 0
7.61313e-15 -0.00189766 0
-5.99984e-15 -0.00189766 0
0 0 0
0 0 0
6.18078e-15 -0.00232216 0
-1.10456e-14 -0.00232216 0
0 0 0
0 0 0
-1.10456e-14 -0.00232216 0
-5.94485e-15 -0.00232216 0
6.18078e-15 -0.00232216 0
-1.10456e-14 -0.00232216 0
-1.86895e-15 -0.0021728 0
-2.07262e-15 -0.0021728 0
-1.10456e-14 -0.00232216 0
-5.94485e-15 -0.00232216 0
-2.07262e-15 -0.0021728 0
7.95851e-16 -0.0021728 0
0 0 0
0 0 0
-5.94485e-15 -0.00232216 0
3.88041e-15 -0.00232216 0
0 0 0
0 0 0
3.88041e-15 -0.00232216 0
-5.63029e-15 -0.00232216 0
-5.94485e-15 -0.00232216 0
3.88041e-15 -0.00232216 0
7.95851e-16 -0.0021728 0
2.78637e-15 -0.0021728 0
3.88041e-15 -0.00232216 0
-5.63029e-15 -0.00232216 0
2.78637e-15 -0.0021728 0
-3.44036e-15 -0.0021728 0
-1.86895e-15 -0.0021728 0
-2.07262e-15 -0.0021728 0
2.06734e-15 -0.00208177 0
1.14569e-14 -0.00208177 0
-2.07262e-15 -0.0021728 0
7.95851e-16 -0.0021728 0
1.14569e-14 -0.00208177 0
1.46966e-14 -0.00208177 0
2.06734e-15 -0.00208177 0
1.14569e-14 -0.00208177 0
-5.99984e-15 -0.00189766 0
2.93352e-15 -0.00189766 0
1.14569e-14 -0.00208177 0
1.46966e-14 -0.00208177 0
2.93352e-15 -0.00189766 0
-2.84447e-15 -0.00189766 0
7.95851e-16 -0.0021728 0
2.78637e-15 -0.0021728 0
1.46966e-14 -0.00208177 0
8.09761e-15 -0.00208177 0
2.78637e-15 -0.0021728 0
-3.44036e-15 -0.0021728 0
8.09761e-15 -0.00208177 0
4.4502e-15 -0.00208177 0
1.46966e-14 -0.00208177 0
8.09761e-15 -0.00208177 0
-2.84447e-15 -0.00189766 0
1.13147e-17 -0.00189766 0
8.09761e-15 -0.00208177 0
4.4502e-15 -0.00208177 0
1.13147e-17 -0.00189766 0
1.2754e-14 -0.00189766 0
0 -0.00189766 0
-2.53013e-15 -0.00189766 0
0 -0.00173935 0
-7.73427e-15 -0.00173935 0
-2.53013e-15 -0.00189766 0
-8.28391e-15 -0.00189766 0
-7.73427e-15 -0.00173935 0
-1.86848e-15 -0.00173935 0
0 -0.00173935 0
-7.73427e-15 -0.00173935 0
0 -0.00157771 0
2.18921e-15 -0.00157771 0
-7.73427e-15 -0.00173935 0
-1.86848e-15 -0.00173935 0
2.18921e-15 -0.00157771 0
8.33847e-15 -0.00157771 0
-8.28391e-15 -0.00189766 0
7.61313e-15 -0.00189766 0
-1.86848e-15 -0.00173935 0
-2.7549e-15 -0.00173935 0
7.61313e-15 -0.00189766 0
-5.99984e-15 -0.00189766 0
-2.7549e-15 -0.00173935 0
4.01581e-15 -0.00173935 0
-1.86848e-15 -0.00173935 0
-2.7549e-15 -0.00173935 0
8.33847e-15 -0.00157771 0
1.52607e-14 -0.00157771 0
-2.7549e-15 -0.00173935 0
4.01581e-15 -0.00173935 0
1.52607e-14 -0.00157771 0
-6.14734e-15 -0.00157771 0
0 -0.00157771 0
2.18921e-15 -0.00157771 0
0 -0.00142358 0
-5.40352e-16 -0.00142358 0
2.18921e-15 -0.00157771 0
8.33847e-15 -0.00157771 0
-5.40352e-16 -0.00142358 0
-3.23262e-15 -0.00142358 0
0 -0.00142358 0
-5.40352e-16 -0.00142358 0
0 -0.00127471 0
8.0259e-15 -0.00127471 0
-5.40352e-16 -0.00142358 0
-3.23262e-15 -0.00142358 0
8.0259e-15 -0.00127471 0
7.81831e-15 -0.00127471 0
8.33847e-15 -0.00157771 0
1.52607e-14 -0.00157771 0
-3.23262e-15 -0.00142358 0
5.39733e-15 -0.00142358 0
1.52607e-14 -0.00157771 0
-6.14734e-15 -0.00157771 0
5.39733e-15 -0.00142358 0
7.77291e-15 -0.00142358 0
-3.23262e-15 -0.00142358 0
5.39733e-15 -0.00142358 0
7.81831e-15 -0.00127471 0
3.35171e-15 -0.00127471 0
5.39733e-15 -0.00142358 0
7.77291e-15 -0.00142358 0
3.35171e-15 -0.00127471 0
-3.7875e-15 -0.00127471 0
-5.99984e-15 -0.00189766 0
2.93352e-15 -0.00189766 0
4.01581e-15 -0.00173935 0
8.68684e-15 -0.00173935 0
2.93352e-15 -0.00189766 0
-2.84447e-15 -0.00189766 0
8.68684e-15 -0.00173935 0
2.93885e-15 -0.00173935 0
4.01581e-15 -0.00173935 0
8.68684e-15 -0.00173935 0
-6.14734e-15 -0.00157771 0
7.21602e-15 -0.00157771 0
8.68684e-15 -0.00173935 0
2.93885e-15 -0.00173935 0
7.21602e-15 -0.00157771 0
-1.49238e-14 -0.00157771 0
-2.84447e-15 -0.00189766 0
1.13147e-17 -0.00189766 0
2.93885e-15 -0.00173935 0
1.7909e-15 -0.00173935 0
1.13147e-17 -0.00189766 0
1.2754e-14 -0.00189766 0
1.7909e-15 -0.00173935 0
2.00884e-15 -0.00173935 0
2.93885e-15 -0.00173935 0
1.7909e-15 -0.00173935 0
-1.49238e-14 -0.00157771 0
-1.0473e-14 -0.00157771 0
1.7909e-15 -0.00173935 0
2.00884e-15 -0.00173935 0
-1.0473e-14 -0.00157771 0
1.6426e-14 -0.00157771 0
-6.14734e-15 -0.00157771 0
7.21602e-15 -0.00157771 0
7.77291e-15 -0.00142358 0
4.7296e-15 -0.00142358 0
7.21602e-15 -0.00157771 0
-1.49238e-14 -0.00157771 0
4.7296e-15 -0.00142358 0
-4.77844e-15 -0.00142358 0
7.77291e-15 -0.00142358 0
4.7296e-15 -0.00142358 0
-3.7875e-15 -0.00127471 0
1.99316e-16 -0.00127471 0
4.7296e-15 -0.00142358 0
-4.77844e-15 -0.00142358 0
1.99316e-16 -0.00127471 0
1.23752e-15 -0.00127471 0
-1.49238e-14 -0.00157771 0
-1.0473e-14 -0.00157771 0
-4.77844e-15 -0.00142358 0
-5.28931e-15 -0.00142358 0
-1.0473e-14 -0.00157771 0
1.6426e-14 -0.00157771 0
-5.28931e-15 -0.00142358 0
5.86646e-15 -0.00142358 0
-4.77844e-15 -0.00142358 0
-5.28931e-15 -0.00142358 0
1.23752e-15 -0.00127471 0
3.78635e-15 -0.00127471 0
-5.28931e-15 -0.00142358 0
5.86646e-15 -0.00142358 0
3.78635e-15 -0.00127471 0
1.09176e-14 -0.00127471 0
0 0 0
0 0 0
-5.63029e-15 -0.00232216 0
-1.28053e-14 -0.00232216 0
0 0 0
0 0 0
-1.28053e-14 -0.00232216 0
5.15111e-15 -0.00232216 0
-5.63029e-15 -0.00232216 0
-1.28053e-14 -0.00232216 0
-3.44036e-15 -0.0021728 0
6.20416e-15 -0.0021728 0
-1.28053e-14 -0.00232216 0
5.15111e-15 -0.00232216 0
6.20416e-15 -0.0021728 0
9.59328e-15 -0.0021728 0
0 0 0
0 0 0
5.15111e-15 -0.00232216 0
1.12157e-14 -0.00232216 0
0 0 0
0 0 0
1.12157e-14 -0.00232216 0
2.25773e-16 -0.00232216 0
5.15111e-15 -0.00232216 0
1.12157e-14 -0.00232216 0
9.59328e-15 -0.0021728 0
-1.96918e-14 -0.0021728 0
1.12157e-14 -0.00232216 0
2.25773e-16 -0.00232216 0
-1.96918e-14 -0.0021728 0
-1.33244e-14 -0.0021728 0
-3.44036e-15 -0.0021728 0
6.20416e-15 -0.0021728 0
4.4502e-15 -0.00208177 0
-4.14159e-15 -0.00208177 0
6.20416e-15 -0.0021728 0
9.59328e-15 -0.0021728 0
-4.14159e-15 -0.00208177 0
-3.26579e-15 -0.00208177 0
4.4502e-15 -0.00208177 0
-4.14159e-15 -0.00208177 0
1.2754e-14 -0.00189766 0
-1.17251e-14 -0.00189766 0
-4.14159e-15 -0.00208177 0
-3.26579e-15 -0.00208177 0
-1.17251e-14 -0.00189766 0
8.59662e-15 -0.00189766 0
9.59328e-15 -0.0021728 0
-1.96918e-14 -0.0021728 0
-3.26579e-15 -0.00208177 0
1.4758e-14 -0.00208177 0
-1.96918e-14 -0.0021728 0
-1.33244e-14 -0.0021728 0
1.4758e-14 -0.00208177 0
-1.31291e-14 -0.00208177 0
-3.26579e-15 -0.00208177 0
1.4758e-14 -0.00208177 0
8.59662e-15 -0.00189766 0
-7.78707e-15 -0.00189766 0
1.4758e-14 -0.00208177 0
-1.31291e-14 -0.00208177 0
-7.78707e-15 -0.00189766 0
1.01334e-15 -0.00189766 0
0 0 0
0 0 0
2.25773e-16 -0.00232216 0
4.65644e-15 -0.00232216 0
0 0 0
0 0 0
4.65644e-15 -0.00232216 0
1.15908e-15 -0.00232216 0
2.25773e-16 -0.00232216 0
4.65644e-15 -0.00232216 0
-1.33244e-14 -0.0021728 0
7.03881e-15 -0.0021728 0
4.65644e-15 -0.00232216 0
1.15908e-15 -0.00232216 0
7.03881e-15 -0.0021728 0
-8.9372e-15 -0.0021728 0
0 0 0
0 0 0
1.15908e-15 -0.00232216 0
-1.61852e-15 -0.00232216 0
0 0 0
0 0 0
-1.61852e-15 -0.00232216 0
2.09274e-14 -0.00232216 0
1.15908e-15 -0.00232216 0
-1.61852e-15 -0.00232216 0
-8.9372e-15 -0.0021728 0
9.70233e-16 -0.0021728 0
-1.61852e-15 -0.00232216 0
2.09274e-14 -0.00232216 0
9.70233e-16 -0.0021728 0
-8.59756e-15 -0.0021728 0
-1.33244e-14 -0.0021728 0
7.03881e-15 -0.0021728 0
-1.31291e-14 -0.00208177 0
-1.58494e-14 -0.00208177 0
7.03881e-15 -0.0021728 0
-8.9372e-15 -0.0021728 0
-1.58494e-14 -0.00208177 0
-1.79716e-15 -0.00208177 0
-1.31291e-14 -0.00208177 0
-1.58494e-14 -0.00208177 0
1.01334e-15 -0.00189766 0
-7.74204e-15 -0.00189766 0
-1.58494e-14 -0.00208177 0
-1.79716e-15 -0.00208177 0
-7.74204e-15 -0.00189766 0
7.84381e-15 -0.00189766 0
-8.9372e-15 -0.0021728 0
9.70233e-16 -0.0021728 0
-1.79716e-15 -0.00208177 0
-1.20755e-14 -0.00208177 0
9.70233e-16 -0.0021728 0
-8.59756e-15 -0.0021728 0
-1.20755e-14 -0.00208177 0
7.90028e-15 -0.00208177 0
-1.79716e-15 -0.00208177 0
-1.20755e-14 -0.00208177 0
7.84381e-15 -0.00189766 0
-1.06646e-14 -0.00189766 0
-1.20755e-14 -0.00208177 0
7.90028e-15 -0.00208177 0
-1.06646e-14 -0.00189766 0
-1.61434e-14 -0.00189766 0
1.2754e-14 -0.00189766 0
-1.17251e-14 -0.00189766 0
2.00884e-15 -0.00173935 0
-1.45849e-15 -0.00173935 0
-1.17251e-14 -0.00189766 0
8.59662e-15 -0.00189766 0
-1.45849e-15 -0.00173935 0
-1.08678e-14 -0.00173935 0
2.00884e-15 -0.00173935 0
-1.45849e-15 -0.00173935 0
1.6426e-14 -0.00157771 0
-1.75287e-14 -0.00157771 0
-1.45849e-15 -0.00173935 0
-1.08678e-14 -0.00173935 0
-1.75287e-14 -0.00157771 0
1.12027e-15 -0.00157771 0
8.59662e-15 -0.00189766 0
-7.78707e-15 -0.00189766 0
-1.08678e-14 -0.00173935 0
-1.00076e-14 -0.00173935 0
-7.78707e-15 -0.00189766 0
1.01334e-15 -0.00189766 0
-1.00076e-14 -0.00173935 0
-1.8721e-15 -0.00173935 0
-1.08678e-14 -0.00173935 0
-1.00076e-14 -0.00173935 0
1.12027e-15 -0.00157771 0
7.82773e-15 -0.00157771 0
-1.00076e-14 -0.00173935 0
-1.8721e-15 -0.00173935 0
7.82773e-15 -0.00157771 0
2.60895e-15 -0.00157771 0
1.6426e-14 -0.00157771 0
-1.75287e-14 -0.00157771 0
5.86646e-15 -0.00142358 0
-1.12048e-15 -0.00142358 0
-1.75287e-14 -0.00157771 0
1.12027e-15 -0.00157771 0
-1.12048e-15 -0.00142358 0
-4.60277e-16 -0.00142358 0
5.86646e-15 -0.00142358 0
-1.12048e-15 -0.00142358 0
1.09176e-14 -0.00127471 0
-2.07846e-15 -0.00127471 0
-1.12048e-15 -0.00142358 0
-4.60277e-16 -0.00142358 0
-2.07846e-15 -0.00127471 0
2.21505e-14 -0.00127471 0
1.12027e-15 -0.00157771 0
7.82773e-15 -0.00157771 0
-4.60277e-16 -0.00142358 0
-1.78717e-14 -0.00142358 0
7.82773e-15 -0.00157771 0
2.60895e-15 -0.00157771 0
-1.78717e-14 -0.00142358 0
1.52805e-14 -0.00142358 0
-4.60277e-16 -0.00142358 0
-1.78717e-14 -0.00142358 0
2.21505e-14 -0.00127471 0
2.58485e-16 -0.00127471 0
-1.78717e-14 -0.00142358 0
1.52805e-14 -0.00142358 0
2.58485e-16 -0.00127471 0
5.16781e-15 -0.00127471 0
1.01334e-15 -0.00189766 0
-7.74204e-15 -0.00189766 0
-1.8721e-15 -0.00173935 0
-6.47683e-15 -0.00173935 0
-7.74204e-15 -0.00189766 0
7.84381e-15 -0.00189766 0
-6.47683e-15 -0.00173935 0
-1.24122e-14 -0.00173935 0
-1.8721e-15 -0.00173935 0
-6.47683e-15 -0.00173935 0
2.60895e-15 -0.00157771 0
-1.28437e-14 -0.00157771 0
-6.47683e-15 -0.00173935 0
-1.24122e-14 -0.00173935 0
-1.28437e-14 -0.00157771 0
-5.37714e-16 -0.00157771 0
7.84381e-15 -0.00189766 0
-1.06646e-14 -0.00189766 0
-1.24122e-14 -0.00173935 0
-7.60874e-15 -0.00173935 0
-1.06646e-14 -0.00189766 0
-1.61434e-14 -0.00189766 0
-7.60874e-15 -0.00173935 0
-3.24264e-15 -0.00173935 0
-1.24122e-14 -0.00173935 0
-7.60874e-15 -0.00173935 0
-5.37714e-16 -0.00157771 0
-7.248e-15 -0.00157771 0
-7.60874e-15 -0.00173935 0
-3.24264e-15 -0.00173935 0
-7.248e-15 -0.00157771 0
-1.12761e-14 -0.00157771 0
2.60895e-15 -0.00157771 0
-1.28437e-14 -0.00157771 0
1.52805e-14 -0.00142358 0
9.00436e-15 -0.00142358 0
-1.28437e-14 -0.00157771 0
-5.37714e-16 -0.00157771 0
9.00436e-15 -0.00142358 0
-2.7238e-15 -0.00142358 0
1.52805e-14 -0.00142358 0
9.00436e-15 -0.00142358 0
5.16781e-15 -0.00127471 0
2.77399e-15 -0.00127471 0
9.00436e-15 -0.00142358 0
-2.7238e-15 -0.00142358 0
2.77399e-15 -0.00127471 0
-2.8266e-15 -0.00127471 0
-5.37714e-16 -0.00157771 0
-7.248e-15 -0.00157771 0
-2.7238e-15 -0.00142358 0
1.18962e-14 -0.00142358 0
-7.248e-15 -0.00157771 0
-1.12761e-14 -0.00157771 0
1.18962e-14 -0.00142358 0
5.98881e-16 -0.00142358 0
-2.7238e-15 -0.00142358 0
1.18962e-14 -0.00142358 0
-2.8266e-15 -0.00127471 0
1.20398e-14 -0.00127471 0
1.18962e-14 -0.00142358 0
5.98881e-16 -0.00142358 0
1.20398e-14 -0.00127471 0
-6.22191e-15 -0.00127471 0
0 -0.00127471 0
8.0259e-15 -0.00127471 0
0 -0.00113273 0
-4.10242e-15 -0.00113273 0
8.0259e-15 -0.00127471 0
7.81831e-15 -0.00127471 0
-4.10242e-15 -0.00113273 0
-1.23429e-14 -0.00113273 0
0 -0.00113273 0
-4.10242e-15 -0.00113273 0
0 -0.000997193 0
4.1181e-16 -0.000997193 0
-4.10242e-15 -0.00113273 0
-1.23429e-14 -0.00113273 0
4.1181e-16 -0.000997193 0
-6.12023e-15 -0.000997193 0
7.81831e-15 -0.00127471 0
3.35171e-15 -0.00127471 0
-1.23429e-14 -0.00113273 0
1.79026e-15 -0.00113273 0
3.35171e-15 -0.00127471 0
-3.7875e-15 -0.00127471 0
1.79026e-15 -0.00113273 0
-8.57801e-15 -0.00113273 0
-1.23429e-14 -0.00113273 0
1.79026e-15 -0.00113273 0
-6.12023e-15 -0.000997193 0
-1.76888e-14 -0.000997193 0
1.79026e-15 -0.00113273 0
-8.57801e-15 -0.00113273 0
-1.76888e-14 -0.000997193 0
-1.57492e-14 -0.000997193 0
0 -0.000997193 0
4.1181e-16 -0.000997193 0
0 -0.000866057 0
-8.40258e-15 -0.000866057 0
4.1181e-16 -0.000997193 0
-6.12023e-15 -0.000997193 0
-8.40258e-15 -0.000866057 0
-6.82843e-15 -0.000866057 0
0 -0.000866057 0
-8.40258e-15 -0.000866057 0
0 -0.000734357 0
4.20666e-15 -0.000734357 0
-8.40258e-15 -0.000866057 0
-6.82843e-15 -0.000866057 0
4.20666e-15 -0.000734357 0
4.78625e-15 -0.000734357 0
-6.12023e-15 -0.000997193 0
-1.76888e-14 -0.000997193 0
-6.82843e-15 -0.000866057 0
5.79992e-15 -0.000866057 0
-1.76888e-14 -0.000997193 0
-1.57492e-14 -0.000997193 0
5.79992e-15 -0.000866057 0
-4.8863e-15 -0.000866057 0
-6.82843e-15 -0.000866057 0
5.79992e-15 -0.000866057 0
4.78625e-15 -0.000734357 0
-5.8855e-15 -0.000734357 0
5.79992e-15 -0.000866057 0
-4.8863e-15 -0.000866057 0
-5.8855e-15 -0.000734357 0
8.4514e-16 -0.000734357 0
-3.7875e-15 -0.00127471 0
1.99316e-16 -0.00127471 0
-8.57801e-15 -0.00113273 0
6.64973e-15 -0.00113273 0
1.99316e-16 -0.00127471 0
1.23752e-15 -0.00127471 0
6.64973e-15 -0.00113273 0
-2.4338e-15 -0.00113273 0
-8.57801e-15 -0.00113273 0
6.64973e-15 -0.00113273 0
-1.57492e-14 -0.000997193 0
-1.19576e-14 -0.000997193 0
6.64973e-15 -0.00113273 0
-2.4338e-15 -0.00113273 0
-1.19576e-14 -0.000997193 0
-9.57539e-15 -0.000997193 0
1.23752e-15 -0.00127471 0
3.78635e-15 -0.00127471 0
-2.4338e-15 -0.00113273 0
-9.91921e-15 -0.00113273 0
3.78635e-15 -0.00127471 0
1.09176e-14 -0.00127471 0
-9.91921e-15 -0.00113273 0
4.09895e-16 -0.00113273 0
-2.4338e-15 -0.00113273 0
-9.91921e-15 -0.00113273 0
-9.57539e-15 -0.000997193 0
-1.64189e-14 -0.000997193 0
-9.91921e-15 -0.00113273 0
4.09895e-16 -0.00113273 0
-1.64189e-14 -0.000997193 0
-9.86658e-15 -0.000997193 0
-1.57492e-14 -0.000997193 0
-1.19576e-14 -0.000997193 0
-4.8863e-15 -0.000866057 0
-4.87073e-15 -0.000866057 0
-1.19576e-14 -0.000997193 0
-9.57539e-15 -0.000997193 0
-4.87073e-15 -0.000866057 0
2.62012e-15 -0.000866057 0
-4.8863e-15 -0.000866057 0
-4.87073e-15 -0.000866057 0
8.4514e-16 -0.000734357 0
-2.27357e-16 -0.000734357 0
-4.87073e-15 -0.000866057 0
2.62012e-15 -0.000866057 0
-2.27357e-16 -0.000734357 0
4.76368e-15 -0.000734357 0
-9.57539e-15 -0.000997193 0
-1.64189e-14 -0.000997193 0
2.62012e-15 -0.000866057 0
-1.19276e-14 -0.000866057 0
-1.64189e-14 -0.000997193 0
-9.86658e-15 -0.000997193 0
-1.19276e-14 -0.000866057 0
-4.78251e-15 -0.000866057 0
2.62012e-15 -0.000866057 0
-1.19276e-14 -0.000866057 0
4.76368e-15 -0.000734357 0
-7.68184e-15 -0.000734357 0
-1.19276e-14 -0.000866057 0
-4.78251e-15 -0.000866057 0
-7.68184e-15 -0.000734357 0
-3.11852e-15 -0.000734357 0
0 -0.000734357 0
4.20666e-15 -0.000734357 0
0 -0.000591044 0
8.73504e-16 -0.000591044 0
4.20666e-15 -0.000734357 0
4.78625e-15 -0.000734357 0
8.73504e-16 -0.000591044 0
-2.88661e-15 -0.000591044 0
0 -0.000591044 0
8.73504e-16 -0.000591044 0
0 -0.000427701 0
5.51971e-16 -0.000427701 0
8.73504e-16 -0.000591044 0
-2.88661e-15 -0.000591044 0
5.51971e-16 -0.000427701 0
5.6814e-15 -0.000427701 0
4.78625e-15 -0.000734357 0
-5.8855e-15 -0.000734357 0
-2.88661e-15 -0.000591044 0
-6.02654e-16 -0.000591044 0
-5.8855e-15 -0.000734357 0
8.4514e-16 -0.000734357 0
-6.02654e-16 -0.000591044 0
3.46667e-15 -0.000591044 0
-2.88661e-15 -0.000591044 0
-6.02654e-16 -0.000591044 0
5.6814e-15 -0.000427701 0
-7.09404e-16 -0.000427701 0
-6.02654e-16 -0.000591044 0
3.46667e-15 -0.000591044 0
-7.09404e-16 -0.000427701 0
-2.59012e-15 -0.000427701 0
0 -0.000427701 0
5.51971e-16 -0.000427701 0
0 -0.000240483 0
-1.9535e-15 -0.000240483 0
5.51971e-16 -0.000427701 0
5.6814e-15 -0.000427701 0
-1.9535e-15 -0.000240483 0
-1.17147e-16 -0.000240483 0
0 -0.000240483 0
-1.9535e-15 -0.000240483 0
0 -0.000119433 0
-9.93452e-16 -0.000119433 0
-1.9535e-15 -0.000240483 0
-1.17147e-16 -0.000240483 0
-9.93452e-16 -0.000119433 0
-2.62945e-15 -0.000119433 0
5.6814e-15 -0.000427701 0
-7.09404e-16 -0.000427701 0
-1.17147e-16 -0.000240483 0
-5.64929e-16 -0.000240483 0
-7.09404e-16 -0.000427701 0
-2.59012e-15 -0.000427701 0
-5.64929e-16 -0.000240483 0
-6.92527e-15 -0.000240483 0
-1.17147e-16 -0.000240483 0
-5.64929e-16 -0.000240483 0
-2.62945e-15 -0.000119433 0
-3.23569e-15 -0.000119433 0
-5.64929e-16 -0.000240483 0
-6.92527e-15 -0.000240483 0
-3.23569e-15 -0.000119433 0
-2.93184e-15 -0.000119433 0
8.4514e-16 -0.000734357 0
-2.27357e-16 -0.000734357 0
3.46667e-15 -0.000591044 0
2.32739e-15 -0.000591044 0
-2.27357e-16 -0.000734357 0
4.76368e-15 -0.000734357 0
2.32739e-15 -0.000591044 0
5.28539e-16 -0.000591044 0
3.46667e-15 -0.000591044 0
2.32739e-15 -0.000591044 0
-2.59012e-15 -0.000427701 0
4.6657e-15 -0.000427701 0
2.32739e-15 -0.000591044 0
5.28539e-16 -0.000591044 0
4.6657e-15 -0.000427701 0
8.26453e-15 -0.000427701 0
4.76368e-15 -0.000734357 0
-7.68184e-15 -0.000734357 0
5.28539e-16 -0.000591044 0
1.0908e-15 -0.000591044 0
-7.68184e-15 -0.000734357 0
-3.11852e-15 -0.000734357 0
1.0908e-15 -0.000591044 0
-2.80301e-15 -0.000591044 0
5.28539e-16 -0.000591044 0
1.0908e-15 -0.000591044 0
8.26453e-15 -0.000427701 0
3.22811e-15 -0.000427701 0
1.0908e-15 -0.000591044 0
-2.80301e-15 -0.000591044 0
3.22811e-15 -0.000427701 0
-1.97393e-16 -0.000427701 0
-2.59012e-15 -0.000427701 0
4.6657e-15 -0.000427701 0
-6.92527e-15 -0.000240483 0
3.26384e-15 -0.000240483 0
4.6657e-15 -0.000427701 0
8.26453e-15 -0.000427701 0
3.26384e-15 -0.000240483 0
-1.71984e-15 -0.000240483 0
-6.92527e-15 -0.000240483 0
3.26384e-15 -0.000240483 0
-2.93184e-15 -0.000119433 0
-1.21958e-15 -0.000119433 0
3.26384e-15 -0.000240483 0
-1.71984e-15 -0.000240483 0
-1.21958e-15 -0.000119433 0
-2.65063e-15 -0.000119433 0
8.26453e-15 -0.000427701 0
3.22811e-15 -0.000427701 0
-1.71984e-15 -0.000240483 0
1.52602e-15 -0.000240483 0
3.22811e-15 -0.000427701 0
-1.97393e-16 -0.000427701 0
1.52602e-15 -0.000240483 0
-1.63374e-15 -0.000240483 0
-1.71984e-15 -0.000240483 0
1.52602e-15 -0.000240483 0
-2.65063e-15 -0.000119433 0
-5.31411e-15 -0.000119433 0
1.52602e-15 -0.000240483 0
-1.63374e-15 -0.000240483 0
-5.31411e-15 -0.000119433 0
-4.66428e-15 -0.000119433 0
1.09176e-14 -0.00127471 0
-2.07846e-15 -0.00127471 0
4.09895e-16 -0.00113273 0
1.80753e-15 -0.00113273 0
-2.07846e-15 -0.00127471 0
2.21505e-14 -0.00127471 0
1.80753e-15 -0.00113273 0
-4.41624e-15 -0.00113273 0
4.09895e-16 -0.00113273 0
1.80753e-15 -0.00113273 0
-9.86658e-15 -0.000997193 0
-6.15903e-15 -0.000997193 0
1.80753e-15 -0.00113273 0
-4.41624e-15 -0.00113273 0
-6.15903e-15 -0.000997193 0
-1.42733e-14 -0.000997193 0
2.21505e-14 -0.00127471 0
2.58485e-16 -0.00127471 0
-4.41624e-15 -0.00113273 0