# vtk DataFile Version 3.0
#This file was generated by the deal.II library on 2018/10/12 at 1:23:50
ASCII
DATASET UNSTRUCTURED_GRID

POINTS 5120 double
0 0 0
0.392699 0 0
0 0.595247 0
0.392699 0.595247 0
0.392699 0 0
0.785398 0 0
0.392699 0.595247 0
0.785398 0.595247 0
0 0.595247 0
0.392699 0.595247 0
0 1.22238 0
0.392699 1.22238 0
0.392699 0.595247 0
0.785398 0.595247 0
0.392699 1.22238 0
0.785398 1.22238 0
0.785398 0 0
1.1781 0 0
0.785398 0.595247 0
1.1781 0.595247 0
1.1781 0 0
1.5708 0 0
1.1781 0.595247 0
1.5708 0.595247 0
0.785398 0.595247 0
1.1781 0.595247 0
0.785398 1.22238 0
1.1781 1.22238 0
1.1781 0.595247 0
1.5708 0.595247 0
1.1781 1.22238 0
1.5708 1.22238 0
0 1.22238 0
0.392699 1.22238 0
0 1.84847 0
0.392699 1.84847 0
0.392699 1.22238 0
0.785398 1.22238 0
0.392699 1.84847 0
0.785398 1.84847 0
0 1.84847 0
0.392699 1.84847 0
0 2.47566 0
0.392699 2.47566 0
0.392699 1.84847 0
0.785398 1.84847 0
0.392699 2.47566 0
0.785398 2.47566 0
0.785398 1.22238 0
1.1781 1.22238 0
0.785398 1.84847 0
1.1781 1.84847 0
1.1781 1.22238 0
1.5708 1.22238 0
1.1781 1.84847 0
1.5708 1.84847 0
0.785398 1.84847 0
1.1781 1.84847 0
0.785398 2.47566 0
1.1781 2.47566 0
1.1781 1.84847 0
1.5708 1.84847 0
1.1781 2.47566 0
1.5708 2.47566 0
1.5708 0 0
1.9635 0 0
1.5708 0.595247 0
1.9635 0.595247 0
1.9635 0 0
2.35619 0 0
1.9635 0.595247 0
2.35619 0.595247 0
1.5708 0.595247 0
1.9635 0.595247 0
1.5708 1.22238 0
1.9635 1.22238 0
1.9635 0.595247 0
2.35619 0.595247 0
1.9635 1.22238 0
2.35619 1.22238 0
2.35619 0 0
2.74889 0 0
2.35619 0.595247 0
2.74889 0.595247 0
2.74889 0 0
3.14159 0 0
2.74889 0.595247 0
3.14159 0.595247 0
2.35619 0.595247 0
2.74889 0.595247 0
2.35619 1.22238 0
2.74889 1.22238 0
2.74889 0.595247 0
3.14159 0.595247 0
2.74889 1.22238 0
3.14159 1.22238 0
1.5708 1.22238 0
1.9635 1.22238 0
1.5708 1.84847 0
1.9635 1.84847 0
1.9635 1.22238 0
2.35619 1.22238 0
1.9635 1.84847 0
2.35619 1.84847 0
1.5708 1.84847 0
1.9635 1.84847 0
1.5708 2.47566 0
1.9635 2.47566 0
1.9635 1.84847 0
2.35619 1.84847 0
1.9635 2.47566 0
2.35619 2.47566 0
2.35619 1.22238 0
2.74889 1.22238 0
2.35619 1.84847 0
2.74889 1.84847 0
2.74889 1.22238 0
3.14159 1.22238 0
2.74889 1.84847 0
3.14159 1.84847 0
2.35619 1.84847 0
2.74889 1.84847 0
2.35619 2.47566 0
2.74889 2.47566 0
2.74889 1.84847 0
3.14159 1.84847 0
2.74889 2.47566 0
3.14159 2.47566 0
0 2.47566 0
0.392699 2.47566 0
0 3.10255 0
0.392699 3.10255 0
0.392699 2.47566 0
0.785398 2.47566 0
0.392699 3.10255 0
0.785398 3.10255 0
0 3.10255 0
0.392699 3.10255 0
0 3.72947 0
0.392699 3.72947 0
0.392699 3.10255 0
0.785398 3.10255 0
0.392699 3.72947 0
0.785398 3.72947 0
0.785398 2.47566 0
1.1781 2.47566 0
0.785398 3.10255 0
1.1781 3.10255 0
1.1781 2.47566 0
1.5708 2.47566 0
1.1781 3.10255 0
1.5708 3.10255 0
0.785398 3.10255 0
1.1781 3.10255 0
0.785398 3.72947 0
1.1781 3.72947 0
1.1781 3.10255 0
1.5708 3.10255 0
1.1781 3.72947 0
1.5708 3.72947 0
0 3.72947 0
0.392699 3.72947 0
0 4.35629 0
0.392699 4.35629 0
0.392699 3.72947 0
0.785398 3.72947 0
0.392699 4.35629 0
0.785398 4.35629 0
0 4.35629 0
0.392699 4.35629 0
0 4.98304 0
0.392699 4.98304 0
0.392699 4.35629 0
0.785398 4.35629 0
0.392699 4.98304 0
0.785398 4.98304 0
0.785398 3.72947 0
1.1781 3.72947 0
0.785398 4.35629 0
1.1781 4.35629 0
1.1781 3.72947 0
1.5708 3.72947 0
1.1781 4.35629 0
1.5708 4.35629 0
0.785398 4.35629 0
1.1781 4.35629 0
0.785398 4.98304 0
1.1781 4.98304 0
1.1781 4.35629 0
1.5708 4.35629 0
1.1781 4.98304 0
1.5708 4.98304 0
1.5708 2.47566 0
1.9635 2.47566 0
1.5708 3.10255 0
1.9635 3.10255 0
1.9635 2.47566 0
2.35619 2.47566 0
1.9635 3.10255 0
2.35619 3.10255 0
1.5708 3.10255 0
1.9635 3.10255 0
1.5708 3.72947 0
1.9635 3.72947 0
1.9635 3.10255 0
2.35619 3.10255 0
1.9635 3.72947 0
2.35619 3.72947 0
2.35619 2.47566 0
2.74889 2.47566 0
2.35619 3.10255 0
2.74889 3.10255 0
2.74889 2.47566 0
3.14159 2.47566 0
2.74889 3.10255 0
3.14159 3.10255 0
2.35619 3.10255 0
2.74889 3.10255 0
2.35619 3.72947 0
2.74889 3.72947 0
2.74889 3.10255 0
3.14159 3.10255 0
2.74889 3.72947 0
3.14159 3.72947 0
1.5708 3.72947 0
1.9635 3.72947 0
1.5708 4.35629 0
1.9635 4.35629 0
1.9635 3.72947 0
2.35619 3.72947 0
1.9635 4.35629 0
2.35619 4.35629 0
1.5708 4.35629 0
1.9635 4.35629 0
1.5708 4.98304 0
1.9635 4.98304 0
1.9635 4.35629 0
2.35619 4.35629 0
1.9635 4.98304 0
2.35619 4.98304 0
2.35619 3.72947 0
2.74889 3.72947 0
2.35619 4.35629 0
2.74889 4.35629 0
2.74889 3.72947 0
3.14159 3.72947 0
2.74889 4.35629 0
3.14159 4.35629 0
2.35619 4.35629 0
2.74889 4.35629 0
2.35619 4.98304 0
2.74889 4.98304 0
2.74889 4.35629 0
3.14159 4.35629 0
2.74889 4.98304 0
3.14159 4.98304 0
3.14159 0 0
3.53429 0 0
3.14159 0.595247 0
3.53429 0.595247 0
3.53429 0 0
3.92699 0 0
3.53429 0.595247 0
3.92699 0.595247 0
3.14159 0.595247 0
3.53429 0.595247 0
3.14159 1.22238 0
3.53429 1.22238 0
3.53429 0.595247 0
3.92699 0.595247 0
3.53429 1.22238 0
3.92699 1.22238 0
3.92699 0 0
4.31969 0 0
3.92699 0.595247 0
4.31969 0.595247 0
4.31969 0 0
4.71239 0 0
4.31969 0.595247 0
4.71239 0.595247 0
3.92699 0.595247 0
4.31969 0.595247 0
3.92699 1.22238 0
4.31969 1.22238 0
4.31969 0.595247 0
4.71239 0.595247 0
4.31969 1.22238 0
4.71239 1.22238 0
3.14159 1.22238 0
3.53429 1.22238 0
3.14159 1.84847 0
3.53429 1.84847 0
3.53429 1.22238 0
3.92699 1.22238 0
3.53429 1.84847 0
3.92699 1.84847 0
3.14159 1.84847 0
3.53429 1.84847 0
3.14159 2.47566 0
3.53429 2.47566 0
3.53429 1.84847 0
3.92699 1.84847 0
3.53429 2.47566 0
3.92699 2.47566 0
3.92699 1.22238 0
4.31969 1.22238 0
3.92699 1.84847 0
4.31969 1.84847 0
4.31969 1.22238 0
4.71239 1.22238 0
4.31969 1.84847 0
4.71239 1.84847 0
3.92699 1.84847 0
4.31969 1.84847 0
3.92699 2.47566 0
4.31969 2.47566 0
4.31969 1.84847 0
4.71239 1.84847 0
4.31969 2.47566 0
4.71239 2.47566 0
4.71239 0 0
5.10509 0 0
4.71239 0.595247 0
5.10509 0.595247 0
5.10509 0 0
5.49779 0 0
5.10509 0.595247 0
5.49779 0.595247 0
4.71239 0.595247 0
5.10509 0.595247 0
4.71239 1.22238 0
5.10509 1.22238 0
5.10509 0.595247 0
5.49779 0.595247 0
5.10509 1.22238 0
5.49779 1.22238 0
5.49779 0 0
5.89049 0 0
5.49779 0.595247 0
5.89049 0.595247 0
5.89049 0 0
6.28319 0 0
5.89049 0.595247 0
6.28319 0.595247 0
5.49779 0.595247 0
5.89049 0.595247 0
5.49779 1.22238 0
5.89049 1.22238 0
5.89049 0.595247 0
6.28319 0.595247 0
5.89049 1.22238 0
6.28319 1.22238 0
4.71239 1.22238 0
5.10509 1.22238 0
4.71239 1.84847 0
5.10509 1.84847 0
5.10509 1.22238 0
5.49779 1.22238 0
5.10509 1.84847 0
5.49779 1.84847 0
4.71239 1.84847 0
5.10509 1.84847 0
4.71239 2.47566 0
5.10509 2.47566 0
5.10509 1.84847 0
5.49779 1.84847 0
5.10509 2.47566 0
5.49779 2.47566 0
5.49779 1.22238 0
5.89049 1.22238 0
5.49779 1.84847 0
5.89049 1.84847 0
5.89049 1.22238 0
6.28319 1.22238 0
5.89049 1.84847 0
6.28319 1.84847 0
5.49779 1.84847 0
5.89049 1.84847 0
5.49779 2.47566 0
5.89049 2.47566 0
5.89049 1.84847 0
6.28319 1.84847 0
5.89049 2.47566 0
6.28319 2.47566 0
3.14159 2.47566 0
3.53429 2.47566 0
3.14159 3.10255 0
3.53429 3.10255 0
3.53429 2.47566 0
3.92699 2.47566 0
3.53429 3.10255 0
3.92699 3.10255 0
3.14159 3.10255 0
3.53429 3.10255 0
3.14159 3.72947 0
3.53429 3.72947 0
3.53429 3.10255 0
3.92699 3.10255 0
3.53429 3.72947 0
3.92699 3.72947 0
3.92699 2.47566 0
4.31969 2.47566 0
3.92699 3.10255 0
4.31969 3.10255 0
4.31969 2.47566 0
4.71239 2.47566 0
4.31969 3.10255 0
4.71239 3.10255 0
3.92699 3.10255 0
4.31969 3.10255 0
3.92699 3.72947 0
4.31969 3.72947 0
4.31969 3.10255 0
4.71239 3.10255 0
4.31969 3.72947 0
4.71239 3.72947 0
3.14159 3.72947 0
3.53429 3.72947 0
3.14159 4.35629 0
3.53429 4.35629 0
3.53429 3.72947 0
3.92699 3.72947 0
3.53429 4.35629 0
3.92699 4.35629 0
3.14159 4.35629 0
3.53429 4.35629 0
3.14159 4.98304 0
3.53429 4.98304 0
3.53429 4.35629 0
3.92699 4.35629 0
3.53429 4.98304 0
3.92699 4.98304 0
3.92699 3.72947 0
4.31969 3.72947 0
3.92699 4.35629 0
4.31969 4.35629 0
4.31969 3.72947 0
4.71239 3.72947 0
4.31969 4.35629 0
4.71239 4.35629 0
3.92699 4.35629 0
4.31969 4.35629 0
3.92699 4.98304 0
4.31969 4.98304 0
4.31969 4.35629 0
4.71239 4.35629 0
4.31969 4.98304 0
4.71239 4.98304 0
4.71239 2.47566 0
5.10509 2.47566 0
4.71239 3.10255 0
5.10509 3.10255 0
5.10509 2.47566 0
5.49779 2.47566 0
5.10509 3.10255 0
5.49779 3.10255 0
4.71239 3.10255 0
5.10509 3.10255 0
4.71239 3.72947 0
5.10509 3.72947 0
5.10509 3.10255 0
5.49779 3.10255 0
5.10509 3.72947 0
5.49779 3.72947 0
5.49779 2.47566 0
5.89049 2.47566 0
5.49779 3.10255 0
5.89049 3.10255 0
5.89049 2.47566 0
6.28319 2.47566 0
5.89049 3.10255 0
6.28319 3.10255 0
5.49779 3.10255 0
5.89049 3.10255 0
5.49779 3.72947 0
5.89049 3.72947 0
5.89049 3.10255 0
6.28319 3.10255 0
5.89049 3.72947 0
6.28319 3.72947 0
4.71239 3.72947 0
5.10509 3.72947 0
4.71239 4.35629 0
5.10509 4.35629 0
5.10509 3.72947 0
5.49779 3.72947 0
5.10509 4.35629 0
5.49779 4.35629 0
4.71239 4.35629 0
5.10509 4.35629 0
4.71239 4.98304 0
5.10509 4.98304 0
5.10509 4.35629 0
5.49779 4.35629 0
5.10509 4.98304 0
5.49779 4.98304 0
5.49779 3.72947 0
5.89049 3.72947 0
5.49779 4.35629 0
5.89049 4.35629 0
5.89049 3.72947 0
6.28319 3.72947 0
5.89049 4.35629 0
6.28319 4.35629 0
5.49779 4.35629 0
5.89049 4.35629 0
5.49779 4.98304 0
5.89049 4.98304 0
5.89049 4.35629 0
6.28319 4.35629 0
5.89049 4.98304 0
6.28319 4.98304 0
0 4.98304 0
0.392699 4.98304 0
0 5.60969 0
0.392699 5.60969 0
0.392699 4.98304 0
0.785398 4.98304 0
0.392699 5.60969 0
0.785398 5.60969 0
0 5.60969 0
0.392699 5.60969 0
0 6.23626 0
0.392699 6.23626 0
0.392699 5.60969 0
0.785398 5.60969 0
0.392699 6.23626 0
0.785398 6.23626 0
0.785398 4.98304 0
1.1781 4.98304 0
0.785398 5.60969 0
1.1781 5.60969 0
1.1781 4.98304 0
1.5708 4.98304 0
1.1781 5.60969 0
1.5708 5.60969 0
0.785398 5.60969 0
1.1781 5.60969 0
0.785398 6.23626 0
1.1781 6.23626 0
1.1781 5.60969 0
1.5708 5.60969 0
1.1781 6.23626 0
1.5708 6.23626 0
0 6.23626 0
0.392699 6.23626 0
0 6.86276 0
0.392699 6.86276 0
0.392699 6.23626 0
0.785398 6.23626 0
0.392699 6.86276 0
0.785398 6.86276 0
0 6.86276 0
0.392699 6.86276 0
0 7.48927 0
0.392699 7.48927 0
0.392699 6.86276 0
0.785398 6.86276 0
0.392699 7.48927 0
0.785398 7.48927 0
0.785398 6.23626 0
1.1781 6.23626 0
0.785398 6.86276 0
[...]
POINT_DATA 5120
VECTORS uf double
0 1 0
-1.46655e-13 1 0
0 1.00253 0
-1.46344e-13 1.00253 0
-1.46655e-13 1 0
1.09997e-15 1 0
-1.46344e-13 1.00253 0
6.3233e-15 1.00253 0
0 1.00253 0
1.21014e-13 1.00253 0
0 1.00383 0
1.11919e-13 1.00383 0
1.21014e-13 1.00253 0
-2.84831e-14 1.00253 0
1.11919e-13 1.00383 0
-2.6423e-14 1.00383 0
1.09997e-15 1 0
2.36738e-13 1 0
6.3233e-15 1.00253 0
2.34322e-13 1.00253 0
2.36738e-13 1 0
4.11442e-14 1 0
2.34322e-13 1.00253 0
4.82403e-14 1.00253 0
-2.84831e-14 1.00253 0
-2.37239e-13 1.00253 0
-2.6423e-14 1.00383 0
-2.2878e-13 1.00383 0
-2.37239e-13 1.00253 0
-4.51024e-14 1.00253 0
-2.2878e-13 1.00383 0
-3.84853e-14 1.00383 0
0 1.00383 0
-8.25578e-15 1.00383 0
0 1.00541 0
-4.96054e-15 1.00541 0
-8.25578e-15 1.00383 0
7.7274e-14 1.00383 0
-4.96054e-15 1.00541 0
8.58922e-14 1.00541 0
0 1.00541 0
3.8183e-14 1.00541 0
0 1.00688 0
3.87919e-14 1.00688 0
3.8183e-14 1.00541 0
-1.80035e-14 1.00541 0
3.87919e-14 1.00688 0
-1.69981e-14 1.00688 0
7.7274e-14 1.00383 0
6.39287e-16 1.00383 0
8.58922e-14 1.00541 0
7.15991e-15 1.00541 0
6.39287e-16 1.00383 0
-8.54105e-15 1.00383 0
7.15991e-15 1.00541 0
3.29768e-15 1.00541 0
-1.80035e-14 1.00541 0
3.93738e-14 1.00541 0
-1.69981e-14 1.00688 0
3.85114e-14 1.00688 0
3.93738e-14 1.00541 0
-3.8516e-14 1.00541 0
3.85114e-14 1.00688 0
-2.42146e-14 1.00688 0
4.11442e-14 1 0
-3.31393e-14 1 0
4.82403e-14 1.00253 0
-2.25206e-14 1.00253 0
-3.31393e-14 1 0
-6.48732e-15 1 0
-2.25206e-14 1.00253 0
6.17624e-15 1.00253 0
-4.51024e-14 1.00253 0
3.30652e-14 1.00253 0
-3.84853e-14 1.00383 0
2.28835e-14 1.00383 0
3.30652e-14 1.00253 0
-6.53045e-15 1.00253 0
2.28835e-14 1.00383 0
9.61311e-15 1.00383 0
-6.48732e-15 1 0
5.94529e-15 1 0
6.17624e-15 1.00253 0
-7.80352e-15 1.00253 0
5.94529e-15 1 0
-3.14814e-15 1 0
-7.80352e-15 1.00253 0
5.38224e-15 1.00253 0
-6.53045e-15 1.00253 0
-3.29531e-16 1.00253 0
9.61311e-15 1.00383 0
6.11357e-15 1.00383 0
-3.29531e-16 1.00253 0
-3.80421e-15 1.00253 0
6.11357e-15 1.00383 0
7.96523e-15 1.00383 0
-8.54105e-15 1.00383 0
2.88306e-14 1.00383 0
3.29768e-15 1.00541 0
4.21992e-14 1.00541 0
2.88306e-14 1.00383 0
3.83921e-16 1.00383 0
4.21992e-14 1.00541 0
-2.84555e-16 1.00541 0
-3.8516e-14 1.00541 0
-9.26111e-15 1.00541 0
-2.42146e-14 1.00688 0
-7.00038e-15 1.00688 0
-9.26111e-15 1.00541 0
1.26074e-15 1.00541 0
-7.00038e-15 1.00688 0
-6.33267e-15 1.00688 0
3.83921e-16 1.00383 0
-6.25021e-15 1.00383 0
-2.84555e-16 1.00541 0
5.52124e-15 1.00541 0
-6.25021e-15 1.00383 0
-3.97159e-15 1.00383 0
5.52124e-15 1.00541 0
4.38603e-15 1.00541 0
1.26074e-15 1.00541 0
-6.15134e-15 1.00541 0
-6.33267e-15 1.00688 0
2.77142e-15 1.00688 0
-6.15134e-15 1.00541 0
-1.10716e-15 1.00541 0
2.77142e-15 1.00688 0
-1.30175e-15 1.00688 0
0 1.00688 0
-7.83121e-14 1.00688 0
0 1.00834 0
-7.70832e-14 1.00834 0
-7.83121e-14 1.00688 0
-5.36067e-14 1.00688 0
-7.70832e-14 1.00834 0
-4.82685e-14 1.00834 0
0 1.00834 0
7.18269e-14 1.00834 0
0 1.00977 0
7.22809e-14 1.00977 0
7.18269e-14 1.00834 0
9.06542e-14 1.00834 0
7.22809e-14 1.00977 0
9.06945e-14 1.00977 0
-5.36067e-14 1.00688 0
-5.7766e-14 1.00688 0
-4.82685e-14 1.00834 0
-5.16885e-14 1.00834 0
-5.7766e-14 1.00688 0
5.78946e-14 1.00688 0
-5.16885e-14 1.00834 0
5.08995e-14 1.00834 0
9.06542e-14 1.00834 0
6.48465e-14 1.00834 0
9.06945e-14 1.00977 0
6.01272e-14 1.00977 0
6.48465e-14 1.00834 0
-7.07999e-14 1.00834 0
6.01272e-14 1.00977 0
-6.95395e-14 1.00977 0
0 1.00977 0
2.51294e-14 1.00977 0
0 1.01117 0
1.61551e-14 1.01117 0
2.51294e-14 1.00977 0
-1.9827e-13 1.00977 0
1.61551e-14 1.01117 0
-1.96149e-13 1.01117 0
0 1.01117 0
-4.07854e-15 1.01117 0
0 1.01255 0
-1.43601e-15 1.01255 0
-4.07854e-15 1.01117 0
1.8848e-13 1.01117 0
-1.43601e-15 1.01255 0
1.86596e-13 1.01255 0
-1.9827e-13 1.00977 0
-4.3062e-14 1.00977 0
-1.96149e-13 1.01117 0
-4.70549e-14 1.01117 0
-4.3062e-14 1.00977 0
1.53148e-13 1.00977 0
-4.70549e-14 1.01117 0
1.48203e-13 1.01117 0
1.8848e-13 1.01117 0
2.79485e-14 1.01117 0
1.86596e-13 1.01255 0
2.41898e-14 1.01255 0
2.79485e-14 1.01117 0
-1.62777e-13 1.01117 0
2.41898e-14 1.01255 0
-1.54701e-13 1.01255 0
5.78946e-14 1.00688 0
4.96501e-15 1.00688 0
5.08995e-14 1.00834 0
1.10135e-14 1.00834 0
4.96501e-15 1.00688 0
5.40898e-15 1.00688 0
1.10135e-14 1.00834 0
-2.04214e-15 1.00834 0
-7.07999e-14 1.00834 0
-2.06857e-14 1.00834 0
-6.95395e-14 1.00977 0
-1.90355e-14 1.00977 0
-2.06857e-14 1.00834 0
-5.73194e-15 1.00834 0
-1.90355e-14 1.00977 0
-1.61356e-15 1.00977 0
5.40898e-15 1.00688 0
2.31528e-15 1.00688 0
-2.04214e-15 1.00834 0
-3.42297e-15 1.00834 0
2.31528e-15 1.00688 0
-3.82965e-15 1.00688 0
-3.42297e-15 1.00834 0
6.2463e-15 1.00834 0
-5.73194e-15 1.00834 0
-8.2813e-16 1.00834 0
-1.61356e-15 1.00977 0
4.47065e-15 1.00977 0
-8.2813e-16 1.00834 0
1.95203e-14 1.00834 0
4.47065e-15 1.00977 0
1.91762e-14 1.00977 0
1.53148e-13 1.00977 0
-1.69759e-14 1.00977 0
1.48203e-13 1.01117 0
-1.37922e-14 1.01117 0
-1.69759e-14 1.00977 0
1.83714e-15 1.00977 0
-1.37922e-14 1.01117 0
8.57489e-15 1.01117 0
-1.62777e-13 1.01117 0
-4.1223e-14 1.01117 0
-1.54701e-13 1.01255 0
-3.05545e-14 1.01255 0
-4.1223e-14 1.01117 0
-1.72254e-16 1.01117 0
-3.05545e-14 1.01255 0
3.05576e-15 1.01255 0
1.83714e-15 1.00977 0
-1.11737e-15 1.00977 0
8.57489e-15 1.01117 0
2.52439e-15 1.01117 0
-1.11737e-15 1.00977 0
-1.71819e-14 1.00977 0
2.52439e-15 1.01117 0
-8.10145e-15 1.01117 0
-1.72254e-16 1.01117 0
1.25565e-14 1.01117 0
3.05576e-15 1.01255 0
1.28473e-14 1.01255 0
1.25565e-14 1.01117 0
-8.76754e-15 1.01117 0
1.28473e-14 1.01255 0
-2.39686e-15 1.01255 0
-3.14814e-15 1 0
2.44697e-15 1 0
5.38224e-15 1.00253 0
4.24137e-15 1.00253 0
2.44697e-15 1 0
4.54768e-15 1 0
4.24137e-15 1.00253 0
7.32171e-16 1.00253 0
-3.80421e-15 1.00253 0
2.8305e-16 1.00253 0
7.96523e-15 1.00383 0
4.49391e-15 1.00383 0
2.8305e-16 1.00253 0
3.28441e-16 1.00253 0
4.49391e-15 1.00383 0
7.74615e-15 1.00383 0
4.54768e-15 1 0
2.0842e-15 1 0
7.32171e-16 1.00253 0
7.50424e-15 1.00253 0
2.0842e-15 1 0
4.11838e-16 1 0
7.50424e-15 1.00253 0
6.05542e-15 1.00253 0
3.28441e-16 1.00253 0
-8.60032e-15 1.00253 0
7.74615e-15 1.00383 0
1.27051e-14 1.00383 0
-8.60032e-15 1.00253 0
3.88e-15 1.00253 0
1.27051e-14 1.00383 0
1.32038e-16 1.00383 0
-3.97159e-15 1.00383 0
-7.13247e-15 1.00383 0
4.38603e-15 1.00541 0
8.36362e-15 1.00541 0
-7.13247e-15 1.00383 0
-9.82157e-15 1.00383 0
8.36362e-15 1.00541 0
1.02694e-14 1.00541 0
-1.10716e-15 1.00541 0
5.87449e-15 1.00541 0
-1.30175e-15 1.00688 0
4.55343e-16 1.00688 0
5.87449e-15 1.00541 0
1.51242e-15 1.00541 0
4.55343e-16 1.00688 0
9.8987e-15 1.00688 0
-9.82157e-15 1.00383 0
4.18406e-15 1.00383 0
1.02694e-14 1.00541 0
2.60966e-15 1.00541 0
4.18406e-15 1.00383 0
4.72142e-15 1.00383 0
2.60966e-15 1.00541 0
6.8666e-15 1.00541 0
1.51242e-15 1.00541 0
-2.8254e-15 1.00541 0
9.8987e-15 1.00688 0
-4.19223e-15 1.00688 0
-2.8254e-15 1.00541 0
2.75322e-15 1.00541 0
-4.19223e-15 1.00688 0
3.98271e-15 1.00688 0
4.11838e-16 1 0
-1.45494e-15 1 0
6.05542e-15 1.00253 0
1.57457e-14 1.00253 0
-1.45494e-15 1 0
3.18543e-15 1 0
1.57457e-14 1.00253 0
7.04576e-15 1.00253 0
3.88e-15 1.00253 0
-8.77239e-16 1.00253 0
1.32038e-16 1.00383 0
-1.75756e-15 1.00383 0
-8.77239e-16 1.00253 0
-7.80796e-15 1.00253 0
-1.75756e-15 1.00383 0
1.35863e-14 1.00383 0
3.18543e-15 1 0
2.93895e-16 1 0
7.04576e-15 1.00253 0
7.55676e-15 1.00253 0
2.93895e-16 1 0
9.80036e-15 1 0
7.55676e-15 1.00253 0
-2.20531e-15 1.00253 0
-7.80796e-15 1.00253 0
3.07228e-15 1.00253 0
1.35863e-14 1.00383 0
3.39549e-15 1.00383 0
3.07228e-15 1.00253 0
6.55581e-16 1.00253 0
3.39549e-15 1.00383 0
7.54508e-15 1.00383 0
4.72142e-15 1.00383 0
-7.03358e-15 1.00383 0
6.8666e-15 1.00541 0
6.28246e-15 1.00541 0
-7.03358e-15 1.00383 0
2.65322e-16 1.00383 0
6.28246e-15 1.00541 0
1.74661e-16 1.00541 0
2.75322e-15 1.00541 0
6.92962e-15 1.00541 0
3.98271e-15 1.00688 0
1.84907e-15 1.00688 0
6.92962e-15 1.00541 0
4.43229e-15 1.00541 0
1.84907e-15 1.00688 0
-3.231e-16 1.00688 0
2.65322e-16 1.00383 0
-7.05059e-15 1.00383 0
1.74661e-16 1.00541 0
1.0515e-14 1.00541 0
-7.05059e-15 1.00383 0
-1.39669e-14 1.00383 0
1.0515e-14 1.00541 0
9.19424e-15 1.00541 0
4.43229e-15 1.00541 0
-6.18767e-17 1.00541 0
-3.231e-16 1.00688 0
1.03439e-14 1.00688 0
-6.18767e-17 1.00541 0
-1.43386e-16 1.00541 0
1.03439e-14 1.00688 0
4.06665e-15 1.00688 0
-3.82965e-15 1.00688 0
-3.82889e-16 1.00688 0
6.2463e-15 1.00834 0
3.78842e-16 1.00834 0
-3.82889e-16 1.00688 0
-1.18118e-14 1.00688 0
3.78842e-16 1.00834 0
-1.85424e-15 1.00834 0
1.95203e-14 1.00834 0
-7.19145e-15 1.00834 0
1.91762e-14 1.00977 0
1.68388e-15 1.00977 0
-7.19145e-15 1.00834 0
4.79162e-15 1.00834 0
1.68388e-15 1.00977 0
5.12976e-16 1.00977 0
-1.18118e-14 1.00688 0
1.33221e-14 1.00688 0
-1.85424e-15 1.00834 0
-4.79008e-15 1.00834 0
1.33221e-14 1.00688 0
-5.00565e-15 1.00688 0
-4.79008e-15 1.00834 0
7.88502e-15 1.00834 0
4.79162e-15 1.00834 0
6.558e-15 1.00834 0
5.12976e-16 1.00977 0
1.96104e-15 1.00977 0
6.558e-15 1.00834 0
-8.2951e-16 1.00834 0
1.96104e-15 1.00977 0
2.45044e-15 1.00977 0
-1.71819e-14 1.00977 0
9.0745e-15 1.00977 0
-8.10145e-15 1.01117 0
1.20312e-14 1.01117 0
9.0745e-15 1.00977 0
-4.48612e-15 1.00977 0
1.20312e-14 1.01117 0
4.8006e-15 1.01117 0
-8.76754e-15 1.01117 0
-5.39318e-15 1.01117 0
-2.39686e-15 1.01255 0
-5.97525e-15 1.01255 0
-5.39318e-15 1.01117 0
2.57979e-14 1.01117 0
-5.97525e-15 1.01255 0
2.84628e-14 1.01255 0
-4.48612e-15 1.00977 0
-2.68219e-15 1.00977 0
4.8006e-15 1.01117 0
3.91759e-17 1.01117 0
-2.68219e-15 1.00977 0
-2.78836e-15 1.00977 0
3.91759e-17 1.01117 0
5.72238e-15 1.01117 0
2.57979e-14 1.01117 0
1.05913e-14 1.01117 0
2.84628e-14 1.01255 0
-4.61428e-15 1.01255 0
1.05913e-14 1.01117 0
-4.66655e-15 1.01117 0
-4.61428e-15 1.01255 0
1.46261e-15 1.01255 0
-5.00565e-15 1.00688 0
3.40649e-15 1.00688 0
7.88502e-15 1.00834 0
-1.15556e-15 1.00834 0
3.40649e-15 1.00688 0
2.94921e-15 1.00688 0
-1.15556e-15 1.00834 0
5.80759e-15 1.00834 0
-8.2951e-16 1.00834 0
-1.51355e-15 1.00834 0
2.45044e-15 1.00977 0
7.09521e-15 1.00977 0
-1.51355e-15 1.00834 0
4.70792e-15 1.00834 0
7.09521e-15 1.00977 0
-1.64505e-15 1.00977 0
2.94921e-15 1.00688 0
2.7501e-16 1.00688 0
5.80759e-15 1.00834 0
4.54806e-15 1.00834 0
2.7501e-16 1.00688 0
6.31619e-15 1.00688 0
4.54806e-15 1.00834 0
-2.0484e-15 1.00834 0
4.70792e-15 1.00834 0
-2.73197e-15 1.00834 0
-1.64505e-15 1.00977 0
7.30462e-15 1.00977 0
-2.73197e-15 1.00834 0
1.73306e-15 1.00834 0
7.30462e-15 1.00977 0
1.0391e-14 1.00977 0
-2.78836e-15 1.00977 0
-3.33797e-15 1.00977 0
5.72238e-15 1.01117 0
2.9538e-15 1.01117 0
-3.33797e-15 1.00977 0
-6.87869e-15 1.00977 0
2.9538e-15 1.01117 0
7.08415e-15 1.01117 0
-4.66655e-15 1.01117 0
-3.58425e-15 1.01117 0
1.46261e-15 1.01255 0
2.11717e-15 1.01255 0
-3.58425e-15 1.01117 0
3.68985e-16 1.01117 0
2.11717e-15 1.01255 0
-4.5493e-16 1.01255 0
-6.87869e-15 1.00977 0
-1.24422e-16 1.00977 0
7.08415e-15 1.01117 0
2.43351e-15 1.01117 0
-1.24422e-16 1.00977 0
-2.84065e-15 1.00977 0
2.43351e-15 1.01117 0
2.24068e-15 1.01117 0
3.68985e-16 1.01117 0
-4.3034e-15 1.01117 0
-4.5493e-16 1.01255 0
1.54155e-15 1.01255 0
-4.3034e-15 1.01117 0
8.22597e-15 1.01117 0
1.54155e-15 1.01255 0
-8.85886e-15 1.01255 0
0 1.01255 0
-4.06513e-14 1.01255 0
0 1.01392 0
-2.93665e-14 1.01392 0
-4.06513e-14 1.01255 0
-1.32664e-13 1.01255 0
-2.93665e-14 1.01392 0
-1.18842e-13 1.01392 0
0 1.01392 0
2.55051e-14 1.01392 0
0 1.01528 0
2.66846e-14 1.01528 0
2.55051e-14 1.01392 0
1.06987e-13 1.01392 0
2.66846e-14 1.01528 0
1.07088e-13 1.01528 0
-1.32664e-13 1.01255 0
4.22744e-14 1.01255 0
-1.18842e-13 1.01392 0
3.83013e-14 1.01392 0
4.22744e-14 1.01255 0
1.11942e-13 1.01255 0
3.83013e-14 1.01392 0
1.07201e-13 1.01392 0
1.06987e-13 1.01392 0
-1.18597e-13 1.01392 0
1.07088e-13 1.01528 0
-1.07723e-13 1.01528 0
-1.18597e-13 1.01392 0
-6.72903e-14 1.01392 0
-1.07723e-13 1.01528 0
-7.08693e-14 1.01528 0
0 1.01528 0
-4.2994e-14 1.01528 0
0 1.01665 0
-4.31709e-14 1.01665 0
-4.2994e-14 1.01528 0
-9.29276e-14 1.01528 0
-4.31709e-14 1.01665 0
-9.34378e-14 1.01665 0
0 1.01665 0
2.808e-14 1.01665 0
0 1.01803 0
2.58204e-14 1.01803 0
2.808e-14 1.01665 0
5.4248e-14 1.01665 0
2.58204e-14 1.01803 0
5.29205e-14 1.01803 0
-9.29276e-14 1.01528 0
5.57848e-14 1.01528 0
-9.34378e-14 1.01665 0
5.51914e-14 1.01665 0
5.57848e-14 1.01528 0
2.97835e-14 1.01528 0
5.51914e-14 1.01665 0
3.20054e-14 1.01665 0
5.4248e-14 1.01665 0
-1.55962e-14 1.01665 0
5.29205e-14 1.01803 0
-1.10678e-14 1.01803 0
-1.55962e-14 1.01665 0
-7.19837e-16 1.01665 0
-1.10678e-14 1.01803 0
-3.32285e-15 1.01803 0
1.11942e-13 1.01255 0
3.85433e-14 1.01255 0
1.07201e-13 1.01392 0
4.73108e-14 1.01392 0
3.85433e-14 1.01255 0
-2.70204e-15 1.01255 0
4.73108e-14 1.01392 0
7.34201e-15 1.01392 0
-6.72903e-14 1.01392 0
-6.16537e-16 1.01392 0
-7.08693e-14 1.01528 0
4.71796e-15 1.01528 0
-6.16537e-16 1.01392 0
-1.07827e-14 1.01392 0
4.71796e-15 1.01528 0
5.79383e-15 1.01528 0
-2.70204e-15 1.01255 0
-6.31801e-15 1.01255 0
7.34201e-15 1.01392 0
-1.26091e-14 1.01392 0
-6.31801e-15 1.01255 0
1.1002e-14 1.01255 0
-1.26091e-14 1.01392 0
1.10459e-14 1.01392 0
-1.07827e-14 1.01392 0
3.19087e-15 1.01392 0
5.79383e-15 1.01528 0
4.02607e-15 1.01528 0
3.19087e-15 1.01392 0
-9.34009e-15 1.01392 0
4.02607e-15 1.01528 0
3.79975e-15 1.01528 0
2.97835e-14 1.01528 0
-9.56611e-15 1.01528 0
3.20054e-14 1.01665 0
-9.42597e-15 1.01665 0
-9.56611e-15 1.01528 0
2.34842e-17 1.01528 0
-9.42597e-15 1.01665 0
5.66907e-15 1.01665 0
-7.19837e-16 1.01665 0
2.81785e-15 1.01665 0
-3.32285e-15 1.01803 0
2.87994e-15 1.01803 0
2.81785e-15 1.01665 0
-5.54595e-15 1.01665 0
2.87994e-15 1.01803 0
4.69389e-15 1.01803 0
2.34842e-17 1.01528 0
-1.46833e-15 1.01528 0
5.66907e-15 1.01665 0
5.99037e-15 1.01665 0
-1.46833e-15 1.01528 0
-5.90175e-15 1.01528 0
5.99037e-15 1.01665 0
2.20122e-15 1.01665 0
-5.54595e-15 1.01665 0
-4.13659e-15 1.01665 0
4.69389e-15 1.01803 0
1.478e-15 1.01803 0
-4.13659e-15 1.01665 0
-2.24156e-15 1.01665 0
1.478e-15 1.01803 0
2.41588e-15 1.01803 0
0 1.01803 0
3.47257e-14 1.01803 0
0 1.01942 0
3.74443e-14 1.01942 0
3.47257e-14 1.01803 0
-2.51755e-14 1.01803 0
3.74443e-14 1.01942 0
-2.6303e-14 1.01942 0
0 1.01942 0
-3.77868e-14 1.01942 0
0 1.02077 0
-3.31813e-14 1.02077 0
-3.77868e-14 1.01942 0
4.25813e-14 1.01942 0
-3.31813e-14 1.02077 0
3.86179e-14 1.02077 0
-2.51755e-14 1.01803 0
4.35684e-15 1.01803 0
-2.6303e-14 1.01942 0
6.37083e-15 1.01942 0
4.35684e-15 1.01803 0
-1.28175e-14 1.01803 0
6.37083e-15 1.01942 0
-7.37737e-15 1.01942 0
4.25813e-14 1.01942 0
-3.78304e-15 1.01942 0
3.86179e-14 1.02077 0
4.1764e-15 1.02077 0
-3.78304e-15 1.01942 0
-1.01955e-15 1.01942 0
4.1764e-15 1.02077 0
4.60638e-16 1.02077 0
0 1.02077 0
1.02894e-14 1.02077 0
0 1.02195 0
6.44109e-15 1.02195 0
1.02894e-14 1.02077 0
-2.70725e-14 1.02077 0
6.44109e-15 1.02195 0
-3.14269e-14 1.02195 0
0 1.02195 0
1.77337e-15 1.02195 0
0 1.02248 0
-9.42864e-15 1.02248 0
1.77337e-15 1.02195 0
-7.31361e-15 1.02195 0
-9.42864e-15 1.02248 0
9.9284e-15 1.02248 0
-2.70725e-14 1.02077 0
-1.59027e-16 1.02077 0
-3.14269e-14 1.02195 0
-1.32123e-15 1.02195 0
-1.59027e-16 1.02077 0
3.64741e-15 1.02077 0
-1.32123e-15 1.02195 0
1.1565e-15 1.02195 0
-7.31361e-15 1.02195 0
-4.84868e-15 1.02195 0
9.9284e-15 1.02248 0
-1.653e-14 1.02248 0
-4.84868e-15 1.02195 0
-2.42386e-15 1.02195 0
-1.653e-14 1.02248 0
1.96153e-14 1.02248 0
-1.28175e-14 1.01803 0
-9.21747e-15 1.01803 0
-7.37737e-15 1.01942 0
1.05698e-15 1.01942 0
-9.21747e-15 1.01803 0
-1.89761e-15 1.01803 0
1.05698e-15 1.01942 0
3.32395e-15 1.01942 0
-1.01955e-15 1.01942 0
2.40633e-15 1.01942 0
4.60638e-16 1.02077 0
2.79598e-15 1.02077 0
2.40633e-15 1.01942 0
-5.88925e-15 1.01942 0
2.79598e-15 1.02077 0
3.88159e-15 1.02077 0
-1.89761e-15 1.01803 0
1.41674e-16 1.01803 0
3.32395e-15 1.01942 0
6.72578e-16 1.01942 0
1.41674e-16 1.01803 0
-3.54796e-15 1.01803 0
6.72578e-16 1.01942 0
4.02657e-15 1.01942 0
-5.88925e-15 1.01942 0
-3.23942e-15 1.01942 0
3.88159e-15 1.02077 0
1.49216e-15 1.02077 0
-3.23942e-15 1.01942 0
-2.86892e-15 1.01942 0
1.49216e-15 1.02077 0
1.67933e-15 1.02077 0
3.64741e-15 1.02077 0
-5.32071e-15 1.02077 0
1.1565e-15 1.02195 0
-2.59089e-15 1.02195 0
-5.32071e-15 1.02077 0
-2.96977e-15 1.02077 0
-2.59089e-15 1.02195 0
2.11661e-15 1.02195 0
-2.42386e-15 1.02195 0
-2.50896e-15 1.02195 0
1.96153e-14 1.02248 0
1.65249e-15 1.02248 0
-2.50896e-15 1.02195 0
-1.72904e-15 1.02195 0
1.65249e-15 1.02248 0
-4.23524e-16 1.02248 0
-2.96977e-15 1.02077 0
-3.00606e-15 1.02077 0
2.11661e-15 1.02195 0
1.25975e-15 1.02195 0
-3.00606e-15 1.02077 0
-2.12665e-17 1.02077 0
1.25975e-15 1.02195 0
6.11328e-16 1.02195 0
-1.72904e-15 1.02195 0
-5.18709e-16 1.02195 0
-4.23524e-16 1.02248 0
7.19286e-15 1.02248 0
-5.18709e-16 1.02195 0
4.45347e-16 1.02195 0
7.19286e-15 1.02248 0
-1.92366e-14 1.02248 0
1.1002e-14 1.01255 0
8.60151e-15 1.01255 0
1.10459e-14 1.01392 0
9.91287e-15 1.01392 0
8.60151e-15 1.01255 0
-2.38592e-14 1.01255 0
9.91287e-15 1.01392 0
-2.11458e-14 1.01392 0
-9.34009e-15 1.01392 0
-4.99091e-15 1.01392 0
3.79975e-15 1.01528 0
5.0955e-15 1.01528 0
-4.99091e-15 1.01392 0
2.3457e-15 1.01392 0
5.0955e-15 1.01528 0
2.49412e-15 1.01528 0
-2.38592e-14 1.01255 0
2.15612e-16 1.01255 0
-2.11458e-14 1.01392 0
4.36789e-15 1.01392 0
2.15612e-16 1.01255 0
2.5997e-15 1.01255 0
4.36789e-15 1.01392 0
6.5685e-15 1.01392 0
2.3457e-15 1.01392 0
-3.05151e-15 1.01392 0
2.49412e-15 1.01528 0
5.67082e-15 1.01528 0
-3.05151e-15 1.01392 0
-2.15507e-15 1.01392 0
5.67082e-15 1.01528 0
2.80117e-15 1.01528 0
-5.90175e-15 1.01528 0
-4.0267e-15 1.01528 0
2.20122e-15 1.01665 0
5.47662e-15 1.01665 0
-4.0267e-15 1.01528 0
-3.77265e-15 1.01528 0
5.47662e-15 1.01665 0
2.61763e-15 1.01665 0
-2.24156e-15 1.01665 0
-3.12996e-15 1.01665 0
2.41588e-15 1.01803 0
-8.28813e-17 1.01803 0
-3.12996e-15 1.01665 0
1.93476e-15 1.01665 0
-8.28813e-17 1.01803 0
-1.26441e-15 1.01803 0
-3.77265e-15 1.01528 0
9.99655e-16 1.01528 0
2.61763e-15 1.01665 0
6.96661e-16 1.01665 0
9.99655e-16 1.01528 0
-2.16556e-15 1.01528 0
6.96661e-16 1.01665 0
2.85054e-15 1.01665 0
1.93476e-15 1.01665 0
-4.18055e-15 1.01665 0
-1.26441e-15 1.01803 0
4.01435e-15 1.01803 0
-4.18055e-15 1.01665 0
9.09291e-16 1.01665 0
4.01435e-15 1.01803 0
1.98421e-15 1.01803 0
2.5997e-15 1.01255 0
1.8824e-15 1.01255 0
6.5685e-15 1.01392 0
5.53809e-15 1.01392 0
1.8824e-15 1.01255 0
3.34532e-15 1.01255 0
5.53809e-15 1.01392 0
6.48414e-15 1.01392 0
-2.15507e-15 1.01392 0
-4.64732e-15 1.01392 0
2.80117e-15 1.01528 0
3.75896e-15 1.01528 0
-4.64732e-15 1.01392 0
-1.66738e-15 1.01392 0
3.75896e-15 1.01528 0
2.0957e-15 1.01528 0
3.34532e-15 1.01255 0
-4.32648e-15 1.01255 0
6.48414e-15 1.01392 0
3.96251e-15 1.01392 0
-4.32648e-15 1.01255 0
7.42291e-15 1.01255 0
3.96251e-15 1.01392 0
-5.5518e-16 1.01392 0
-1.66738e-15 1.01392 0
1.55661e-15 1.01392 0
2.0957e-15 1.01528 0
1.88666e-15 1.01528 0
1.55661e-15 1.01392 0
-5.9624e-15 1.01392 0
1.88666e-15 1.01528 0
4.30426e-15 1.01528 0
-2.16556e-15 1.01528 0
-2.36142e-15 1.01528 0
2.85054e-15 1.01665 0
-1.22562e-15 1.01665 0
-2.36142e-15 1.01528 0
6.66803e-16 1.01528 0
-1.22562e-15 1.01665 0
2.16037e-15 1.01665 0
9.09291e-16 1.01665 0
2.69388e-16 1.01665 0
1.98421e-15 1.01803 0
3.23613e-15 1.01803 0
2.69388e-16 1.01665 0
-5.42993e-15 1.01665 0
3.23613e-15 1.01803 0
3.83424e-15 1.01803 0
6.66803e-16 1.01528 0
-1.69086e-15 1.01528 0
2.16037e-15 1.01665 0
3.94535e-15 1.01665 0
-1.69086e-15 1.01528 0
-9.70622e-16 1.01528 0
3.94535e-15 1.01665 0
5.46854e-15 1.01665 0
-5.42993e-15 1.01665 0
-4.7085e-16 1.01665 0
3.83424e-15 1.01803 0
-1.35064e-15 1.01803 0
-4.7085e-16 1.01665 0
6.33828e-15 1.01665 0
-1.35064e-15 1.01803 0
-4.46034e-15 1.01803 0
-3.54796e-15 1.01803 0
-3.69014e-15 1.01803 0
4.02657e-15 1.01942 0
-8.4014e-16 1.01942 0
-3.69014e-15 1.01803 0
-4.13672e-15 1.01803 0
-8.4014e-16 1.01942 0
1.13194e-15 1.01942 0
-2.86892e-15 1.01942 0
5.11244e-16 1.01942 0
1.67933e-15 1.02077 0
2.64331e-15 1.02077 0
5.11244e-16 1.01942 0
-1.2109e-15 1.01942 0
2.64331e-15 1.02077 0
1.9568e-15 1.02077 0
-4.13672e-15 1.01803 0
-4.07516e-16 1.01803 0
1.13194e-15 1.01942 0
2.18988e-15 1.01942 0
-4.07516e-16 1.01803 0
-3.06412e-15 1.01803 0