# vtk DataFile Version 3.0
#This file was generated by the deal.II library on 2018/10/12 at 1:20:24
ASCII
DATASET UNSTRUCTURED_GRID

POINTS 5120 double
0 0 0
0.392699 0 0
0 0.596183 0
0.392699 0.596183 0
0.392699 0 0
0.785398 0 0
0.392699 0.596183 0
0.785398 0.596183 0
0 0.596183 0
0.392699 0.596183 0
0 1.22326 0
0.392699 1.22326 0
0.392699 0.596183 0
0.785398 0.596183 0
0.392699 1.22326 0
0.785398 1.22326 0
0.785398 0 0
1.1781 0 0
0.785398 0.596183 0
1.1781 0.596183 0
1.1781 0 0
1.5708 0 0
1.1781 0.596183 0
1.5708 0.596183 0
0.785398 0.596183 0
1.1781 0.596183 0
0.785398 1.22326 0
1.1781 1.22326 0
1.1781 0.596183 0
1.5708 0.596183 0
1.1781 1.22326 0
1.5708 1.22326 0
0 1.22326 0
0.392699 1.22326 0
0 1.84931 0
0.392699 1.84931 0
0.392699 1.22326 0
0.785398 1.22326 0
0.392699 1.84931 0
0.785398 1.84931 0
0 1.84931 0
0.392699 1.84931 0
0 2.47643 0
0.392699 2.47643 0
0.392699 1.84931 0
0.785398 1.84931 0
0.392699 2.47643 0
0.785398 2.47643 0
0.785398 1.22326 0
1.1781 1.22326 0
0.785398 1.84931 0
1.1781 1.84931 0
1.1781 1.22326 0
1.5708 1.22326 0
1.1781 1.84931 0
1.5708 1.84931 0
0.785398 1.84931 0
1.1781 1.84931 0
0.785398 2.47643 0
1.1781 2.47643 0
1.1781 1.84931 0
1.5708 1.84931 0
1.1781 2.47643 0
1.5708 2.47643 0
1.5708 0 0
1.9635 0 0
1.5708 0.596183 0
1.9635 0.596183 0
1.9635 0 0
2.35619 0 0
1.9635 0.596183 0
2.35619 0.596183 0
1.5708 0.596183 0
1.9635 0.596183 0
1.5708 1.22326 0
1.9635 1.22326 0
1.9635 0.596183 0
2.35619 0.596183 0
1.9635 1.22326 0
2.35619 1.22326 0
2.35619 0 0
2.74889 0 0
2.35619 0.596183 0
2.74889 0.596183 0
2.74889 0 0
3.14159 0 0
2.74889 0.596183 0
3.14159 0.596183 0
2.35619 0.596183 0
2.74889 0.596183 0
2.35619 1.22326 0
2.74889 1.22326 0
2.74889 0.596183 0
3.14159 0.596183 0
2.74889 1.22326 0
3.14159 1.22326 0
1.5708 1.22326 0
1.9635 1.22326 0
1.5708 1.84931 0
1.9635 1.84931 0
1.9635 1.22326 0
2.35619 1.22326 0
1.9635 1.84931 0
2.35619 1.84931 0
1.5708 1.84931 0
1.9635 1.84931 0
1.5708 2.47643 0
1.9635 2.47643 0
1.9635 1.84931 0
2.35619 1.84931 0
1.9635 2.47643 0
2.35619 2.47643 0
2.35619 1.22326 0
2.74889 1.22326 0
2.35619 1.84931 0
2.74889 1.84931 0
2.74889 1.22326 0
3.14159 1.22326 0
2.74889 1.84931 0
3.14159 1.84931 0
2.35619 1.84931 0
2.74889 1.84931 0
2.35619 2.47643 0
2.74889 2.47643 0
2.74889 1.84931 0
3.14159 1.84931 0
2.74889 2.47643 0
3.14159 2.47643 0
0 2.47643 0
0.392699 2.47643 0
0 3.10326 0
0.392699 3.10326 0
0.392699 2.47643 0
0.785398 2.47643 0
0.392699 3.10326 0
0.785398 3.10326 0
0 3.10326 0
0.392699 3.10326 0
0 3.7301 0
0.392699 3.7301 0
0.392699 3.10326 0
0.785398 3.10326 0
0.392699 3.7301 0
0.785398 3.7301 0
0.785398 2.47643 0
1.1781 2.47643 0
0.785398 3.10326 0
1.1781 3.10326 0
1.1781 2.47643 0
1.5708 2.47643 0
1.1781 3.10326 0
1.5708 3.10326 0
0.785398 3.10326 0
1.1781 3.10326 0
0.785398 3.7301 0
1.1781 3.7301 0
1.1781 3.10326 0
1.5708 3.10326 0
1.1781 3.7301 0
1.5708 3.7301 0
0 3.7301 0
0.392699 3.7301 0
0 4.35686 0
0.392699 4.35686 0
0.392699 3.7301 0
0.785398 3.7301 0
0.392699 4.35686 0
0.785398 4.35686 0
0 4.35686 0
0.392699 4.35686 0
0 4.98355 0
0.392699 4.98355 0
0.392699 4.35686 0
0.785398 4.35686 0
0.392699 4.98355 0
0.785398 4.98355 0
0.785398 3.7301 0
1.1781 3.7301 0
0.785398 4.35686 0
1.1781 4.35686 0
1.1781 3.7301 0
1.5708 3.7301 0
1.1781 4.35686 0
1.5708 4.35686 0
0.785398 4.35686 0
1.1781 4.35686 0
0.785398 4.98355 0
1.1781 4.98355 0
1.1781 4.35686 0
1.5708 4.35686 0
1.1781 4.98355 0
1.5708 4.98355 0
1.5708 2.47643 0
1.9635 2.47643 0
1.5708 3.10326 0
1.9635 3.10326 0
1.9635 2.47643 0
2.35619 2.47643 0
1.9635 3.10326 0
2.35619 3.10326 0
1.5708 3.10326 0
1.9635 3.10326 0
1.5708 3.7301 0
1.9635 3.7301 0
1.9635 3.10326 0
2.35619 3.10326 0
1.9635 3.7301 0
2.35619 3.7301 0
2.35619 2.47643 0
2.74889 2.47643 0
2.35619 3.10326 0
2.74889 3.10326 0
2.74889 2.47643 0
3.14159 2.47643 0
2.74889 3.10326 0
3.14159 3.10326 0
2.35619 3.10326 0
2.74889 3.10326 0
2.35619 3.7301 0
2.74889 3.7301 0
2.74889 3.10326 0
3.14159 3.10326 0
2.74889 3.7301 0
3.14159 3.7301 0
1.5708 3.7301 0
1.9635 3.7301 0
1.5708 4.35686 0
1.9635 4.35686 0
1.9635 3.7301 0
2.35619 3.7301 0
1.9635 4.35686 0
2.35619 4.35686 0
1.5708 4.35686 0
1.9635 4.35686 0
1.5708 4.98355 0
1.9635 4.98355 0
1.9635 4.35686 0
2.35619 4.35686 0
1.9635 4.98355 0
2.35619 4.98355 0
2.35619 3.7301 0
2.74889 3.7301 0
2.35619 4.35686 0
2.74889 4.35686 0
2.74889 3.7301 0
3.14159 3.7301 0
2.74889 4.35686 0
3.14159 4.35686 0
2.35619 4.35686 0
2.74889 4.35686 0
2.35619 4.98355 0
2.74889 4.98355 0
2.74889 4.35686 0
3.14159 4.35686 0
2.74889 4.98355 0
3.14159 4.98355 0
3.14159 0 0
3.53429 0 0
3.14159 0.596183 0
3.53429 0.596183 0
3.53429 0 0
3.92699 0 0
3.53429 0.596183 0
3.92699 0.596183 0
3.14159 0.596183 0
3.53429 0.596183 0
3.14159 1.22326 0
3.53429 1.22326 0
3.53429 0.596183 0
3.92699 0.596183 0
3.53429 1.22326 0
3.92699 1.22326 0
3.92699 0 0
4.31969 0 0
3.92699 0.596183 0
4.31969 0.596183 0
4.31969 0 0
4.71239 0 0
4.31969 0.596183 0
4.71239 0.596183 0
3.92699 0.596183 0
4.31969 0.596183 0
3.92699 1.22326 0
4.31969 1.22326 0
4.31969 0.596183 0
4.71239 0.596183 0
4.31969 1.22326 0
4.71239 1.22326 0
3.14159 1.22326 0
3.53429 1.22326 0
3.14159 1.84931 0
3.53429 1.84931 0
3.53429 1.22326 0
3.92699 1.22326 0
3.53429 1.84931 0
3.92699 1.84931 0
3.14159 1.84931 0
3.53429 1.84931 0
3.14159 2.47643 0
3.53429 2.47643 0
3.53429 1.84931 0
3.92699 1.84931 0
3.53429 2.47643 0
3.92699 2.47643 0
3.92699 1.22326 0
4.31969 1.22326 0
3.92699 1.84931 0
4.31969 1.84931 0
4.31969 1.22326 0
4.71239 1.22326 0
4.31969 1.84931 0
4.71239 1.84931 0
3.92699 1.84931 0
4.31969 1.84931 0
3.92699 2.47643 0
4.31969 2.47643 0
4.31969 1.84931 0
4.71239 1.84931 0
4.31969 2.47643 0
4.71239 2.47643 0
4.71239 0 0
5.10509 0 0
4.71239 0.596183 0
5.10509 0.596183 0
5.10509 0 0
5.49779 0 0
5.10509 0.596183 0
5.49779 0.596183 0
4.71239 0.596183 0
5.10509 0.596183 0
4.71239 1.22326 0
5.10509 1.22326 0
5.10509 0.596183 0
5.49779 0.596183 0
5.10509 1.22326 0
5.49779 1.22326 0
5.49779 0 0
5.89049 0 0
5.49779 0.596183 0
5.89049 0.596183 0
5.89049 0 0
6.28319 0 0
5.89049 0.596183 0
6.28319 0.596183 0
5.49779 0.596183 0
5.89049 0.596183 0
5.49779 1.22326 0
5.89049 1.22326 0
5.89049 0.596183 0
6.28319 0.596183 0
5.89049 1.22326 0
6.28319 1.22326 0
4.71239 1.22326 0
5.10509 1.22326 0
4.71239 1.84931 0
5.10509 1.84931 0
5.10509 1.22326 0
5.49779 1.22326 0
5.10509 1.84931 0
5.49779 1.84931 0
4.71239 1.84931 0
5.10509 1.84931 0
4.71239 2.47643 0
5.10509 2.47643 0
5.10509 1.84931 0
5.49779 1.84931 0
5.10509 2.47643 0
5.49779 2.47643 0
5.49779 1.22326 0
5.89049 1.22326 0
5.49779 1.84931 0
5.89049 1.84931 0
5.89049 1.22326 0
6.28319 1.22326 0
5.89049 1.84931 0
6.28319 1.84931 0
5.49779 1.84931 0
5.89049 1.84931 0
5.49779 2.47643 0
5.89049 2.47643 0
5.89049 1.84931 0
6.28319 1.84931 0
5.89049 2.47643 0
6.28319 2.47643 0
3.14159 2.47643 0
3.53429 2.47643 0
3.14159 3.10326 0
3.53429 3.10326 0
3.53429 2.47643 0
3.92699 2.47643 0
3.53429 3.10326 0
3.92699 3.10326 0
3.14159 3.10326 0
3.53429 3.10326 0
3.14159 3.7301 0
3.53429 3.7301 0
3.53429 3.10326 0
3.92699 3.10326 0
3.53429 3.7301 0
3.92699 3.7301 0
3.92699 2.47643 0
4.31969 2.47643 0
3.92699 3.10326 0
4.31969 3.10326 0
4.31969 2.47643 0
4.71239 2.47643 0
4.31969 3.10326 0
4.71239 3.10326 0
3.92699 3.10326 0
4.31969 3.10326 0
3.92699 3.7301 0
4.31969 3.7301 0
4.31969 3.10326 0
4.71239 3.10326 0
4.31969 3.7301 0
4.71239 3.7301 0
3.14159 3.7301 0
3.53429 3.7301 0
3.14159 4.35686 0
3.53429 4.35686 0
3.53429 3.7301 0
3.92699 3.7301 0
3.53429 4.35686 0
3.92699 4.35686 0
3.14159 4.35686 0
3.53429 4.35686 0
3.14159 4.98355 0
3.53429 4.98355 0
3.53429 4.35686 0
3.92699 4.35686 0
3.53429 4.98355 0
3.92699 4.98355 0
3.92699 3.7301 0
4.31969 3.7301 0
3.92699 4.35686 0
4.31969 4.35686 0
4.31969 3.7301 0
4.71239 3.7301 0
4.31969 4.35686 0
4.71239 4.35686 0
3.92699 4.35686 0
4.31969 4.35686 0
3.92699 4.98355 0
4.31969 4.98355 0
4.31969 4.35686 0
4.71239 4.35686 0
4.31969 4.98355 0
4.71239 4.98355 0
4.71239 2.47643 0
5.10509 2.47643 0
4.71239 3.10326 0
5.10509 3.10326 0
5.10509 2.47643 0
5.49779 2.47643 0
5.10509 3.10326 0
5.49779 3.10326 0
4.71239 3.10326 0
5.10509 3.10326 0
4.71239 3.7301 0
5.10509 3.7301 0
5.10509 3.10326 0
5.49779 3.10326 0
5.10509 3.7301 0
5.49779 3.7301 0
5.49779 2.47643 0
5.89049 2.47643 0
5.49779 3.10326 0
5.89049 3.10326 0
5.89049 2.47643 0
6.28319 2.47643 0
5.89049 3.10326 0
6.28319 3.10326 0
5.49779 3.10326 0
5.89049 3.10326 0
5.49779 3.7301 0
5.89049 3.7301 0
5.89049 3.10326 0
6.28319 3.10326 0
5.89049 3.7301 0
6.28319 3.7301 0
4.71239 3.7301 0
5.10509 3.7301 0
4.71239 4.35686 0
5.10509 4.35686 0
5.10509 3.7301 0
5.49779 3.7301 0
5.10509 4.35686 0
5.49779 4.35686 0
4.71239 4.35686 0
5.10509 4.35686 0
4.71239 4.98355 0
5.10509 4.98355 0
5.10509 4.35686 0
5.49779 4.35686 0
5.10509 4.98355 0
5.49779 4.98355 0
5.49779 3.7301 0
5.89049 3.7301 0
5.49779 4.35686 0
5.89049 4.35686 0
5.89049 3.7301 0
6.28319 3.7301 0
5.89049 4.35686 0
6.28319 4.35686 0
5.49779 4.35686 0
5.89049 4.35686 0
5.49779 4.98355 0
5.89049 4.98355 0
5.89049 4.35686 0
6.28319 4.35686 0
5.89049 4.98355 0
6.28319 4.98355 0
0 4.98355 0
0.392699 4.98355 0
0 5.61015 0
0.392699 5.61015 0
0.392699 4.98355 0
0.785398 4.98355 0
0.392699 5.61015 0
0.785398 5.61015 0
0 5.61015 0
0.392699 5.61015 0
0 6.23666 0
0.392699 6.23666 0
0.392699 5.61015 0
0.785398 5.61015 0
0.392699 6.23666 0
0.785398 6.23666 0
0.785398 4.98355 0
1.1781 4.98355 0
0.785398 5.61015 0
1.1781 5.61015 0
1.1781 4.98355 0
1.5708 4.98355 0
1.1781 5.61015 0
1.5708 5.61015 0
0.785398 5.61015 0
1.1781 5.61015 0
0.785398 6.23666 0
1.1781 6.23666 0
1.1781 5.61015 0
1.5708 5.61015 0
1.1781 6.23666 0
1.5708 6.23666 0
0 6.23666 0
0.392699 6.23666 0
0 6.86311 0
0.392699 6.86311 0
0.392699 6.23666 0
0.785398 6.23666 0
0.392699 6.86311 0
0.785398 6.86311 0
0 6.86311 0
0.392699 6.86311 0
0 7.48957 0
0.392699 7.48957 0
0.392699 6.86311 0
0.785398 6.86311 0
0.392699 7.48957 0
0.785398 7.48957 0
0.785398 6.23666 0
1.1781 6.23666 0
0.785398 6.86311 0
1.1781 6.86311 0
1.1781 6.23666 0
1.5708 6.23666 0
[...]
POINT_DATA 5120
VECTORS uf double
0 1 0
-1.3922e-13 1 0
0 1.00252 0
-1.42175e-13 1.00252 0
-1.3922e-13 1 0
-9.82433e-16 1 0
-1.42175e-13 1.00252 0
5.79248e-16 1.00252 0
0 1.00252 0
1.1404e-13 1.00252 0
0 1.00382 0
9.50466e-14 1.00382 0
1.1404e-13 1.00252 0
-2.42123e-14 1.00252 0
9.50466e-14 1.00382 0
-2.0897e-14 1.00382 0
-9.82433e-16 1 0
2.30721e-13 1 0
5.79248e-16 1.00252 0
2.15854e-13 1.00252 0
2.30721e-13 1 0
3.7247e-14 1 0
2.15854e-13 1.00252 0
4.94173e-14 1.00252 0
-2.42123e-14 1.00252 0
-2.27948e-13 1.00252 0
-2.0897e-14 1.00382 0
-2.15303e-13 1.00382 0
-2.27948e-13 1.00252 0
-5.18422e-14 1.00252 0
-2.15303e-13 1.00382 0
-2.88978e-14 1.00382 0
0 1.00382 0
1.09034e-15 1.00382 0
0 1.00539 0
-6.93767e-15 1.00539 0
1.09034e-15 1.00382 0
7.25004e-14 1.00382 0
-6.93767e-15 1.00539 0
7.2272e-14 1.00539 0
0 1.00539 0
4.55213e-14 1.00539 0
0 1.00685 0
3.32631e-14 1.00685 0
4.55213e-14 1.00539 0
-4.89959e-15 1.00539 0
3.32631e-14 1.00685 0
-3.63005e-15 1.00685 0
7.25004e-14 1.00382 0
9.12092e-16 1.00382 0
7.2272e-14 1.00539 0
4.24279e-15 1.00539 0
9.12092e-16 1.00382 0
-1.09335e-14 1.00382 0
4.24279e-15 1.00539 0
7.46307e-15 1.00539 0
-4.89959e-15 1.00539 0
3.63333e-14 1.00539 0
-3.63005e-15 1.00685 0
3.33497e-14 1.00685 0
3.63333e-14 1.00539 0
-4.1558e-14 1.00539 0
3.33497e-14 1.00685 0
-2.79121e-14 1.00685 0
3.7247e-14 1 0
-3.67045e-14 1 0
4.94173e-14 1.00252 0
-2.00461e-14 1.00252 0
-3.67045e-14 1 0
-3.7744e-15 1 0
-2.00461e-14 1.00252 0
-3.62888e-15 1.00252 0
-5.18422e-14 1.00252 0
2.97128e-14 1.00252 0
-2.88978e-14 1.00382 0
2.5453e-14 1.00382 0
2.97128e-14 1.00252 0
-5.44337e-15 1.00252 0
2.5453e-14 1.00382 0
1.32675e-14 1.00382 0
-3.7744e-15 1 0
-5.88046e-16 1 0
-3.62888e-15 1.00252 0
-4.92639e-16 1.00252 0
-5.88046e-16 1 0
-5.01299e-15 1 0
-4.92639e-16 1.00252 0
3.60808e-15 1.00252 0
-5.44337e-15 1.00252 0
-7.45977e-15 1.00252 0
1.32675e-14 1.00382 0
3.44001e-15 1.00382 0
-7.45977e-15 1.00252 0
-8.86037e-16 1.00252 0
3.44001e-15 1.00382 0
1.67116e-15 1.00382 0
-1.09335e-14 1.00382 0
3.45146e-14 1.00382 0
7.46307e-15 1.00539 0
3.42485e-14 1.00539 0
3.45146e-14 1.00382 0
3.21203e-15 1.00382 0
3.42485e-14 1.00539 0
-3.82436e-16 1.00539 0
-4.1558e-14 1.00539 0
-6.7379e-15 1.00539 0
-2.79121e-14 1.00685 0
-8.19255e-15 1.00685 0
-6.7379e-15 1.00539 0
1.06474e-15 1.00539 0
-8.19255e-15 1.00685 0
-2.4482e-15 1.00685 0
3.21203e-15 1.00382 0
1.83019e-15 1.00382 0
-3.82436e-16 1.00539 0
5.31582e-15 1.00539 0
1.83019e-15 1.00382 0
1.17299e-15 1.00382 0
5.31582e-15 1.00539 0
2.49806e-15 1.00539 0
1.06474e-15 1.00539 0
-2.737e-15 1.00539 0
-2.4482e-15 1.00685 0
1.22045e-15 1.00685 0
-2.737e-15 1.00539 0
2.44189e-15 1.00539 0
1.22045e-15 1.00685 0
-2.05626e-15 1.00685 0
0 1.00685 0
-6.70491e-14 1.00685 0
0 1.0083 0
-7.60775e-14 1.0083 0
-6.70491e-14 1.00685 0
-5.72805e-14 1.00685 0
-7.60775e-14 1.0083 0
-5.18478e-14 1.0083 0
0 1.0083 0
7.05118e-14 1.0083 0
0 1.00972 0
6.45192e-14 1.00972 0
7.05118e-14 1.0083 0
8.94656e-14 1.0083 0
6.45192e-14 1.00972 0
8.9723e-14 1.00972 0
-5.72805e-14 1.00685 0
-5.11397e-14 1.00685 0
-5.18478e-14 1.0083 0
-4.14307e-14 1.0083 0
-5.11397e-14 1.00685 0
6.31804e-14 1.00685 0
-4.14307e-14 1.0083 0
5.25426e-14 1.0083 0
8.94656e-14 1.0083 0
6.1245e-14 1.0083 0
8.9723e-14 1.00972 0
6.12927e-14 1.00972 0
6.1245e-14 1.0083 0
-6.86327e-14 1.0083 0
6.12927e-14 1.00972 0
-6.3553e-14 1.00972 0
0 1.00972 0
2.53038e-14 1.00972 0
0 1.01112 0
1.79124e-14 1.01112 0
2.53038e-14 1.00972 0
-1.9502e-13 1.00972 0
1.79124e-14 1.01112 0
-1.89287e-13 1.01112 0
0 1.01112 0
-5.26113e-15 1.01112 0
0 1.01249 0
-3.36331e-15 1.01249 0
-5.26113e-15 1.01112 0
1.84314e-13 1.01112 0
-3.36331e-15 1.01249 0
1.79143e-13 1.01249 0
-1.9502e-13 1.00972 0
-4.55545e-14 1.00972 0
-1.89287e-13 1.01112 0
-3.84276e-14 1.01112 0
-4.55545e-14 1.00972 0
1.51325e-13 1.00972 0
-3.84276e-14 1.01112 0
1.42616e-13 1.01112 0
1.84314e-13 1.01112 0
2.52319e-14 1.01112 0
1.79143e-13 1.01249 0
2.88592e-14 1.01249 0
2.52319e-14 1.01112 0
-1.6344e-13 1.01112 0
2.88592e-14 1.01249 0
-1.54825e-13 1.01249 0
6.31804e-14 1.00685 0
5.43979e-15 1.00685 0
5.25426e-14 1.0083 0
9.69937e-15 1.0083 0
5.43979e-15 1.00685 0
2.5093e-15 1.00685 0
9.69937e-15 1.0083 0
-3.11167e-15 1.0083 0
-6.86327e-14 1.0083 0
-1.09136e-14 1.0083 0
-6.3553e-14 1.00972 0
-1.86434e-14 1.00972 0
-1.09136e-14 1.0083 0
-2.7691e-16 1.0083 0
-1.86434e-14 1.00972 0
-2.52418e-15 1.00972 0
2.5093e-15 1.00685 0
-2.46877e-15 1.00685 0
-3.11167e-15 1.0083 0
5.89995e-15 1.0083 0
-2.46877e-15 1.00685 0
-4.30054e-15 1.00685 0
5.89995e-15 1.0083 0
9.09941e-15 1.0083 0
-2.7691e-16 1.0083 0
-7.38137e-15 1.0083 0
-2.52418e-15 1.00972 0
9.52759e-15 1.00972 0
-7.38137e-15 1.0083 0
1.72912e-14 1.0083 0
9.52759e-15 1.00972 0
1.8267e-14 1.00972 0
1.51325e-13 1.00972 0
-1.99229e-14 1.00972 0
1.42616e-13 1.01112 0
-1.51807e-14 1.01112 0
-1.99229e-14 1.00972 0
2.36087e-15 1.00972 0
-1.51807e-14 1.01112 0
7.7295e-15 1.01112 0
-1.6344e-13 1.01112 0
-3.99278e-14 1.01112 0
-1.54825e-13 1.01249 0
-3.21968e-14 1.01249 0
-3.99278e-14 1.01112 0
-4.70174e-15 1.01112 0
-3.21968e-14 1.01249 0
4.81681e-15 1.01249 0
2.36087e-15 1.00972 0
-1.50694e-15 1.00972 0
7.7295e-15 1.01112 0
3.21697e-15 1.01112 0
-1.50694e-15 1.00972 0
-1.46954e-14 1.00972 0
3.21697e-15 1.01112 0
-3.81195e-15 1.01112 0
-4.70174e-15 1.01112 0
8.41325e-15 1.01112 0
4.81681e-15 1.01249 0
9.13534e-15 1.01249 0
8.41325e-15 1.01112 0
-1.68478e-14 1.01112 0
9.13534e-15 1.01249 0
1.59797e-15 1.01249 0
-5.01299e-15 1 0
-8.66828e-16 1 0
3.60808e-15 1.00252 0
1.15109e-15 1.00252 0
-8.66828e-16 1 0
1.46448e-15 1 0
1.15109e-15 1.00252 0
4.55406e-15 1.00252 0
-8.86037e-16 1.00252 0
5.96574e-15 1.00252 0
1.67116e-15 1.00382 0
-1.63457e-15 1.00382 0
5.96574e-15 1.00252 0
-8.02251e-15 1.00252 0
-1.63457e-15 1.00382 0
2.90605e-15 1.00382 0
1.46448e-15 1 0
2.62076e-15 1 0
4.55406e-15 1.00252 0
4.89406e-15 1.00252 0
2.62076e-15 1 0
-1.64533e-15 1 0
4.89406e-15 1.00252 0
8.89833e-15 1.00252 0
-8.02251e-15 1.00252 0
-1.43107e-14 1.00252 0
2.90605e-15 1.00382 0
1.15352e-14 1.00382 0
-1.43107e-14 1.00252 0
-2.18744e-15 1.00252 0
1.15352e-14 1.00382 0
-4.85015e-16 1.00382 0
1.17299e-15 1.00382 0
-1.60797e-15 1.00382 0
2.49806e-15 1.00539 0
4.21536e-15 1.00539 0
-1.60797e-15 1.00382 0
4.44606e-15 1.00382 0
4.21536e-15 1.00539 0
-5.65464e-16 1.00539 0
2.44189e-15 1.00539 0
6.99661e-15 1.00539 0
-2.05626e-15 1.00685 0
1.30631e-15 1.00685 0
6.99661e-15 1.00539 0
8.82415e-15 1.00539 0
1.30631e-15 1.00685 0
5.31576e-15 1.00685 0
4.44606e-15 1.00382 0
1.22186e-14 1.00382 0
-5.65464e-16 1.00539 0
-1.72596e-15 1.00539 0
1.22186e-14 1.00382 0
7.41052e-15 1.00382 0
-1.72596e-15 1.00539 0
5.66263e-15 1.00539 0
8.82415e-15 1.00539 0
-1.51212e-15 1.00539 0
5.31576e-15 1.00685 0
1.84184e-15 1.00685 0
-1.51212e-15 1.00539 0
3.80364e-15 1.00539 0
1.84184e-15 1.00685 0
4.4507e-15 1.00685 0
-1.64533e-15 1 0
3.64514e-16 1 0
8.89833e-15 1.00252 0
1.20369e-14 1.00252 0
3.64514e-16 1 0
8.12037e-16 1 0
1.20369e-14 1.00252 0
1.12887e-14 1.00252 0
-2.18744e-15 1.00252 0
-4.06382e-15 1.00252 0
-4.85015e-16 1.00382 0
5.21848e-15 1.00382 0
-4.06382e-15 1.00252 0
-1.19058e-14 1.00252 0
5.21848e-15 1.00382 0
1.51011e-14 1.00382 0
8.12037e-16 1 0
4.41349e-15 1 0
1.12887e-14 1.00252 0
7.74424e-15 1.00252 0
4.41349e-15 1 0
5.33147e-15 1 0
7.74424e-15 1.00252 0
9.27819e-15 1.00252 0
-1.19058e-14 1.00252 0
1.47704e-15 1.00252 0
1.51011e-14 1.00382 0
4.00844e-15 1.00382 0
1.47704e-15 1.00252 0
-6.59689e-15 1.00252 0
4.00844e-15 1.00382 0
2.05852e-15 1.00382 0
7.41052e-15 1.00382 0
-1.41988e-14 1.00382 0
5.66263e-15 1.00539 0
1.43465e-14 1.00539 0
-1.41988e-14 1.00382 0
6.87168e-15 1.00382 0
1.43465e-14 1.00539 0
-2.88887e-15 1.00539 0
3.80364e-15 1.00539 0
1.27588e-15 1.00539 0
4.4507e-15 1.00685 0
3.70089e-15 1.00685 0
1.27588e-15 1.00539 0
2.65126e-15 1.00539 0
3.70089e-15 1.00685 0
-2.23804e-15 1.00685 0
6.87168e-15 1.00382 0
-3.7544e-15 1.00382 0
-2.88887e-15 1.00539 0
3.87934e-15 1.00539 0
-3.7544e-15 1.00382 0
-3.44358e-17 1.00382 0
3.87934e-15 1.00539 0
4.26789e-15 1.00539 0
2.65126e-15 1.00539 0
4.68766e-15 1.00539 0
-2.23804e-15 1.00685 0
3.08531e-15 1.00685 0
4.68766e-15 1.00539 0
-9.12482e-16 1.00539 0
3.08531e-15 1.00685 0
5.28855e-15 1.00685 0
-4.30054e-15 1.00685 0
2.97168e-15 1.00685 0
9.09941e-15 1.0083 0
-4.12024e-15 1.0083 0
2.97168e-15 1.00685 0
-1.03684e-14 1.00685 0
-4.12024e-15 1.0083 0
4.16647e-16 1.0083 0
1.72912e-14 1.0083 0
-9.77497e-15 1.0083 0
1.8267e-14 1.00972 0
6.44202e-15 1.00972 0
-9.77497e-15 1.0083 0
1.91008e-15 1.0083 0
6.44202e-15 1.00972 0
-2.94148e-15 1.00972 0
-1.03684e-14 1.00685 0
8.31365e-16 1.00685 0
4.16647e-16 1.0083 0
2.19131e-15 1.0083 0
8.31365e-16 1.00685 0
-5.70934e-15 1.00685 0
2.19131e-15 1.0083 0
3.75228e-15 1.0083 0
1.91008e-15 1.0083 0
-1.50599e-15 1.0083 0
-2.94148e-15 1.00972 0
5.67261e-15 1.00972 0
-1.50599e-15 1.0083 0
9.05083e-18 1.0083 0
5.67261e-15 1.00972 0
5.08393e-15 1.00972 0
-1.46954e-14 1.00972 0
2.46371e-15 1.00972 0
-3.81195e-15 1.01112 0
1.63259e-14 1.01112 0
2.46371e-15 1.00972 0
1.10324e-15 1.00972 0
1.63259e-14 1.01112 0
3.04529e-15 1.01112 0
-1.68478e-14 1.01112 0
-9.05894e-15 1.01112 0
1.59797e-15 1.01249 0
7.95728e-16 1.01249 0
-9.05894e-15 1.01112 0
2.26513e-14 1.01112 0
7.95728e-16 1.01249 0
2.29784e-14 1.01249 0
1.10324e-15 1.00972 0
-2.32757e-15 1.00972 0
3.04529e-15 1.01112 0
5.71383e-15 1.01112 0
-2.32757e-15 1.00972 0
-4.80248e-15 1.00972 0
5.71383e-15 1.01112 0
5.53007e-15 1.01112 0
2.26513e-14 1.01112 0
3.55206e-15 1.01112 0
2.29784e-14 1.01249 0
1.87997e-17 1.01249 0
3.55206e-15 1.01112 0
-2.29514e-15 1.01112 0
1.87997e-17 1.01249 0
7.2328e-15 1.01249 0
-5.70934e-15 1.00685 0
-3.81843e-16 1.00685 0
3.75228e-15 1.0083 0
4.88953e-15 1.0083 0
-3.81843e-16 1.00685 0
6.26403e-15 1.00685 0
4.88953e-15 1.0083 0
4.07696e-15 1.0083 0
9.05083e-18 1.0083 0
-5.36353e-15 1.0083 0
5.08393e-15 1.00972 0
4.85022e-15 1.00972 0
-5.36353e-15 1.0083 0
4.12208e-15 1.0083 0
4.85022e-15 1.00972 0
-1.27215e-15 1.00972 0
6.26403e-15 1.00685 0
9.81758e-15 1.00685 0
4.07696e-15 1.0083 0
-1.98993e-15 1.0083 0
9.81758e-15 1.00685 0
2.31284e-15 1.00685 0
-1.98993e-15 1.0083 0
4.03029e-15 1.0083 0
4.12208e-15 1.0083 0
-3.10746e-15 1.0083 0
-1.27215e-15 1.00972 0
9.17548e-15 1.00972 0
-3.10746e-15 1.0083 0
-1.18075e-15 1.0083 0
9.17548e-15 1.00972 0
7.76013e-15 1.00972 0
-4.80248e-15 1.00972 0
1.02667e-15 1.00972 0
5.53007e-15 1.01112 0
4.7672e-16 1.01112 0
1.02667e-15 1.00972 0
-3.86829e-15 1.00972 0
4.7672e-16 1.01112 0
4.58568e-15 1.01112 0
-2.29514e-15 1.01112 0
2.62068e-15 1.01112 0
7.2328e-15 1.01249 0
-2.18542e-15 1.01249 0
2.62068e-15 1.01112 0
7.07961e-16 1.01112 0
-2.18542e-15 1.01249 0
1.06312e-15 1.01249 0
-3.86829e-15 1.00972 0
-2.38536e-15 1.00972 0
4.58568e-15 1.01112 0
6.55932e-15 1.01112 0
-2.38536e-15 1.00972 0
-6.7035e-15 1.00972 0
6.55932e-15 1.01112 0
1.14413e-14 1.01112 0
7.07961e-16 1.01112 0
-5.49841e-15 1.01112 0
1.06312e-15 1.01249 0
1.0612e-15 1.01249 0
-5.49841e-15 1.01112 0
1.08329e-15 1.01112 0
1.0612e-15 1.01249 0
-3.69779e-15 1.01249 0
0 1.01249 0
-3.34598e-14 1.01249 0
0 1.01386 0
-2.74372e-14 1.01386 0
-3.34598e-14 1.01249 0
-1.2349e-13 1.01249 0
-2.74372e-14 1.01386 0
-1.20019e-13 1.01386 0
0 1.01386 0
2.37588e-14 1.01386 0
0 1.01521 0
1.97984e-14 1.01521 0
2.37588e-14 1.01386 0
1.07113e-13 1.01386 0
1.97984e-14 1.01521 0
1.09917e-13 1.01521 0
-1.2349e-13 1.01249 0
3.69259e-14 1.01249 0
-1.20019e-13 1.01386 0
3.26916e-14 1.01386 0
3.69259e-14 1.01249 0
1.11255e-13 1.01249 0
3.26916e-14 1.01386 0
1.12129e-13 1.01386 0
1.07113e-13 1.01386 0
-1.03552e-13 1.01386 0
1.09917e-13 1.01521 0
-1.02012e-13 1.01521 0
-1.03552e-13 1.01386 0
-6.73036e-14 1.01386 0
-1.02012e-13 1.01521 0
-6.29171e-14 1.01521 0
0 1.01521 0
-3.76658e-14 1.01521 0
0 1.01657 0
-3.82025e-14 1.01657 0
-3.76658e-14 1.01521 0
-9.52169e-14 1.01521 0
-3.82025e-14 1.01657 0
-9.46724e-14 1.01657 0
0 1.01657 0
2.35472e-14 1.01657 0
0 1.01795 0
2.1262e-14 1.01795 0
2.35472e-14 1.01657 0
5.31174e-14 1.01657 0
2.1262e-14 1.01795 0
5.38229e-14 1.01795 0
-9.52169e-14 1.01521 0
4.82443e-14 1.01521 0
-9.46724e-14 1.01657 0
4.83677e-14 1.01657 0
4.82443e-14 1.01521 0
2.30138e-14 1.01521 0
4.83677e-14 1.01657 0
2.72745e-14 1.01657 0
5.31174e-14 1.01657 0
-1.46963e-14 1.01657 0
5.38229e-14 1.01795 0
-1.05008e-14 1.01795 0
-1.46963e-14 1.01657 0
-2.36376e-15 1.01657 0
-1.05008e-14 1.01795 0
-2.82251e-15 1.01795 0
1.11255e-13 1.01249 0
3.41783e-14 1.01249 0
1.12129e-13 1.01386 0
4.64495e-14 1.01386 0
3.41783e-14 1.01249 0
1.2897e-16 1.01249 0
4.64495e-14 1.01386 0
-7.73012e-17 1.01386 0
-6.73036e-14 1.01386 0
1.00848e-15 1.01386 0
-6.29171e-14 1.01521 0
9.64896e-15 1.01521 0
1.00848e-15 1.01386 0
-3.75699e-15 1.01386 0
9.64896e-15 1.01521 0
7.81607e-16 1.01521 0
1.2897e-16 1.01249 0
-8.06357e-15 1.01249 0
-7.73012e-17 1.01386 0
-3.8489e-15 1.01386 0
-8.06357e-15 1.01249 0
8.90097e-15 1.01249 0
-3.8489e-15 1.01386 0
1.41536e-14 1.01386 0
-3.75699e-15 1.01386 0
-3.80332e-15 1.01386 0
7.81607e-16 1.01521 0
8.48765e-15 1.01521 0
-3.80332e-15 1.01386 0
-6.54449e-15 1.01386 0
8.48765e-15 1.01521 0
-4.23381e-16 1.01521 0
2.30138e-14 1.01521 0
-9.74246e-15 1.01521 0
2.72745e-14 1.01657 0
-1.51932e-14 1.01657 0
-9.74246e-15 1.01521 0
8.75768e-16 1.01521 0
-1.51932e-14 1.01657 0
4.72573e-15 1.01657 0
-2.36376e-15 1.01657 0
6.40964e-15 1.01657 0
-2.82251e-15 1.01795 0
1.1165e-15 1.01795 0
6.40964e-15 1.01657 0
-3.25204e-15 1.01657 0
1.1165e-15 1.01795 0
-2.13565e-16 1.01795 0
8.75768e-16 1.01521 0
-1.11606e-15 1.01521 0
4.72573e-15 1.01657 0
9.38408e-16 1.01657 0
-1.11606e-15 1.01521 0
-7.88818e-15 1.01521 0
9.38408e-16 1.01657 0
5.18469e-15 1.01657 0
-3.25204e-15 1.01657 0
-4.64103e-15 1.01657 0
-2.13565e-16 1.01795 0
4.01158e-15 1.01795 0
-4.64103e-15 1.01657 0
-4.39776e-15 1.01657 0
4.01158e-15 1.01795 0
3.83119e-15 1.01795 0
0 1.01795 0
3.66665e-14 1.01795 0
0 1.01933 0
3.83235e-14 1.01933 0
3.66665e-14 1.01795 0
-2.94935e-14 1.01795 0
3.83235e-14 1.01933 0
-2.49832e-14 1.01933 0
0 1.01933 0
-3.85229e-14 1.01933 0
0 1.02068 0
-3.10263e-14 1.02068 0
-3.85229e-14 1.01933 0
4.20059e-14 1.01933 0
-3.10263e-14 1.02068 0
4.00309e-14 1.02068 0
-2.94935e-14 1.01795 0
5.00564e-15 1.01795 0
-2.49832e-14 1.01933 0
4.7495e-15 1.01933 0
5.00564e-15 1.01795 0
-1.2591e-14 1.01795 0
4.7495e-15 1.01933 0
-9.2966e-15 1.01933 0
4.20059e-14 1.01933 0
-3.99421e-15 1.01933 0
4.00309e-14 1.02068 0
3.52007e-15 1.02068 0
-3.99421e-15 1.01933 0
-9.45978e-16 1.01933 0
3.52007e-15 1.02068 0
1.71419e-15 1.02068 0
0 1.02068 0
1.01939e-14 1.02068 0
0 1.02186 0
6.98475e-15 1.02186 0
1.01939e-14 1.02068 0
-2.85027e-14 1.02068 0
6.98475e-15 1.02186 0
-2.9092e-14 1.02186 0
0 1.02186 0
2.14603e-16 1.02186 0
0 1.02239 0
-9.03781e-15 1.02239 0
2.14603e-16 1.02186 0
-7.87336e-15 1.02186 0
-9.03781e-15 1.02239 0
9.32509e-15 1.02239 0
-2.85027e-14 1.02068 0
-3.67463e-16 1.02068 0
-2.9092e-14 1.02186 0
-1.00296e-15 1.02186 0
-3.67463e-16 1.02068 0
3.92683e-15 1.02068 0
-1.00296e-15 1.02186 0
2.0687e-16 1.02186 0
-7.87336e-15 1.02186 0
-5.30588e-15 1.02186 0
9.32509e-15 1.02239 0
-1.62338e-14 1.02239 0
-5.30588e-15 1.02186 0
-5.17024e-16 1.02186 0
-1.62338e-14 1.02239 0
1.82772e-14 1.02239 0
-1.2591e-14 1.01795 0
-6.41114e-15 1.01795 0
-9.2966e-15 1.01933 0
-5.13851e-16 1.01933 0
-6.41114e-15 1.01795 0
9.85381e-16 1.01795 0
-5.13851e-16 1.01933 0
1.32024e-15 1.01933 0
-9.45978e-16 1.01933 0
-1.62657e-15 1.01933 0
1.71419e-15 1.02068 0
2.78959e-15 1.02068 0
-1.62657e-15 1.01933 0
-3.23875e-15 1.01933 0
2.78959e-15 1.02068 0
1.90499e-15 1.02068 0
9.85381e-16 1.01795 0
-1.72255e-15 1.01795 0
1.32024e-15 1.01933 0
3.82423e-15 1.01933 0
-1.72255e-15 1.01795 0
-7.75855e-16 1.01795 0
3.82423e-15 1.01933 0
2.40284e-15 1.01933 0
-3.23875e-15 1.01933 0
-4.02317e-15 1.01933 0
1.90499e-15 1.02068 0
2.49315e-16 1.02068 0
-4.02317e-15 1.01933 0
-2.80022e-15 1.01933 0
2.49315e-16 1.02068 0
6.11678e-16 1.02068 0
3.92683e-15 1.02068 0
-5.19432e-15 1.02068 0
2.0687e-16 1.02186 0
-5.67147e-16 1.02186 0
-5.19432e-15 1.02068 0
-1.79343e-15 1.02068 0
-5.67147e-16 1.02186 0
1.54608e-15 1.02186 0
-5.17024e-16 1.02186 0
-2.71811e-15 1.02186 0
1.82772e-14 1.02239 0
1.10944e-15 1.02239 0
-2.71811e-15 1.02186 0
-1.54332e-15 1.02186 0
1.10944e-15 1.02239 0
-6.5342e-16 1.02239 0
-1.79343e-15 1.02068 0
-2.27542e-15 1.02068 0
1.54608e-15 1.02186 0
1.54646e-15 1.02186 0
-2.27542e-15 1.02068 0
1.34581e-16 1.02068 0
1.54646e-15 1.02186 0
5.04442e-16 1.02186 0
-1.54332e-15 1.02186 0
-2.97443e-16 1.02186 0
-6.5342e-16 1.02239 0
6.12307e-15 1.02239 0
-2.97443e-16 1.02186 0
1.3438e-15 1.02186 0
6.12307e-15 1.02239 0
-1.94684e-14 1.02239 0
8.90097e-15 1.01249 0
5.64612e-15 1.01249 0
1.41536e-14 1.01386 0
1.21405e-14 1.01386 0
5.64612e-15 1.01249 0
-1.80952e-14 1.01249 0
1.21405e-14 1.01386 0
-1.75722e-14 1.01386 0
-6.54449e-15 1.01386 0
-4.3101e-15 1.01386 0
-4.23381e-16 1.01521 0
3.69895e-15 1.01521 0
-4.3101e-15 1.01386 0
1.92762e-15 1.01386 0
3.69895e-15 1.01521 0
2.01782e-15 1.01521 0
-1.80952e-14 1.01249 0
5.58688e-16 1.01249 0
-1.75722e-14 1.01386 0
1.29665e-15 1.01386 0
5.58688e-16 1.01249 0
-6.03899e-15 1.01249 0
1.29665e-15 1.01386 0
8.05182e-15 1.01386 0
1.92762e-15 1.01386 0
-1.62573e-15 1.01386 0
2.01782e-15 1.01521 0
5.55857e-15 1.01521 0
-1.62573e-15 1.01386 0
-2.00284e-15 1.01386 0
5.55857e-15 1.01521 0
3.65334e-15 1.01521 0
-7.88818e-15 1.01521 0
-4.23133e-15 1.01521 0
5.18469e-15 1.01657 0
4.8318e-15 1.01657 0
-4.23133e-15 1.01521 0
-7.32464e-15 1.01521 0
4.8318e-15 1.01657 0
9.00221e-15 1.01657 0
-4.39776e-15 1.01657 0
-4.00845e-15 1.01657 0
3.83119e-15 1.01795 0
3.92257e-15 1.01795 0
-4.00845e-15 1.01657 0
-2.19261e-15 1.01657 0
3.92257e-15 1.01795 0
5.38629e-16 1.01795 0
-7.32464e-15 1.01521 0
6.16807e-16 1.01521 0
9.00221e-15 1.01657 0
2.79644e-17 1.01657 0
6.16807e-16 1.01521 0
-7.62508e-16 1.01521 0
2.79644e-17 1.01657 0
6.056e-17 1.01657 0
-2.19261e-15 1.01657 0
-3.45054e-15 1.01657 0
5.38629e-16 1.01795 0
2.70363e-15 1.01795 0
-3.45054e-15 1.01657 0
3.32275e-15 1.01657 0
2.70363e-15 1.01795 0
1.66058e-16 1.01795 0
-6.03899e-15 1.01249 0
3.5891e-15 1.01249 0
8.05182e-15 1.01386 0
2.37296e-15 1.01386 0
3.5891e-15 1.01249 0
3.01906e-15 1.01249 0
2.37296e-15 1.01386 0
5.64962e-15 1.01386 0
-2.00284e-15 1.01386 0
-2.97013e-15 1.01386 0
3.65334e-15 1.01521 0
6.58663e-15 1.01521 0
-2.97013e-15 1.01386 0
-1.13705e-15 1.01386 0
6.58663e-15 1.01521 0
3.38198e-16 1.01521 0
3.01906e-15 1.01249 0
-2.85576e-15 1.01249 0
5.64962e-15 1.01386 0
4.14114e-15 1.01386 0
-2.85576e-15 1.01249 0
1.87482e-15 1.01249 0
4.14114e-15 1.01386 0
2.90477e-15 1.01386 0
-1.13705e-15 1.01386 0
-1.01846e-16 1.01386 0
3.38198e-16 1.01521 0
2.15078e-15 1.01521 0
-1.01846e-16 1.01386 0
-3.14637e-15 1.01386 0
2.15078e-15 1.01521 0
3.87345e-15 1.01521 0
-7.62508e-16 1.01521 0
-6.5251e-15 1.01521 0
6.056e-17 1.01657 0
1.58544e-15 1.01657 0
-6.5251e-15 1.01521 0
2.47405e-15 1.01521 0
1.58544e-15 1.01657 0
1.42801e-15 1.01657 0
3.32275e-15 1.01657 0
3.92095e-16 1.01657 0
1.66058e-16 1.01795 0
4.09921e-15 1.01795 0
3.92095e-16 1.01657 0
-4.78563e-15 1.01657 0
4.09921e-15 1.01795 0
5.04188e-15 1.01795 0
2.47405e-15 1.01521 0
1.02646e-15 1.01521 0
1.42801e-15 1.01657 0
3.21626e-15 1.01657 0
1.02646e-15 1.01521 0
-7.14347e-16 1.01521 0
3.21626e-15 1.01657 0
4.92257e-15 1.01657 0
-4.78563e-15 1.01657 0
8.04002e-16 1.01657 0
5.04188e-15 1.01795 0
-2.9082e-15 1.01795 0
8.04002e-16 1.01657 0
6.88763e-15 1.01657 0
-2.9082e-15 1.01795 0
-4.29193e-15 1.01795 0
-7.75855e-16 1.01795 0
-6.17933e-15 1.01795 0
2.40284e-15 1.01933 0
5.41566e-16 1.01933 0
-6.17933e-15 1.01795 0
-1.97691e-15 1.01795 0
5.41566e-16 1.01933 0
1.02847e-15 1.01933 0
-2.80022e-15 1.01933 0
5.29936e-16 1.01933 0
6.11678e-16 1.02068 0
1.94532e-15 1.02068 0
5.29936e-16 1.01933 0
-6.12513e-16 1.01933 0
1.94532e-15 1.02068 0
1.64322e-15 1.02068 0
-1.97691e-15 1.01795 0
8.70346e-16 1.01795 0
1.02847e-15 1.01933 0
4.40667e-15 1.01933 0
8.70346e-16 1.01795 0
-1.35054e-15 1.01795 0
4.40667e-15 1.01933 0
3.65633e-15 1.01933 0