# vtk DataFile Version 3.0
#This file was generated by the deal.II library on 2018/10/12 at 0:56:53
ASCII
DATASET UNSTRUCTURED_GRID

POINTS 5120 double
0 0 0
0.392699 0 0
0 0.60265 0
0.392699 0.60265 0
0.392699 0 0
0.785398 0 0
0.392699 0.60265 0
0.785398 0.60265 0
0 0.60265 0
0.392699 0.60265 0
0 1.2293 0
0.392699 1.2293 0
0.392699 0.60265 0
0.785398 0.60265 0
0.392699 1.2293 0
0.785398 1.2293 0
0.785398 0 0
1.1781 0 0
0.785398 0.60265 0
1.1781 0.60265 0
1.1781 0 0
1.5708 0 0
1.1781 0.60265 0
1.5708 0.60265 0
0.785398 0.60265 0
1.1781 0.60265 0
0.785398 1.2293 0
1.1781 1.2293 0
1.1781 0.60265 0
1.5708 0.60265 0
1.1781 1.2293 0
1.5708 1.2293 0
0 1.2293 0
0.392699 1.2293 0
0 1.8551 0
0.392699 1.8551 0
0.392699 1.2293 0
0.785398 1.2293 0
0.392699 1.8551 0
0.785398 1.8551 0
0 1.8551 0
0.392699 1.8551 0
0 2.48171 0
0.392699 2.48171 0
0.392699 1.8551 0
0.785398 1.8551 0
0.392699 2.48171 0
0.785398 2.48171 0
0.785398 1.2293 0
1.1781 1.2293 0
0.785398 1.8551 0
1.1781 1.8551 0
1.1781 1.2293 0
1.5708 1.2293 0
1.1781 1.8551 0
1.5708 1.8551 0
0.785398 1.8551 0
1.1781 1.8551 0
0.785398 2.48171 0
1.1781 2.48171 0
1.1781 1.8551 0
1.5708 1.8551 0
1.1781 2.48171 0
1.5708 2.48171 0
1.5708 0 0
1.9635 0 0
1.5708 0.60265 0
1.9635 0.60265 0
1.9635 0 0
2.35619 0 0
1.9635 0.60265 0
2.35619 0.60265 0
1.5708 0.60265 0
1.9635 0.60265 0
1.5708 1.2293 0
1.9635 1.2293 0
1.9635 0.60265 0
2.35619 0.60265 0
1.9635 1.2293 0
2.35619 1.2293 0
2.35619 0 0
2.74889 0 0
2.35619 0.60265 0
2.74889 0.60265 0
2.74889 0 0
3.14159 0 0
2.74889 0.60265 0
3.14159 0.60265 0
2.35619 0.60265 0
2.74889 0.60265 0
2.35619 1.2293 0
2.74889 1.2293 0
2.74889 0.60265 0
3.14159 0.60265 0
2.74889 1.2293 0
3.14159 1.2293 0
1.5708 1.2293 0
1.9635 1.2293 0
1.5708 1.8551 0
1.9635 1.8551 0
1.9635 1.2293 0
2.35619 1.2293 0
1.9635 1.8551 0
2.35619 1.8551 0
1.5708 1.8551 0
1.9635 1.8551 0
1.5708 2.48171 0
1.9635 2.48171 0
1.9635 1.8551 0
2.35619 1.8551 0
1.9635 2.48171 0
2.35619 2.48171 0
2.35619 1.2293 0
2.74889 1.2293 0
2.35619 1.8551 0
2.74889 1.8551 0
2.74889 1.2293 0
3.14159 1.2293 0
2.74889 1.8551 0
3.14159 1.8551 0
2.35619 1.8551 0
2.74889 1.8551 0
2.35619 2.48171 0
2.74889 2.48171 0
2.74889 1.8551 0
3.14159 1.8551 0
2.74889 2.48171 0
3.14159 2.48171 0
0 2.48171 0
0.392699 2.48171 0
0 3.10809 0
0.392699 3.10809 0
0.392699 2.48171 0
0.785398 2.48171 0
0.392699 3.10809 0
0.785398 3.10809 0
0 3.10809 0
0.392699 3.10809 0
0 3.73449 0
0.392699 3.73449 0
0.392699 3.10809 0
0.785398 3.10809 0
0.392699 3.73449 0
0.785398 3.73449 0
0.785398 2.48171 0
1.1781 2.48171 0
0.785398 3.10809 0
1.1781 3.10809 0
1.1781 2.48171 0
1.5708 2.48171 0
1.1781 3.10809 0
1.5708 3.10809 0
0.785398 3.10809 0
1.1781 3.10809 0
0.785398 3.73449 0
1.1781 3.73449 0
1.1781 3.10809 0
1.5708 3.10809 0
1.1781 3.73449 0
1.5708 3.73449 0
0 3.73449 0
0.392699 3.73449 0
0 4.36083 0
0.392699 4.36083 0
0.392699 3.73449 0
0.785398 3.73449 0
0.392699 4.36083 0
0.785398 4.36083 0
0 4.36083 0
0.392699 4.36083 0
0 4.9871 0
0.392699 4.9871 0
0.392699 4.36083 0
0.785398 4.36083 0
0.392699 4.9871 0
0.785398 4.9871 0
0.785398 3.73449 0
1.1781 3.73449 0
0.785398 4.36083 0
1.1781 4.36083 0
1.1781 3.73449 0
1.5708 3.73449 0
1.1781 4.36083 0
1.5708 4.36083 0
0.785398 4.36083 0
1.1781 4.36083 0
0.785398 4.9871 0
1.1781 4.9871 0
1.1781 4.36083 0
1.5708 4.36083 0
1.1781 4.9871 0
1.5708 4.9871 0
1.5708 2.48171 0
1.9635 2.48171 0
1.5708 3.10809 0
1.9635 3.10809 0
1.9635 2.48171 0
2.35619 2.48171 0
1.9635 3.10809 0
2.35619 3.10809 0
1.5708 3.10809 0
1.9635 3.10809 0
1.5708 3.73449 0
1.9635 3.73449 0
1.9635 3.10809 0
2.35619 3.10809 0
1.9635 3.73449 0
2.35619 3.73449 0
2.35619 2.48171 0
2.74889 2.48171 0
2.35619 3.10809 0
2.74889 3.10809 0
2.74889 2.48171 0
3.14159 2.48171 0
2.74889 3.10809 0
3.14159 3.10809 0
2.35619 3.10809 0
2.74889 3.10809 0
2.35619 3.73449 0
2.74889 3.73449 0
2.74889 3.10809 0
3.14159 3.10809 0
2.74889 3.73449 0
3.14159 3.73449 0
1.5708 3.73449 0
1.9635 3.73449 0
1.5708 4.36083 0
1.9635 4.36083 0
1.9635 3.73449 0
2.35619 3.73449 0
1.9635 4.36083 0
2.35619 4.36083 0
1.5708 4.36083 0
1.9635 4.36083 0
1.5708 4.9871 0
1.9635 4.9871 0
1.9635 4.36083 0
2.35619 4.36083 0
1.9635 4.9871 0
2.35619 4.9871 0
2.35619 3.73449 0
2.74889 3.73449 0
2.35619 4.36083 0
2.74889 4.36083 0
2.74889 3.73449 0
3.14159 3.73449 0
2.74889 4.36083 0
3.14159 4.36083 0
2.35619 4.36083 0
2.74889 4.36083 0
2.35619 4.9871 0
2.74889 4.9871 0
2.74889 4.36083 0
3.14159 4.36083 0
2.74889 4.9871 0
3.14159 4.9871 0
3.14159 0 0
3.53429 0 0
3.14159 0.60265 0
3.53429 0.60265 0
3.53429 0 0
3.92699 0 0
3.53429 0.60265 0
3.92699 0.60265 0
3.14159 0.60265 0
3.53429 0.60265 0
3.14159 1.2293 0
3.53429 1.2293 0
3.53429 0.60265 0
3.92699 0.60265 0
3.53429 1.2293 0
3.92699 1.2293 0
3.92699 0 0
4.31969 0 0
3.92699 0.60265 0
4.31969 0.60265 0
4.31969 0 0
4.71239 0 0
4.31969 0.60265 0
4.71239 0.60265 0
3.92699 0.60265 0
4.31969 0.60265 0
3.92699 1.2293 0
4.31969 1.2293 0
4.31969 0.60265 0
4.71239 0.60265 0
4.31969 1.2293 0
4.71239 1.2293 0
3.14159 1.2293 0
3.53429 1.2293 0
3.14159 1.8551 0
3.53429 1.8551 0
3.53429 1.2293 0
3.92699 1.2293 0
3.53429 1.8551 0
3.92699 1.8551 0
3.14159 1.8551 0
3.53429 1.8551 0
3.14159 2.48171 0
3.53429 2.48171 0
3.53429 1.8551 0
3.92699 1.8551 0
3.53429 2.48171 0
3.92699 2.48171 0
3.92699 1.2293 0
4.31969 1.2293 0
3.92699 1.8551 0
4.31969 1.8551 0
4.31969 1.2293 0
4.71239 1.2293 0
4.31969 1.8551 0
4.71239 1.8551 0
3.92699 1.8551 0
4.31969 1.8551 0
3.92699 2.48171 0
4.31969 2.48171 0
4.31969 1.8551 0
4.71239 1.8551 0
4.31969 2.48171 0
4.71239 2.48171 0
4.71239 0 0
5.10509 0 0
4.71239 0.60265 0
5.10509 0.60265 0
5.10509 0 0
5.49779 0 0
5.10509 0.60265 0
5.49779 0.60265 0
4.71239 0.60265 0
5.10509 0.60265 0
4.71239 1.2293 0
5.10509 1.2293 0
5.10509 0.60265 0
5.49779 0.60265 0
5.10509 1.2293 0
5.49779 1.2293 0
5.49779 0 0
5.89049 0 0
5.49779 0.60265 0
5.89049 0.60265 0
5.89049 0 0
6.28319 0 0
5.89049 0.60265 0
6.28319 0.60265 0
5.49779 0.60265 0
5.89049 0.60265 0
5.49779 1.2293 0
5.89049 1.2293 0
5.89049 0.60265 0
6.28319 0.60265 0
5.89049 1.2293 0
6.28319 1.2293 0
4.71239 1.2293 0
5.10509 1.2293 0
4.71239 1.8551 0
5.10509 1.8551 0
5.10509 1.2293 0
5.49779 1.2293 0
5.10509 1.8551 0
5.49779 1.8551 0
4.71239 1.8551 0
5.10509 1.8551 0
4.71239 2.48171 0
5.10509 2.48171 0
5.10509 1.8551 0
5.49779 1.8551 0
5.10509 2.48171 0
5.49779 2.48171 0
5.49779 1.2293 0
5.89049 1.2293 0
5.49779 1.8551 0
5.89049 1.8551 0
5.89049 1.2293 0
6.28319 1.2293 0
5.89049 1.8551 0
6.28319 1.8551 0
5.49779 1.8551 0
5.89049 1.8551 0
5.49779 2.48171 0
5.89049 2.48171 0
5.89049 1.8551 0
6.28319 1.8551 0
5.89049 2.48171 0
6.28319 2.48171 0
3.14159 2.48171 0
3.53429 2.48171 0
3.14159 3.10809 0
3.53429 3.10809 0
3.53429 2.48171 0
3.92699 2.48171 0
3.53429 3.10809 0
3.92699 3.10809 0
3.14159 3.10809 0
3.53429 3.10809 0
3.14159 3.73449 0
3.53429 3.73449 0
3.53429 3.10809 0
3.92699 3.10809 0
3.53429 3.73449 0
3.92699 3.73449 0
3.92699 2.48171 0
4.31969 2.48171 0
3.92699 3.10809 0
4.31969 3.10809 0
4.31969 2.48171 0
4.71239 2.48171 0
4.31969 3.10809 0
4.71239 3.10809 0
3.92699 3.10809 0
4.31969 3.10809 0
3.92699 3.73449 0
4.31969 3.73449 0
4.31969 3.10809 0
4.71239 3.10809 0
4.31969 3.73449 0
4.71239 3.73449 0
3.14159 3.73449 0
3.53429 3.73449 0
3.14159 4.36083 0
3.53429 4.36083 0
3.53429 3.73449 0
3.92699 3.73449 0
3.53429 4.36083 0
3.92699 4.36083 0
3.14159 4.36083 0
3.53429 4.36083 0
3.14159 4.9871 0
3.53429 4.9871 0
3.53429 4.36083 0
3.92699 4.36083 0
3.53429 4.9871 0
3.92699 4.9871 0
3.92699 3.73449 0
4.31969 3.73449 0
3.92699 4.36083 0
4.31969 4.36083 0
4.31969 3.73449 0
4.71239 3.73449 0
4.31969 4.36083 0
4.71239 4.36083 0
3.92699 4.36083 0
4.31969 4.36083 0
3.92699 4.9871 0
4.31969 4.9871 0
4.31969 4.36083 0
4.71239 4.36083 0
4.31969 4.9871 0
4.71239 4.9871 0
4.71239 2.48171 0
5.10509 2.48171 0
4.71239 3.10809 0
5.10509 3.10809 0
5.10509 2.48171 0
5.49779 2.48171 0
5.10509 3.10809 0
5.49779 3.10809 0
4.71239 3.10809 0
5.10509 3.10809 0
4.71239 3.73449 0
5.10509 3.73449 0
5.10509 3.10809 0
5.49779 3.10809 0
5.10509 3.73449 0
5.49779 3.73449 0
5.49779 2.48171 0
5.89049 2.48171 0
5.49779 3.10809 0
5.89049 3.10809 0
5.89049 2.48171 0
6.28319 2.48171 0
5.89049 3.10809 0
6.28319 3.10809 0
5.49779 3.10809 0
5.89049 3.10809 0
5.49779 3.73449 0
5.89049 3.73449 0
5.89049 3.10809 0
6.28319 3.10809 0
5.89049 3.73449 0
6.28319 3.73449 0
4.71239 3.73449 0
5.10509 3.73449 0
4.71239 4.36083 0
5.10509 4.36083 0
5.10509 3.73449 0
5.49779 3.73449 0
5.10509 4.36083 0
5.49779 4.36083 0
4.71239 4.36083 0
5.10509 4.36083 0
4.71239 4.9871 0
5.10509 4.9871 0
5.10509 4.36083 0
5.49779 4.36083 0
5.10509 4.9871 0
5.49779 4.9871 0
5.49779 3.73449 0
5.89049 3.73449 0
5.49779 4.36083 0
5.89049 4.36083 0
5.89049 3.73449 0
6.28319 3.73449 0
5.89049 4.36083 0
6.28319 4.36083 0
5.49779 4.36083 0
5.89049 4.36083 0
5.49779 4.9871 0
5.89049 4.9871 0
5.89049 4.36083 0
6.28319 4.36083 0
5.89049 4.9871 0
6.28319 4.9871 0
0 4.9871 0
0.392699 4.9871 0
0 5.6133 0
0.392699 5.6133 0
0.392699 4.9871 0
0.785398 4.9871 0
0.392699 5.6133 0
0.785398 5.6133 0
0 5.6133 0
0.392699 5.6133 0
0 6.23944 0
0.392699 6.23944 0
0.392699 5.6133 0
0.785398 5.6133 0
0.392699 6.23944 0
0.785398 6.23944 0
0.785398 4.9871 0
1.1781 4.9871 0
0.785398 5.6133 0
1.1781 5.6133 0
1.1781 4.9871 0
1.5708 4.9871 0
1.1781 5.6133 0
1.5708 5.6133 0
0.785398 5.6133 0
1.1781 5.6133 0
0.785398 6.23944 0
1.1781 6.23944 0
1.1781 5.6133 0
1.5708 5.6133 0
1.1781 6.23944 0
1.5708 6.23944 0
0 6.23944 0
0.392699 6.23944 0
0 6.86553 0
0.392699 6.86553 0
0.392699 6.23944 0
0.785398 6.23944 0
0.392699 6.86553 0
0.785398 6.86553 0
0 6.86553 0
0.392699 6.86553 0
0 7.49162 0
0.392699 7.49162 0
0.392699 6.86553 0
0.785398 6.86553 0
0.392699 7.49162 0
0.785398 7.49162 0
0.785398 6.23944 0
1.1781 6.23944 0
0.785398 6.86553 0
1.1781 6.86553 0
1.1781 6.23944 0
1.5708 6.23944 0
1.1781 6.86553 0
1.5708 6.86553 0
0.785398 6.86553 0
1.1781 6.86553 0
0.785398 7.49162 0
1.1781 7.49162 0
1.1781 6.86553 0
1.5708 6.86553 0
1.1781 7.49162 0
1.5708 7.49162 0
1.5708 4.9871 0
[...]
POINT_DATA 5120
VECTORS uf double
0 1 0
-8.65708e-14 1 0
0 1.00243 0
-9.02444e-14 1.00243 0
-8.65708e-14 1 0
-1.16291e-14 1 0
-9.02444e-14 1.00243 0
-9.75022e-15 1.00243 0
0 1.00243 0
4.47242e-14 1.00243 0
0 1.00367 0
4.10453e-14 1.00367 0
4.47242e-14 1.00243 0
1.39637e-14 1.00243 0
4.10453e-14 1.00367 0
8.24907e-15 1.00367 0
-1.16291e-14 1 0
1.62241e-13 1 0
-9.75022e-15 1.00243 0
1.61389e-13 1.00243 0
1.62241e-13 1 0
5.09105e-14 1 0
1.61389e-13 1.00243 0
5.17113e-14 1.00243 0
1.39637e-14 1.00243 0
-1.74663e-13 1.00243 0
8.24907e-15 1.00367 0
-1.56812e-13 1.00367 0
-1.74663e-13 1.00243 0
-5.22935e-14 1.00243 0
-1.56812e-13 1.00367 0
-4.4897e-14 1.00367 0
0 1.00367 0
2.00709e-14 1.00367 0
0 1.00519 0
1.92988e-14 1.00519 0
2.00709e-14 1.00367 0
1.69936e-14 1.00367 0
1.92988e-14 1.00519 0
1.37338e-14 1.00519 0
0 1.00519 0
3.75032e-14 1.00519 0
0 1.00659 0
4.00501e-14 1.00659 0
3.75032e-14 1.00519 0
4.86248e-14 1.00519 0
4.00501e-14 1.00659 0
4.96645e-14 1.00659 0
1.69936e-14 1.00367 0
7.66659e-15 1.00367 0
1.37338e-14 1.00519 0
5.42896e-15 1.00519 0
7.66659e-15 1.00367 0
-8.74574e-15 1.00367 0
5.42896e-15 1.00519 0
7.83919e-15 1.00519 0
4.86248e-14 1.00519 0
1.19721e-14 1.00519 0
4.96645e-14 1.00659 0
1.31802e-14 1.00659 0
1.19721e-14 1.00519 0
-3.31761e-14 1.00519 0
1.31802e-14 1.00659 0
-1.94941e-14 1.00659 0
5.09105e-14 1 0
-3.34265e-14 1 0
5.17113e-14 1.00243 0
-1.9109e-14 1.00243 0
-3.34265e-14 1 0
-5.95685e-15 1 0
-1.9109e-14 1.00243 0
-1.61879e-16 1.00243 0
-5.22935e-14 1.00243 0
2.86852e-14 1.00243 0
-4.4897e-14 1.00367 0
2.69386e-14 1.00367 0
2.86852e-14 1.00243 0
4.42866e-15 1.00243 0
2.69386e-14 1.00367 0
-4.4979e-16 1.00367 0
-5.95685e-15 1 0
4.66739e-15 1 0
-1.61879e-16 1.00243 0
-5.39217e-15 1.00243 0
4.66739e-15 1 0
1.61675e-15 1 0
-5.39217e-15 1.00243 0
1.32285e-15 1.00243 0
4.42866e-15 1.00243 0
-2.72776e-15 1.00243 0
-4.4979e-16 1.00367 0
7.78869e-15 1.00367 0
-2.72776e-15 1.00243 0
4.71767e-15 1.00243 0
7.78869e-15 1.00367 0
2.93953e-15 1.00367 0
-8.74574e-15 1.00367 0
2.42888e-14 1.00367 0
7.83919e-15 1.00519 0
3.01544e-14 1.00519 0
2.42888e-14 1.00367 0
8.39929e-15 1.00367 0
3.01544e-14 1.00519 0
1.14412e-15 1.00519 0
-3.31761e-14 1.00519 0
-1.88479e-15 1.00519 0
-1.94941e-14 1.00659 0
-1.36413e-14 1.00659 0
-1.88479e-15 1.00519 0
-2.39945e-15 1.00519 0
-1.36413e-14 1.00659 0
4.32014e-15 1.00659 0
8.39929e-15 1.00367 0
-4.59043e-15 1.00367 0
1.14412e-15 1.00519 0
1.33566e-14 1.00519 0
-4.59043e-15 1.00367 0
-2.73346e-15 1.00367 0
1.33566e-14 1.00519 0
8.65983e-15 1.00519 0
-2.39945e-15 1.00519 0
-9.31755e-15 1.00519 0
4.32014e-15 1.00659 0
3.05534e-15 1.00659 0
-9.31755e-15 1.00519 0
-4.54971e-15 1.00519 0
3.05534e-15 1.00659 0
3.57914e-15 1.00659 0
0 1.00659 0
-5.90484e-14 1.00659 0
0 1.00799 0
-6.38221e-14 1.00799 0
-5.90484e-14 1.00659 0
-8.55957e-14 1.00659 0
-6.38221e-14 1.00799 0
-7.2313e-14 1.00799 0
0 1.00799 0
4.40605e-14 1.00799 0
0 1.00936 0
3.23046e-14 1.00936 0
4.40605e-14 1.00799 0
8.5396e-14 1.00799 0
3.23046e-14 1.00936 0
8.55726e-14 1.00936 0
-8.55957e-14 1.00659 0
-3.10157e-14 1.00659 0
-7.2313e-14 1.00799 0
-1.54691e-14 1.00799 0
-3.10157e-14 1.00659 0
5.68234e-14 1.00659 0
-1.54691e-14 1.00799 0
4.212e-14 1.00799 0
8.5396e-14 1.00799 0
2.63389e-14 1.00799 0
8.55726e-14 1.00936 0
3.52147e-14 1.00936 0
2.63389e-14 1.00799 0
-6.12563e-14 1.00799 0
3.52147e-14 1.00936 0
-5.7666e-14 1.00936 0
0 1.00936 0
2.91534e-14 1.00936 0
0 1.01071 0
2.54304e-14 1.01071 0
2.91534e-14 1.00936 0
-1.68662e-13 1.00936 0
2.54304e-14 1.01071 0
-1.68191e-13 1.01071 0
0 1.01071 0
-1.41992e-14 1.01071 0
0 1.01204 0
-8.64934e-15 1.01204 0
-1.41992e-14 1.01071 0
1.59333e-13 1.01071 0
-8.64934e-15 1.01204 0
1.58423e-13 1.01204 0
-1.68662e-13 1.00936 0
-2.35528e-14 1.00936 0
-1.68191e-13 1.01071 0
-5.12049e-15 1.01071 0
-2.35528e-14 1.00936 0
1.24302e-13 1.00936 0
-5.12049e-15 1.01071 0
1.19958e-13 1.01071 0
1.59333e-13 1.01071 0
1.92454e-14 1.01071 0
1.58423e-13 1.01204 0
2.24776e-14 1.01204 0
1.92454e-14 1.01071 0
-1.54286e-13 1.01071 0
2.24776e-14 1.01204 0
-1.43182e-13 1.01204 0
5.68234e-14 1.00659 0
-1.09795e-14 1.00659 0
4.212e-14 1.00799 0
-1.29558e-14 1.00799 0
-1.09795e-14 1.00659 0
-3.71996e-15 1.00659 0
-1.29558e-14 1.00799 0
-6.58698e-16 1.00799 0
-6.12563e-14 1.00799 0
3.17478e-15 1.00799 0
-5.7666e-14 1.00936 0
5.15271e-15 1.00936 0
3.17478e-15 1.00799 0
1.22246e-15 1.00799 0
5.15271e-15 1.00936 0
2.24455e-15 1.00936 0
-3.71996e-15 1.00659 0
-2.50759e-15 1.00659 0
-6.58698e-16 1.00799 0
3.21423e-15 1.00799 0
-2.50759e-15 1.00659 0
-8.79065e-15 1.00659 0
3.21423e-15 1.00799 0
1.27705e-14 1.00799 0
1.22246e-15 1.00799 0
-1.24193e-17 1.00799 0
2.24455e-15 1.00936 0
5.0069e-15 1.00936 0
-1.24193e-17 1.00799 0
6.15719e-15 1.00799 0
5.0069e-15 1.00936 0
8.83115e-15 1.00936 0
1.24302e-13 1.00936 0
-1.82374e-14 1.00936 0
1.19958e-13 1.01071 0
-1.93315e-14 1.01071 0
-1.82374e-14 1.00936 0
-7.83616e-15 1.00936 0
-1.93315e-14 1.01071 0
1.00164e-14 1.01071 0
-1.54286e-13 1.01071 0
-2.51583e-14 1.01071 0
-1.43182e-13 1.01204 0
-2.00403e-14 1.01204 0
-2.51583e-14 1.01071 0
-4.92938e-15 1.01071 0
-2.00403e-14 1.01204 0
6.15302e-15 1.01204 0
-7.83616e-15 1.00936 0
2.10456e-15 1.00936 0
1.00164e-14 1.01071 0
4.81521e-15 1.01071 0
2.10456e-15 1.00936 0
-4.68359e-15 1.00936 0
4.81521e-15 1.01071 0
3.38899e-15 1.01071 0
-4.92938e-15 1.01071 0
-5.65477e-15 1.01071 0
6.15302e-15 1.01204 0
8.73672e-15 1.01204 0
-5.65477e-15 1.01071 0
-1.0564e-14 1.01071 0
8.73672e-15 1.01204 0
3.40458e-15 1.01204 0
1.61675e-15 1 0
-1.92014e-15 1 0
1.32285e-15 1.00243 0
1.11135e-14 1.00243 0
-1.92014e-15 1 0
3.75029e-15 1 0
1.11135e-14 1.00243 0
1.19257e-14 1.00243 0
4.71767e-15 1.00243 0
3.11993e-15 1.00243 0
2.93953e-15 1.00367 0
4.60809e-15 1.00367 0
3.11993e-15 1.00243 0
-5.7747e-15 1.00243 0
4.60809e-15 1.00367 0
2.35076e-15 1.00367 0
3.75029e-15 1 0
6.06056e-15 1 0
1.19257e-14 1.00243 0
5.06783e-15 1.00243 0
6.06056e-15 1 0
3.96147e-15 1 0
5.06783e-15 1.00243 0
1.9392e-15 1.00243 0
-5.7747e-15 1.00243 0
-6.12894e-15 1.00243 0
2.35076e-15 1.00367 0
9.93714e-15 1.00367 0
-6.12894e-15 1.00243 0
6.36558e-15 1.00243 0
9.93714e-15 1.00367 0
5.59897e-15 1.00367 0
-2.73346e-15 1.00367 0
-5.41168e-15 1.00367 0
8.65983e-15 1.00519 0
7.04884e-15 1.00519 0
-5.41168e-15 1.00367 0
3.89755e-15 1.00367 0
7.04884e-15 1.00519 0
-7.29277e-16 1.00519 0
-4.54971e-15 1.00519 0
5.13293e-15 1.00519 0
3.57914e-15 1.00659 0
2.01972e-15 1.00659 0
5.13293e-15 1.00519 0
2.26814e-15 1.00519 0
2.01972e-15 1.00659 0
9.3212e-15 1.00659 0
3.89755e-15 1.00367 0
7.0947e-15 1.00367 0
-7.29277e-16 1.00519 0
3.2437e-15 1.00519 0
7.0947e-15 1.00367 0
-1.87362e-15 1.00367 0
3.2437e-15 1.00519 0
9.02708e-15 1.00519 0
2.26814e-15 1.00519 0
-5.36705e-15 1.00519 0
9.3212e-15 1.00659 0
1.81484e-15 1.00659 0
-5.36705e-15 1.00519 0
-1.09748e-15 1.00519 0
1.81484e-15 1.00659 0
8.40469e-15 1.00659 0
3.96147e-15 1 0
4.4439e-15 1 0
1.9392e-15 1.00243 0
5.88896e-15 1.00243 0
4.4439e-15 1 0
4.8692e-15 1 0
5.88896e-15 1.00243 0
1.03804e-14 1.00243 0
6.36558e-15 1.00243 0
8.20018e-15 1.00243 0
5.59897e-15 1.00367 0
-1.54762e-16 1.00367 0
8.20018e-15 1.00243 0
-8.11338e-15 1.00243 0
-1.54762e-16 1.00367 0
1.24172e-14 1.00367 0
4.8692e-15 1 0
6.64078e-15 1 0
1.03804e-14 1.00243 0
6.65246e-15 1.00243 0
6.64078e-15 1 0
6.57209e-15 1 0
6.65246e-15 1.00243 0
1.0256e-14 1.00243 0
-8.11338e-15 1.00243 0
5.89251e-15 1.00243 0
1.24172e-14 1.00367 0
2.12092e-15 1.00367 0
5.89251e-15 1.00243 0
-3.87596e-15 1.00243 0
2.12092e-15 1.00367 0
1.18959e-14 1.00367 0
-1.87362e-15 1.00367 0
-4.56142e-15 1.00367 0
9.02708e-15 1.00519 0
6.92911e-15 1.00519 0
-4.56142e-15 1.00367 0
6.05939e-15 1.00367 0
6.92911e-15 1.00519 0
2.30188e-15 1.00519 0
-1.09748e-15 1.00519 0
4.29103e-15 1.00519 0
8.40469e-15 1.00659 0
3.3096e-15 1.00659 0
4.29103e-15 1.00519 0
-7.58421e-16 1.00519 0
3.3096e-15 1.00659 0
1.15771e-15 1.00659 0
6.05939e-15 1.00367 0
-6.13671e-15 1.00367 0
2.30188e-15 1.00519 0
1.3713e-14 1.00519 0
-6.13671e-15 1.00367 0
-1.39899e-14 1.00367 0
1.3713e-14 1.00519 0
1.35888e-14 1.00519 0
-7.58421e-16 1.00519 0
-3.29999e-15 1.00519 0
1.15771e-15 1.00659 0
6.7648e-15 1.00659 0
-3.29999e-15 1.00519 0
-3.08656e-15 1.00519 0
6.7648e-15 1.00659 0
4.41059e-15 1.00659 0
-8.79065e-15 1.00659 0
2.68823e-17 1.00659 0
1.27705e-14 1.00799 0
3.84469e-15 1.00799 0
2.68823e-17 1.00659 0
-8.14922e-15 1.00659 0
3.84469e-15 1.00799 0
6.99438e-16 1.00799 0
6.15719e-15 1.00799 0
-1.05207e-14 1.00799 0
8.83115e-15 1.00936 0
1.24515e-14 1.00936 0
-1.05207e-14 1.00799 0
7.00348e-15 1.00799 0
1.24515e-14 1.00936 0
2.74427e-15 1.00936 0
-8.14922e-15 1.00659 0
6.57798e-15 1.00659 0
6.99438e-16 1.00799 0
2.13658e-15 1.00799 0
6.57798e-15 1.00659 0
-6.99985e-15 1.00659 0
2.13658e-15 1.00799 0
1.13527e-14 1.00799 0
7.00348e-15 1.00799 0
-9.37574e-16 1.00799 0
2.74427e-15 1.00936 0
3.39731e-15 1.00936 0
-9.37574e-16 1.00799 0
-3.50808e-15 1.00799 0
3.39731e-15 1.00936 0
7.61668e-15 1.00936 0
-4.68359e-15 1.00936 0
-9.42501e-16 1.00936 0
3.38899e-15 1.01071 0
1.41937e-14 1.01071 0
-9.42501e-16 1.00936 0
-1.91163e-15 1.00936 0
1.41937e-14 1.01071 0
2.88974e-15 1.01071 0
-1.0564e-14 1.01071 0
-1.0321e-14 1.01071 0
3.40458e-15 1.01204 0
2.71575e-15 1.01204 0
-1.0321e-14 1.01071 0
9.65919e-15 1.01071 0
2.71575e-15 1.01204 0
7.8318e-15 1.01204 0
-1.91163e-15 1.00936 0
1.31123e-16 1.00936 0
2.88974e-15 1.01071 0
7.15028e-15 1.01071 0
1.31123e-16 1.00936 0
-3.61593e-15 1.00936 0
7.15028e-15 1.01071 0
6.13973e-15 1.01071 0
9.65919e-15 1.01071 0
2.00198e-15 1.01071 0
7.8318e-15 1.01204 0
8.71394e-16 1.01204 0
2.00198e-15 1.01071 0
-6.61769e-15 1.01071 0
8.71394e-16 1.01204 0
5.86118e-15 1.01204 0
-6.99985e-15 1.00659 0
-1.26043e-15 1.00659 0
1.13527e-14 1.00799 0
2.811e-15 1.00799 0
-1.26043e-15 1.00659 0
4.00029e-15 1.00659 0
2.811e-15 1.00799 0
9.74802e-16 1.00799 0
-3.50808e-15 1.00799 0
5.44796e-16 1.00799 0
7.61668e-15 1.00936 0
4.65393e-16 1.00936 0
5.44796e-16 1.00799 0
2.5947e-15 1.00799 0
4.65393e-16 1.00936 0
2.10412e-15 1.00936 0
4.00029e-15 1.00659 0
5.54411e-15 1.00659 0
9.74802e-16 1.00799 0
6.34764e-16 1.00799 0
5.54411e-15 1.00659 0
9.06415e-15 1.00659 0
6.34764e-16 1.00799 0
-4.44535e-15 1.00799 0
2.5947e-15 1.00799 0
-2.13398e-15 1.00799 0
2.10412e-15 1.00936 0
7.59962e-15 1.00936 0
-2.13398e-15 1.00799 0
3.53751e-15 1.00799 0
7.59962e-15 1.00936 0
1.15134e-15 1.00936 0
-3.61593e-15 1.00936 0
5.66655e-15 1.00936 0
6.13973e-15 1.01071 0
2.6261e-15 1.01071 0
5.66655e-15 1.00936 0
-7.36548e-15 1.00936 0
2.6261e-15 1.01071 0
9.5452e-15 1.01071 0
-6.61769e-15 1.01071 0
-5.94376e-15 1.01071 0
5.86118e-15 1.01204 0
8.78349e-15 1.01204 0
-5.94376e-15 1.01071 0
-4.99882e-15 1.01071 0
8.78349e-15 1.01204 0
7.50949e-15 1.01204 0
-7.36548e-15 1.00936 0
4.51797e-15 1.00936 0
9.5452e-15 1.01071 0
2.14655e-15 1.01071 0
4.51797e-15 1.00936 0
2.21681e-15 1.00936 0
2.14655e-15 1.01071 0
5.81866e-15 1.01071 0
-4.99882e-15 1.01071 0
-4.42848e-15 1.01071 0
7.50949e-15 1.01204 0
1.0892e-15 1.01204 0
-4.42848e-15 1.01071 0
1.84638e-16 1.01071 0
1.0892e-15 1.01204 0
-9.75612e-16 1.01204 0
0 1.01204 0
-1.60796e-14 1.01204 0
0 1.01336 0
-5.41358e-15 1.01336 0
-1.60796e-14 1.01204 0
-1.07895e-13 1.01204 0
-5.41358e-15 1.01336 0
-1.06575e-13 1.01336 0
0 1.01336 0
1.13087e-14 1.01336 0
0 1.01467 0
9.90662e-15 1.01467 0
1.13087e-14 1.01336 0
9.7384e-14 1.01336 0
9.90662e-15 1.01467 0
9.30675e-14 1.01467 0
-1.07895e-13 1.01204 0
1.71203e-14 1.01204 0
-1.06575e-13 1.01336 0
1.56243e-14 1.01336 0
1.71203e-14 1.01204 0
1.09351e-13 1.01204 0
1.56243e-14 1.01336 0
1.08335e-13 1.01336 0
9.7384e-14 1.01336 0
-4.1507e-14 1.01336 0
9.30675e-14 1.01467 0
-3.95961e-14 1.01467 0
-4.1507e-14 1.01336 0
-3.58653e-14 1.01336 0
-3.95961e-14 1.01467 0
-3.23521e-14 1.01467 0
0 1.01467 0
-1.95522e-14 1.01467 0
0 1.01599 0
-2.33786e-14 1.01599 0
-1.95522e-14 1.01467 0
-6.99741e-14 1.01467 0
-2.33786e-14 1.01599 0
-6.59513e-14 1.01599 0
0 1.01599 0
3.59279e-15 1.01599 0
0 1.01732 0
4.62678e-15 1.01732 0
3.59279e-15 1.01599 0
2.47775e-14 1.01599 0
4.62678e-15 1.01732 0
2.64555e-14 1.01732 0
-6.99741e-14 1.01467 0
1.10786e-14 1.01467 0
-6.59513e-14 1.01599 0
6.64619e-15 1.01599 0
1.10786e-14 1.01467 0
4.89017e-15 1.01467 0
6.64619e-15 1.01599 0
9.44988e-15 1.01599 0
2.47775e-14 1.01599 0
-9.25246e-15 1.01599 0
2.64555e-14 1.01732 0
-3.85892e-15 1.01732 0
-9.25246e-15 1.01599 0
-3.83241e-15 1.01599 0
-3.85892e-15 1.01732 0
-3.85951e-15 1.01732 0
1.09351e-13 1.01204 0
1.8294e-14 1.01204 0
1.08335e-13 1.01336 0
2.10837e-14 1.01336 0
1.8294e-14 1.01204 0
-8.14981e-16 1.01204 0
2.10837e-14 1.01336 0
4.28076e-15 1.01336 0
-3.58653e-14 1.01336 0
2.66187e-14 1.01336 0
-3.23521e-14 1.01467 0
2.30204e-14 1.01467 0
2.66187e-14 1.01336 0
-6.0374e-15 1.01336 0
2.30204e-14 1.01467 0
4.59627e-15 1.01467 0
-8.14981e-16 1.01204 0
2.40911e-16 1.01204 0
4.28076e-15 1.01336 0
2.39979e-15 1.01336 0
2.40911e-16 1.01204 0
9.06224e-15 1.01204 0
2.39979e-15 1.01336 0
4.89246e-15 1.01336 0
-6.0374e-15 1.01336 0
-1.93082e-15 1.01336 0
4.59627e-15 1.01467 0
6.78589e-15 1.01467 0
-1.93082e-15 1.01336 0
-1.73189e-15 1.01336 0
6.78589e-15 1.01467 0
1.26916e-15 1.01467 0
4.89017e-15 1.01467 0
-1.07653e-14 1.01467 0
9.44988e-15 1.01599 0
-1.15018e-14 1.01599 0
-1.07653e-14 1.01467 0
9.48711e-16 1.01467 0
-1.15018e-14 1.01599 0
-1.516e-15 1.01599 0
-3.83241e-15 1.01599 0
2.77039e-16 1.01599 0
-3.85951e-15 1.01732 0
-2.62413e-15 1.01732 0
2.77039e-16 1.01599 0
7.17072e-16 1.01599 0
-2.62413e-15 1.01732 0
1.70484e-15 1.01732 0
9.48711e-16 1.01467 0
-2.4302e-15 1.01467 0
-1.516e-15 1.01599 0
4.1828e-15 1.01599 0
-2.4302e-15 1.01467 0
-4.5685e-15 1.01467 0
4.1828e-15 1.01599 0
4.02988e-15 1.01599 0
7.17072e-16 1.01599 0
-3.77958e-15 1.01599 0
1.70484e-15 1.01732 0
4.99246e-15 1.01732 0
-3.77958e-15 1.01599 0
-1.29973e-15 1.01599 0
4.99246e-15 1.01732 0
4.7653e-15 1.01732 0
0 1.01732 0
2.46602e-14 1.01732 0
0 1.01867 0
2.67048e-14 1.01867 0
2.46602e-14 1.01732 0
-2.46503e-14 1.01732 0
2.67048e-14 1.01867 0
-1.93662e-14 1.01867 0
0 1.01867 0
-2.61587e-14 1.01867 0
0 1.01998 0
-2.31398e-14 1.01998 0
-2.61587e-14 1.01867 0
4.13141e-14 1.01867 0
-2.31398e-14 1.01998 0
3.71912e-14 1.01998 0
-2.46503e-14 1.01732 0
-2.40528e-15 1.01732 0
-1.93662e-14 1.01867 0
4.24214e-15 1.01867 0
-2.40528e-15 1.01732 0
-1.20706e-14 1.01732 0
4.24214e-15 1.01867 0
-5.83935e-15 1.01867 0
4.13141e-14 1.01867 0
4.6839e-16 1.01867 0
3.71912e-14 1.01998 0
4.76763e-15 1.01998 0
4.6839e-16 1.01867 0
1.2067e-15 1.01867 0
4.76763e-15 1.01998 0
1.97879e-15 1.01998 0
0 1.01998 0
1.56835e-14 1.01998 0
0 1.02112 0
1.15572e-14 1.02112 0
1.56835e-14 1.01998 0
-2.44344e-14 1.01998 0
1.15572e-14 1.02112 0
-2.1634e-14 1.02112 0
0 1.02112 0
-1.95379e-16 1.02112 0
0 1.02162 0
-1.487e-14 1.02162 0
-1.95379e-16 1.02112 0
-2.01074e-15 1.02112 0
-1.487e-14 1.02162 0
1.60609e-14 1.02162 0
-2.44344e-14 1.01998 0
1.85772e-15 1.01998 0
-2.1634e-14 1.02112 0
9.40369e-16 1.02112 0
1.85772e-15 1.01998 0
2.57968e-15 1.01998 0
9.40369e-16 1.02112 0
4.80549e-15 1.02112 0
-2.01074e-15 1.02112 0
-2.1771e-15 1.02112 0
1.60609e-14 1.02162 0
-1.54925e-14 1.02162 0
-2.1771e-15 1.02112 0
-7.89133e-16 1.02112 0
-1.54925e-14 1.02162 0
1.50463e-14 1.02162 0
-1.20706e-14 1.01732 0
-6.14363e-15 1.01732 0
-5.83935e-15 1.01867 0
3.71456e-15 1.01867 0
-6.14363e-15 1.01732 0
3.37168e-16 1.01732 0
3.71456e-15 1.01867 0
2.22792e-15 1.01867 0
1.2067e-15 1.01867 0
-1.49279e-15 1.01867 0
1.97879e-15 1.01998 0
9.78709e-16 1.01998 0
-1.49279e-15 1.01867 0
-2.83679e-15 1.01867 0
9.78709e-16 1.01998 0
2.78931e-15 1.01998 0
3.37168e-16 1.01732 0
-1.03146e-15 1.01732 0
2.22792e-15 1.01867 0
2.84566e-15 1.01867 0
-1.03146e-15 1.01732 0
-2.44366e-15 1.01732 0
2.84566e-15 1.01867 0
3.20439e-15 1.01867 0
-2.83679e-15 1.01867 0
-5.51468e-15 1.01867 0
2.78931e-15 1.01998 0
1.17517e-15 1.01998 0
-5.51468e-15 1.01867 0
-3.01964e-15 1.01867 0
1.17517e-15 1.01998 0
1.23176e-15 1.01998 0
2.57968e-15 1.01998 0
-8.09484e-16 1.01998 0
4.80549e-15 1.02112 0
3.66623e-15 1.02112 0
-8.09484e-16 1.01998 0
-1.41432e-15 1.01998 0
3.66623e-15 1.02112 0
2.46728e-15 1.02112 0
-7.89133e-16 1.02112 0
-3.72394e-15 1.02112 0
1.50463e-14 1.02162 0
3.29981e-15 1.02162 0
-3.72394e-15 1.02112 0
-1.04808e-15 1.02112 0
3.29981e-15 1.02162 0
4.48348e-16 1.02162 0
-1.41432e-15 1.01998 0
-2.92078e-15 1.01998 0
2.46728e-15 1.02112 0
2.97418e-15 1.02112 0
-2.92078e-15 1.01998 0
-1.70932e-15 1.01998 0
2.97418e-15 1.02112 0
3.73637e-15 1.02112 0
-1.04808e-15 1.02112 0
-7.19747e-16 1.02112 0
4.48348e-16 1.02162 0
6.78222e-15 1.02162 0
-7.19747e-16 1.02112 0
1.81624e-15 1.02112 0
6.78222e-15 1.02162 0
-1.84677e-14 1.02162 0
9.06224e-15 1.01204 0
6.64893e-15 1.01204 0
4.89246e-15 1.01336 0
6.38061e-15 1.01336 0
6.64893e-15 1.01204 0
-2.45473e-15 1.01204 0
6.38061e-15 1.01336 0
-9.09378e-15 1.01336 0
-1.73189e-15 1.01336 0
-2.14106e-15 1.01336 0
1.26916e-15 1.01467 0
4.694e-15 1.01467 0
-2.14106e-15 1.01336 0
2.19288e-15 1.01336 0
4.694e-15 1.01467 0
3.61894e-15 1.01467 0
-2.45473e-15 1.01204 0
-3.1703e-15 1.01204 0
-9.09378e-15 1.01336 0
1.28919e-15 1.01336 0
-3.1703e-15 1.01204 0
-2.66936e-15 1.01204 0
1.28919e-15 1.01336 0
6.97868e-15 1.01336 0
2.19288e-15 1.01336 0
-1.99835e-15 1.01336 0
3.61894e-15 1.01467 0
2.54046e-15 1.01467 0
-1.99835e-15 1.01336 0
-4.59899e-15 1.01336 0
2.54046e-15 1.01467 0
5.17772e-15 1.01467 0
-4.5685e-15 1.01467 0
-4.35078e-15 1.01467 0
4.02988e-15 1.01599 0
4.52408e-15 1.01599 0
-4.35078e-15 1.01467 0
-7.52786e-15 1.01467 0
4.52408e-15 1.01599 0
3.84785e-15 1.01599 0
-1.29973e-15 1.01599 0
-1.42428e-15 1.01599 0
4.7653e-15 1.01732 0
3.51678e-15 1.01732 0
-1.42428e-15 1.01599 0
5.32732e-16 1.01599 0
3.51678e-15 1.01732 0
-6.92758e-16 1.01732 0
-7.52786e-15 1.01467 0
-1.37884e-15 1.01467 0
3.84785e-15 1.01599 0
5.93796e-15 1.01599 0
-1.37884e-15 1.01467 0
-3.03602e-15 1.01467 0
5.93796e-15 1.01599 0
1.25752e-15 1.01599 0
5.32732e-16 1.01599 0
-5.34356e-15 1.01599 0
-6.92758e-16 1.01732 0
4.34002e-15 1.01732 0
-5.34356e-15 1.01599 0
1.10204e-15 1.01599 0
4.34002e-15 1.01732 0
2.91632e-15 1.01732 0
-2.66936e-15 1.01204 0
-1.8952e-15 1.01204 0
6.97868e-15 1.01336 0
2.21624e-16 1.01336 0
-1.8952e-15 1.01204 0
-7.0658e-16 1.01204 0
2.21624e-16 1.01336 0
9.54923e-15 1.01336 0
-4.59899e-15 1.01336 0
2.81863e-16 1.01336 0
5.17772e-15 1.01467 0
5.98686e-15 1.01467 0
2.81863e-16 1.01336 0
-1.11594e-15 1.01336 0
5.98686e-15 1.01467 0
7.35107e-16 1.01467 0
-7.0658e-16 1.01204 0
-1.02018e-15 1.01204 0
9.54923e-15 1.01336 0
2.42857e-15 1.01336 0
-1.02018e-15 1.01204 0
5.89571e-15 1.01204 0
2.42857e-15 1.01336 0
-1.64599e-15 1.01336 0
-1.11594e-15 1.01336 0
3.12467e-15 1.01336 0
7.35107e-16 1.01467 0
-4.63435e-16 1.01467 0
3.12467e-15 1.01336 0
-1.88605e-15 1.01336 0
-4.63435e-16 1.01467 0
4.74251e-15 1.01467 0
-3.03602e-15 1.01467 0
-6.25354e-15 1.01467 0
1.25752e-15 1.01599 0
1.91582e-15 1.01599 0
-6.25354e-15 1.01467 0
-6.30769e-16 1.01467 0
1.91582e-15 1.01599 0
1.39003e-15 1.01599 0
1.10204e-15 1.01599 0
-3.29469e-17 1.01599 0
2.91632e-15 1.01732 0
2.92315e-15 1.01732 0
-3.29469e-17 1.01599 0
-1.35021e-15 1.01599 0
2.92315e-15 1.01732 0
2.92809e-15 1.01732 0
-6.30769e-16 1.01467 0
3.56615e-15 1.01467 0
1.39003e-15 1.01599 0
-8.02881e-16 1.01599 0
3.56615e-15 1.01467 0
-3.49372e-15 1.01467 0
-8.02881e-16 1.01599 0
5.71191e-15 1.01599 0
-1.35021e-15 1.01599 0
-1.16881e-15 1.01599 0
2.92809e-15 1.01732 0
2.892e-15 1.01732 0
-1.16881e-15 1.01599 0
5.82604e-15 1.01599 0
2.892e-15 1.01732 0
-1.36374e-15 1.01732 0
-2.44366e-15 1.01732 0
-3.32609e-15 1.01732 0
3.20439e-15 1.01867 0
9.54744e-16 1.01867 0
-3.32609e-15 1.01732 0
-3.6784e-15 1.01732 0
9.54744e-16 1.01867 0
3.53915e-15 1.01867 0
-3.01964e-15 1.01867 0
1.7887e-15 1.01867 0
1.23176e-15 1.01998 0
-2.3903e-15 1.01998 0
1.7887e-15 1.01867 0
-2.00201e-15 1.01867 0
-2.3903e-15 1.01998 0
2.05397e-15 1.01998 0
-3.6784e-15 1.01732 0
-1.24169e-15 1.01732 0
3.53915e-15 1.01867 0
1.57912e-15 1.01867 0
-1.24169e-15 1.01732 0
-5.05598e-15 1.01732 0
1.57912e-15 1.01867 0