# vtk DataFile Version 3.0
#This file was generated by the deal.II library on 2018/10/12 at 0:50:05
ASCII
DATASET UNSTRUCTURED_GRID

POINTS 5120 double
0 0 0
0.392699 0 0
0 0.604467 0
0.392699 0.604467 0
0.392699 0 0
0.785398 0 0
0.392699 0.604467 0
0.785398 0.604467 0
0 0.604467 0
0.392699 0.604467 0
0 1.231 0
0.392699 1.231 0
0.392699 0.604467 0
0.785398 0.604467 0
0.392699 1.231 0
0.785398 1.231 0
0.785398 0 0
1.1781 0 0
0.785398 0.604467 0
1.1781 0.604467 0
1.1781 0 0
1.5708 0 0
1.1781 0.604467 0
1.5708 0.604467 0
0.785398 0.604467 0
1.1781 0.604467 0
0.785398 1.231 0
1.1781 1.231 0
1.1781 0.604467 0
1.5708 0.604467 0
1.1781 1.231 0
1.5708 1.231 0
0 1.231 0
0.392699 1.231 0
0 1.85672 0
0.392699 1.85672 0
0.392699 1.231 0
0.785398 1.231 0
0.392699 1.85672 0
0.785398 1.85672 0
0 1.85672 0
0.392699 1.85672 0
0 2.48319 0
0.392699 2.48319 0
0.392699 1.85672 0
0.785398 1.85672 0
0.392699 2.48319 0
0.785398 2.48319 0
0.785398 1.231 0
1.1781 1.231 0
0.785398 1.85672 0
1.1781 1.85672 0
1.1781 1.231 0
1.5708 1.231 0
1.1781 1.85672 0
1.5708 1.85672 0
0.785398 1.85672 0
1.1781 1.85672 0
0.785398 2.48319 0
1.1781 2.48319 0
1.1781 1.85672 0
1.5708 1.85672 0
1.1781 2.48319 0
1.5708 2.48319 0
1.5708 0 0
1.9635 0 0
1.5708 0.604467 0
1.9635 0.604467 0
1.9635 0 0
2.35619 0 0
1.9635 0.604467 0
2.35619 0.604467 0
1.5708 0.604467 0
1.9635 0.604467 0
1.5708 1.231 0
1.9635 1.231 0
1.9635 0.604467 0
2.35619 0.604467 0
1.9635 1.231 0
2.35619 1.231 0
2.35619 0 0
2.74889 0 0
2.35619 0.604467 0
2.74889 0.604467 0
2.74889 0 0
3.14159 0 0
2.74889 0.604467 0
3.14159 0.604467 0
2.35619 0.604467 0
2.74889 0.604467 0
2.35619 1.231 0
2.74889 1.231 0
2.74889 0.604467 0
3.14159 0.604467 0
2.74889 1.231 0
3.14159 1.231 0
1.5708 1.231 0
1.9635 1.231 0
1.5708 1.85672 0
1.9635 1.85672 0
1.9635 1.231 0
2.35619 1.231 0
1.9635 1.85672 0
2.35619 1.85672 0
1.5708 1.85672 0
1.9635 1.85672 0
1.5708 2.48319 0
1.9635 2.48319 0
1.9635 1.85672 0
2.35619 1.85672 0
1.9635 2.48319 0
2.35619 2.48319 0
2.35619 1.231 0
2.74889 1.231 0
2.35619 1.85672 0
2.74889 1.85672 0
2.74889 1.231 0
3.14159 1.231 0
2.74889 1.85672 0
3.14159 1.85672 0
2.35619 1.85672 0
2.74889 1.85672 0
2.35619 2.48319 0
2.74889 2.48319 0
2.74889 1.85672 0
3.14159 1.85672 0
2.74889 2.48319 0
3.14159 2.48319 0
0 2.48319 0
0.392699 2.48319 0
0 3.10945 0
0.392699 3.10945 0
0.392699 2.48319 0
0.785398 2.48319 0
0.392699 3.10945 0
0.785398 3.10945 0
0 3.10945 0
0.392699 3.10945 0
0 3.73573 0
0.392699 3.73573 0
0.392699 3.10945 0
0.785398 3.10945 0
0.392699 3.73573 0
0.785398 3.73573 0
0.785398 2.48319 0
1.1781 2.48319 0
0.785398 3.10945 0
1.1781 3.10945 0
1.1781 2.48319 0
1.5708 2.48319 0
1.1781 3.10945 0
1.5708 3.10945 0
0.785398 3.10945 0
1.1781 3.10945 0
0.785398 3.73573 0
1.1781 3.73573 0
1.1781 3.10945 0
1.5708 3.10945 0
1.1781 3.73573 0
1.5708 3.73573 0
0 3.73573 0
0.392699 3.73573 0
0 4.36194 0
0.392699 4.36194 0
0.392699 3.73573 0
0.785398 3.73573 0
0.392699 4.36194 0
0.785398 4.36194 0
0 4.36194 0
0.392699 4.36194 0
0 4.9881 0
0.392699 4.9881 0
0.392699 4.36194 0
0.785398 4.36194 0
0.392699 4.9881 0
0.785398 4.9881 0
0.785398 3.73573 0
1.1781 3.73573 0
0.785398 4.36194 0
1.1781 4.36194 0
1.1781 3.73573 0
1.5708 3.73573 0
1.1781 4.36194 0
1.5708 4.36194 0
0.785398 4.36194 0
1.1781 4.36194 0
0.785398 4.9881 0
1.1781 4.9881 0
1.1781 4.36194 0
1.5708 4.36194 0
1.1781 4.9881 0
1.5708 4.9881 0
1.5708 2.48319 0
1.9635 2.48319 0
1.5708 3.10945 0
1.9635 3.10945 0
1.9635 2.48319 0
2.35619 2.48319 0
1.9635 3.10945 0
2.35619 3.10945 0
1.5708 3.10945 0
1.9635 3.10945 0
1.5708 3.73573 0
1.9635 3.73573 0
1.9635 3.10945 0
2.35619 3.10945 0
1.9635 3.73573 0
2.35619 3.73573 0
2.35619 2.48319 0
2.74889 2.48319 0
2.35619 3.10945 0
2.74889 3.10945 0
2.74889 2.48319 0
3.14159 2.48319 0
2.74889 3.10945 0
3.14159 3.10945 0
2.35619 3.10945 0
2.74889 3.10945 0
2.35619 3.73573 0
2.74889 3.73573 0
2.74889 3.10945 0
3.14159 3.10945 0
2.74889 3.73573 0
3.14159 3.73573 0
1.5708 3.73573 0
1.9635 3.73573 0
1.5708 4.36194 0
1.9635 4.36194 0
1.9635 3.73573 0
2.35619 3.73573 0
1.9635 4.36194 0
2.35619 4.36194 0
1.5708 4.36194 0
1.9635 4.36194 0
1.5708 4.9881 0
1.9635 4.9881 0
1.9635 4.36194 0
2.35619 4.36194 0
1.9635 4.9881 0
2.35619 4.9881 0
2.35619 3.73573 0
2.74889 3.73573 0
2.35619 4.36194 0
2.74889 4.36194 0
2.74889 3.73573 0
3.14159 3.73573 0
2.74889 4.36194 0
3.14159 4.36194 0
2.35619 4.36194 0
2.74889 4.36194 0
2.35619 4.9881 0
2.74889 4.9881 0
2.74889 4.36194 0
3.14159 4.36194 0
2.74889 4.9881 0
3.14159 4.9881 0
3.14159 0 0
3.53429 0 0
3.14159 0.604467 0
3.53429 0.604467 0
3.53429 0 0
3.92699 0 0
3.53429 0.604467 0
3.92699 0.604467 0
3.14159 0.604467 0
3.53429 0.604467 0
3.14159 1.231 0
3.53429 1.231 0
3.53429 0.604467 0
3.92699 0.604467 0
3.53429 1.231 0
3.92699 1.231 0
3.92699 0 0
4.31969 0 0
3.92699 0.604467 0
4.31969 0.604467 0
4.31969 0 0
4.71239 0 0
4.31969 0.604467 0
4.71239 0.604467 0
3.92699 0.604467 0
4.31969 0.604467 0
3.92699 1.231 0
4.31969 1.231 0
4.31969 0.604467 0
4.71239 0.604467 0
4.31969 1.231 0
4.71239 1.231 0
3.14159 1.231 0
3.53429 1.231 0
3.14159 1.85672 0
3.53429 1.85672 0
3.53429 1.231 0
3.92699 1.231 0
3.53429 1.85672 0
3.92699 1.85672 0
3.14159 1.85672 0
3.53429 1.85672 0
3.14159 2.48319 0
3.53429 2.48319 0
3.53429 1.85672 0
3.92699 1.85672 0
3.53429 2.48319 0
3.92699 2.48319 0
3.92699 1.231 0
4.31969 1.231 0
3.92699 1.85672 0
4.31969 1.85672 0
4.31969 1.231 0
4.71239 1.231 0
4.31969 1.85672 0
4.71239 1.85672 0
3.92699 1.85672 0
4.31969 1.85672 0
3.92699 2.48319 0
4.31969 2.48319 0
4.31969 1.85672 0
4.71239 1.85672 0
4.31969 2.48319 0
4.71239 2.48319 0
4.71239 0 0
5.10509 0 0
4.71239 0.604467 0
5.10509 0.604467 0
5.10509 0 0
5.49779 0 0
5.10509 0.604467 0
5.49779 0.604467 0
4.71239 0.604467 0
5.10509 0.604467 0
4.71239 1.231 0
5.10509 1.231 0
5.10509 0.604467 0
5.49779 0.604467 0
5.10509 1.231 0
5.49779 1.231 0
5.49779 0 0
5.89049 0 0
5.49779 0.604467 0
5.89049 0.604467 0
5.89049 0 0
6.28319 0 0
5.89049 0.604467 0
6.28319 0.604467 0
5.49779 0.604467 0
5.89049 0.604467 0
5.49779 1.231 0
5.89049 1.231 0
5.89049 0.604467 0
6.28319 0.604467 0
5.89049 1.231 0
6.28319 1.231 0
4.71239 1.231 0
5.10509 1.231 0
4.71239 1.85672 0
5.10509 1.85672 0
5.10509 1.231 0
5.49779 1.231 0
5.10509 1.85672 0
5.49779 1.85672 0
4.71239 1.85672 0
5.10509 1.85672 0
4.71239 2.48319 0
5.10509 2.48319 0
5.10509 1.85672 0
5.49779 1.85672 0
5.10509 2.48319 0
5.49779 2.48319 0
5.49779 1.231 0
5.89049 1.231 0
5.49779 1.85672 0
5.89049 1.85672 0
5.89049 1.231 0
6.28319 1.231 0
5.89049 1.85672 0
6.28319 1.85672 0
5.49779 1.85672 0
5.89049 1.85672 0
5.49779 2.48319 0
5.89049 2.48319 0
5.89049 1.85672 0
6.28319 1.85672 0
5.89049 2.48319 0
6.28319 2.48319 0
3.14159 2.48319 0
3.53429 2.48319 0
3.14159 3.10945 0
3.53429 3.10945 0
3.53429 2.48319 0
3.92699 2.48319 0
3.53429 3.10945 0
3.92699 3.10945 0
3.14159 3.10945 0
3.53429 3.10945 0
3.14159 3.73573 0
3.53429 3.73573 0
3.53429 3.10945 0
3.92699 3.10945 0
3.53429 3.73573 0
3.92699 3.73573 0
3.92699 2.48319 0
4.31969 2.48319 0
3.92699 3.10945 0
4.31969 3.10945 0
4.31969 2.48319 0
4.71239 2.48319 0
4.31969 3.10945 0
4.71239 3.10945 0
3.92699 3.10945 0
4.31969 3.10945 0
3.92699 3.73573 0
4.31969 3.73573 0
4.31969 3.10945 0
4.71239 3.10945 0
4.31969 3.73573 0
4.71239 3.73573 0
3.14159 3.73573 0
3.53429 3.73573 0
3.14159 4.36194 0
3.53429 4.36194 0
3.53429 3.73573 0
3.92699 3.73573 0
3.53429 4.36194 0
3.92699 4.36194 0
3.14159 4.36194 0
3.53429 4.36194 0
3.14159 4.9881 0
3.53429 4.9881 0
3.53429 4.36194 0
3.92699 4.36194 0
3.53429 4.9881 0
3.92699 4.9881 0
3.92699 3.73573 0
4.31969 3.73573 0
3.92699 4.36194 0
4.31969 4.36194 0
4.31969 3.73573 0
4.71239 3.73573 0
4.31969 4.36194 0
4.71239 4.36194 0
3.92699 4.36194 0
4.31969 4.36194 0
3.92699 4.9881 0
4.31969 4.9881 0
4.31969 4.36194 0
4.71239 4.36194 0
4.31969 4.9881 0
4.71239 4.9881 0
4.71239 2.48319 0
5.10509 2.48319 0
4.71239 3.10945 0
5.10509 3.10945 0
5.10509 2.48319 0
5.49779 2.48319 0
5.10509 3.10945 0
5.49779 3.10945 0
4.71239 3.10945 0
5.10509 3.10945 0
4.71239 3.73573 0
5.10509 3.73573 0
5.10509 3.10945 0
5.49779 3.10945 0
5.10509 3.73573 0
5.49779 3.73573 0
5.49779 2.48319 0
5.89049 2.48319 0
5.49779 3.10945 0
5.89049 3.10945 0
5.89049 2.48319 0
6.28319 2.48319 0
5.89049 3.10945 0
6.28319 3.10945 0
5.49779 3.10945 0
5.89049 3.10945 0
5.49779 3.73573 0
5.89049 3.73573 0
5.89049 3.10945 0
6.28319 3.10945 0
5.89049 3.73573 0
6.28319 3.73573 0
4.71239 3.73573 0
5.10509 3.73573 0
4.71239 4.36194 0
5.10509 4.36194 0
5.10509 3.73573 0
5.49779 3.73573 0
5.10509 4.36194 0
5.49779 4.36194 0
4.71239 4.36194 0
5.10509 4.36194 0
4.71239 4.9881 0
5.10509 4.9881 0
5.10509 4.36194 0
5.49779 4.36194 0
5.10509 4.9881 0
5.49779 4.9881 0
5.49779 3.73573 0
5.89049 3.73573 0
5.49779 4.36194 0
5.89049 4.36194 0
5.89049 3.73573 0
6.28319 3.73573 0
5.89049 4.36194 0
6.28319 4.36194 0
5.49779 4.36194 0
5.89049 4.36194 0
5.49779 4.9881 0
5.89049 4.9881 0
5.89049 4.36194 0
6.28319 4.36194 0
5.89049 4.9881 0
6.28319 4.9881 0
0 4.9881 0
0.392699 4.9881 0
0 5.61419 0
0.392699 5.61419 0
0.392699 4.9881 0
0.785398 4.9881 0
0.392699 5.61419 0
0.785398 5.61419 0
0 5.61419 0
0.392699 5.61419 0
0 6.24022 0
0.392699 6.24022 0
0.392699 5.61419 0
0.785398 5.61419 0
0.392699 6.24022 0
0.785398 6.24022 0
0.785398 4.9881 0
1.1781 4.9881 0
0.785398 5.61419 0
1.1781 5.61419 0
1.1781 4.9881 0
1.5708 4.9881 0
1.1781 5.61419 0
1.5708 5.61419 0
0.785398 5.61419 0
1.1781 5.61419 0
0.785398 6.24022 0
1.1781 6.24022 0
1.1781 5.61419 0
1.5708 5.61419 0
1.1781 6.24022 0
1.5708 6.24022 0
0 6.24022 0
0.392699 6.24022 0
0 6.86621 0
0.392699 6.86621 0
0.392699 6.24022 0
0.785398 6.24022 0
0.392699 6.86621 0
0.785398 6.86621 0
0 6.86621 0
0.392699 6.86621 0
0 7.4922 0
0.392699 7.4922 0
0.392699 6.86621 0
0.785398 6.86621 0
0.392699 7.4922 0
0.785398 7.4922 0
0.785398 6.24022 0
1.1781 6.24022 0
0.785398 6.86621 0
1.1781 6.86621 0
1.1781 6.24022 0
1.5708 6.24022 0
1.1781 6.86621 0
1.5708 6.86621 0
0.785398 6.86621 0
1.1781 6.86621 0
0.785398 7.4922 0
1.1781 7.4922 0
1.1781 6.86621 0
[...]
POINT_DATA 5120
VECTORS uf double
0 1 0
-7.2757e-14 1 0
0 1.0024 0
-7.91898e-14 1.0024 0
-7.2757e-14 1 0
-1.15408e-14 1 0
-7.91898e-14 1.0024 0
-5.15629e-15 1.0024 0
0 1.0024 0
3.11298e-14 1.0024 0
0 1.00362 0
2.37967e-14 1.00362 0
3.11298e-14 1.0024 0
1.46449e-14 1.0024 0
2.37967e-14 1.00362 0
1.3805e-14 1.00362 0
-1.15408e-14 1 0
1.47173e-13 1 0
-5.15629e-15 1.0024 0
1.35143e-13 1.0024 0
1.47173e-13 1 0
5.1827e-14 1 0
1.35143e-13 1.0024 0
5.20978e-14 1.0024 0
1.46449e-14 1.0024 0
-1.43992e-13 1.0024 0
1.3805e-14 1.00362 0
-1.36058e-13 1.00362 0
-1.43992e-13 1.0024 0
-5.06125e-14 1.0024 0
-1.36058e-13 1.00362 0
-4.54802e-14 1.00362 0
0 1.00362 0
3.03351e-14 1.00362 0
0 1.00512 0
1.76241e-14 1.00512 0
3.03351e-14 1.00362 0
-1.69966e-15 1.00362 0
1.76241e-14 1.00512 0
4.59206e-15 1.00512 0
0 1.00512 0
3.76547e-14 1.00512 0
0 1.00651 0
3.01182e-14 1.00651 0
3.76547e-14 1.00512 0
5.76325e-14 1.00512 0
3.01182e-14 1.00651 0
5.59843e-14 1.00651 0
-1.69966e-15 1.00362 0
-2.03561e-15 1.00362 0
4.59206e-15 1.00512 0
3.08014e-15 1.00512 0
-2.03561e-15 1.00362 0
-9.28196e-15 1.00362 0
3.08014e-15 1.00512 0
3.09472e-15 1.00512 0
5.76325e-14 1.00512 0
7.35422e-15 1.00512 0
5.59843e-14 1.00651 0
8.5979e-15 1.00651 0
7.35422e-15 1.00512 0
-2.9579e-14 1.00512 0
8.5979e-15 1.00651 0
-9.75736e-15 1.00651 0
5.1827e-14 1 0
-2.48477e-14 1 0
5.20978e-14 1.0024 0
-1.84474e-14 1.0024 0
-2.48477e-14 1 0
-9.56675e-15 1 0
-1.84474e-14 1.0024 0
5.81281e-15 1.0024 0
-5.06125e-14 1.0024 0
2.67406e-14 1.0024 0
-4.54802e-14 1.00362 0
2.14229e-14 1.00362 0
2.67406e-14 1.0024 0
-5.18248e-15 1.0024 0
2.14229e-14 1.00362 0
1.32048e-14 1.00362 0
-9.56675e-15 1 0
2.01635e-15 1 0
5.81281e-15 1.0024 0
-4.8681e-15 1.0024 0
2.01635e-15 1 0
1.19857e-15 1 0
-4.8681e-15 1.0024 0
-1.27857e-15 1.0024 0
-5.18248e-15 1.0024 0
-2.38907e-15 1.0024 0
1.32048e-14 1.00362 0
7.76502e-15 1.00362 0
-2.38907e-15 1.0024 0
-9.98547e-16 1.0024 0
7.76502e-15 1.00362 0
1.08303e-14 1.00362 0
-9.28196e-15 1.00362 0
2.32795e-14 1.00362 0
3.09472e-15 1.00512 0
2.9403e-14 1.00512 0
2.32795e-14 1.00362 0
2.0838e-16 1.00362 0
2.9403e-14 1.00512 0
5.47662e-15 1.00512 0
-2.9579e-14 1.00512 0
-4.32177e-15 1.00512 0
-9.75736e-15 1.00651 0
-1.08222e-14 1.00651 0
-4.32177e-15 1.00512 0
-8.49594e-15 1.00512 0
-1.08222e-14 1.00651 0
4.1256e-15 1.00651 0
2.0838e-16 1.00362 0
-1.53209e-15 1.00362 0
5.47662e-15 1.00512 0
9.41177e-15 1.00512 0
-1.53209e-15 1.00362 0
-5.41356e-15 1.00362 0
9.41177e-15 1.00512 0
5.66396e-15 1.00512 0
-8.49594e-15 1.00512 0
-5.56216e-15 1.00512 0
4.1256e-15 1.00651 0
-1.58208e-15 1.00651 0
-5.56216e-15 1.00512 0
-2.62724e-15 1.00512 0
-1.58208e-15 1.00651 0
3.90325e-15 1.00651 0
0 1.00651 0
-4.94771e-14 1.00651 0
0 1.00789 0
-4.99378e-14 1.00789 0
-4.94771e-14 1.00651 0
-7.98189e-14 1.00651 0
-4.99378e-14 1.00789 0
-7.52368e-14 1.00789 0
0 1.00789 0
3.08069e-14 1.00789 0
0 1.00924 0
3.35247e-14 1.00924 0
3.08069e-14 1.00789 0
8.15355e-14 1.00789 0
3.35247e-14 1.00924 0
8.99743e-14 1.00924 0
-7.98189e-14 1.00651 0
-1.52672e-14 1.00651 0
-7.52368e-14 1.00789 0
-2.64884e-15 1.00789 0
-1.52672e-14 1.00651 0
5.07972e-14 1.00651 0
-2.64884e-15 1.00789 0
4.3721e-14 1.00789 0
8.15355e-14 1.00789 0
1.53969e-14 1.00789 0
8.99743e-14 1.00924 0
1.78968e-14 1.00924 0
1.53969e-14 1.00789 0
-5.84236e-14 1.00789 0
1.78968e-14 1.00924 0
-5.47234e-14 1.00924 0
0 1.00924 0
2.30182e-14 1.00924 0
0 1.01058 0
2.02024e-14 1.01058 0
2.30182e-14 1.00924 0
-1.7336e-13 1.00924 0
2.02024e-14 1.01058 0
-1.58814e-13 1.01058 0
0 1.01058 0
-1.56359e-14 1.01058 0
0 1.01189 0
-1.44414e-14 1.01189 0
-1.56359e-14 1.01058 0
1.46959e-13 1.01058 0
-1.44414e-14 1.01189 0
1.50081e-13 1.01189 0
-1.7336e-13 1.00924 0
-1.46687e-14 1.00924 0
-1.58814e-13 1.01058 0
-1.00695e-14 1.01058 0
-1.46687e-14 1.00924 0
1.04769e-13 1.00924 0
-1.00695e-14 1.01058 0
1.0496e-13 1.01058 0
1.46959e-13 1.01058 0
1.88612e-14 1.01058 0
1.50081e-13 1.01189 0
1.57164e-14 1.01189 0
1.88612e-14 1.01058 0
-1.41699e-13 1.01058 0
1.57164e-14 1.01189 0
-1.37211e-13 1.01189 0
5.07972e-14 1.00651 0
-1.21635e-14 1.00651 0
4.3721e-14 1.00789 0
-1.41438e-14 1.00789 0
-1.21635e-14 1.00651 0
-5.35829e-15 1.00651 0
-1.41438e-14 1.00789 0
3.23021e-15 1.00789 0
-5.84236e-14 1.00789 0
6.94124e-15 1.00789 0
-5.47234e-14 1.00924 0
8.64241e-15 1.00924 0
6.94124e-15 1.00789 0
-1.20154e-15 1.00789 0
8.64241e-15 1.00924 0
2.9825e-15 1.00924 0
-5.35829e-15 1.00651 0
-3.73655e-15 1.00651 0
3.23021e-15 1.00789 0
4.20954e-15 1.00789 0
-3.73655e-15 1.00651 0
-8.8601e-15 1.00651 0
4.20954e-15 1.00789 0
1.3591e-14 1.00789 0
-1.20154e-15 1.00789 0
5.88695e-15 1.00789 0
2.9825e-15 1.00924 0
-2.82931e-15 1.00924 0
5.88695e-15 1.00789 0
-3.019e-15 1.00789 0
-2.82931e-15 1.00924 0
1.45104e-14 1.00924 0
1.04769e-13 1.00924 0
-2.53951e-14 1.00924 0
1.0496e-13 1.01058 0
-1.82221e-14 1.01058 0
-2.53951e-14 1.00924 0
-6.83418e-15 1.00924 0
-1.82221e-14 1.01058 0
5.86689e-15 1.01058 0
-1.41699e-13 1.01058 0
-1.93441e-14 1.01058 0
-1.37211e-13 1.01189 0
-1.66294e-14 1.01189 0
-1.93441e-14 1.01058 0
-5.406e-16 1.01058 0
-1.66294e-14 1.01189 0
5.23071e-15 1.01189 0
-6.83418e-15 1.00924 0
4.362e-15 1.00924 0
5.86689e-15 1.01058 0
5.07772e-15 1.01058 0
4.362e-15 1.00924 0
-6.62066e-15 1.00924 0
5.07772e-15 1.01058 0
5.23089e-15 1.01058 0
-5.406e-16 1.01058 0
-2.37011e-15 1.01058 0
5.23071e-15 1.01189 0
5.18031e-15 1.01189 0
-2.37011e-15 1.01058 0
-7.75465e-15 1.01058 0
5.18031e-15 1.01189 0
2.29454e-15 1.01189 0
1.19857e-15 1 0
-3.88449e-15 1 0
-1.27857e-15 1.0024 0
1.05208e-14 1.0024 0
-3.88449e-15 1 0
2.45147e-15 1 0
1.05208e-14 1.0024 0
2.02983e-15 1.0024 0
-9.98547e-16 1.0024 0
1.61782e-15 1.0024 0
1.08303e-14 1.00362 0
3.02611e-15 1.00362 0
1.61782e-15 1.0024 0
-5.5938e-16 1.0024 0
3.02611e-15 1.00362 0
3.16196e-15 1.00362 0
2.45147e-15 1 0
3.25692e-15 1 0
2.02983e-15 1.0024 0
6.43209e-15 1.0024 0
3.25692e-15 1 0
7.83509e-16 1 0
6.43209e-15 1.0024 0
7.70345e-15 1.0024 0
-5.5938e-16 1.0024 0
-8.35897e-15 1.0024 0
3.16196e-15 1.00362 0
3.49491e-15 1.00362 0
-8.35897e-15 1.0024 0
-8.84309e-16 1.0024 0
3.49491e-15 1.00362 0
3.02901e-15 1.00362 0
-5.41356e-15 1.00362 0
-7.11556e-15 1.00362 0
5.66396e-15 1.00512 0
1.39311e-14 1.00512 0
-7.11556e-15 1.00362 0
1.94505e-16 1.00362 0
1.39311e-14 1.00512 0
8.52492e-15 1.00512 0
-2.62724e-15 1.00512 0
-5.85996e-16 1.00512 0
3.90325e-15 1.00651 0
5.19871e-15 1.00651 0
-5.85996e-16 1.00512 0
3.01823e-16 1.00512 0
5.19871e-15 1.00651 0
-1.80999e-16 1.00651 0
1.94505e-16 1.00362 0
1.41862e-14 1.00362 0
8.52492e-15 1.00512 0
3.16221e-15 1.00512 0
1.41862e-14 1.00362 0
-5.00293e-16 1.00362 0
3.16221e-15 1.00512 0
7.12971e-15 1.00512 0
3.01823e-16 1.00512 0
-8.4237e-15 1.00512 0
-1.80999e-16 1.00651 0
1.11531e-14 1.00651 0
-8.4237e-15 1.00512 0
3.67822e-15 1.00512 0
1.11531e-14 1.00651 0
8.08099e-15 1.00651 0
7.83509e-16 1 0
-5.46939e-15 1 0
7.70345e-15 1.0024 0
1.98845e-14 1.0024 0
-5.46939e-15 1 0
4.41524e-15 1 0
1.98845e-14 1.0024 0
1.69406e-15 1.0024 0
-8.84309e-16 1.0024 0
-2.94345e-15 1.0024 0
3.02901e-15 1.00362 0
3.13318e-15 1.00362 0
-2.94345e-15 1.0024 0
-3.17957e-15 1.0024 0
3.13318e-15 1.00362 0
1.57918e-14 1.00362 0
4.41524e-15 1 0
4.23793e-15 1 0
1.69406e-15 1.0024 0
2.97793e-16 1.0024 0
4.23793e-15 1 0
1.71244e-15 1 0
2.97793e-16 1.0024 0
9.28587e-15 1.0024 0
-3.17957e-15 1.0024 0
3.68021e-15 1.0024 0
1.57918e-14 1.00362 0
1.12018e-14 1.00362 0
3.68021e-15 1.0024 0
2.16642e-16 1.0024 0
1.12018e-14 1.00362 0
1.4803e-15 1.00362 0
-5.00293e-16 1.00362 0
-5.44705e-15 1.00362 0
7.12971e-15 1.00512 0
6.43981e-15 1.00512 0
-5.44705e-15 1.00362 0
4.0857e-15 1.00362 0
6.43981e-15 1.00512 0
-2.65565e-15 1.00512 0
3.67822e-15 1.00512 0
3.56066e-15 1.00512 0
8.08099e-15 1.00651 0
7.85486e-15 1.00651 0
3.56066e-15 1.00512 0
1.28629e-15 1.00512 0
7.85486e-15 1.00651 0
3.42337e-15 1.00651 0
4.0857e-15 1.00362 0
-1.11686e-14 1.00362 0
-2.65565e-15 1.00512 0
1.09659e-14 1.00512 0
-1.11686e-14 1.00362 0
-6.16234e-15 1.00362 0
1.09659e-14 1.00512 0
1.4772e-14 1.00512 0
1.28629e-15 1.00512 0
3.82974e-15 1.00512 0
3.42337e-15 1.00651 0
5.43172e-15 1.00651 0
3.82974e-15 1.00512 0
-4.21528e-15 1.00512 0
5.43172e-15 1.00651 0
2.95486e-15 1.00651 0
-8.8601e-15 1.00651 0
-3.63752e-15 1.00651 0
1.3591e-14 1.00789 0
4.35384e-15 1.00789 0
-3.63752e-15 1.00651 0
1.53832e-15 1.00651 0
4.35384e-15 1.00789 0
-1.47106e-15 1.00789 0
-3.019e-15 1.00789 0
-5.23029e-15 1.00789 0
1.45104e-14 1.00924 0
3.39564e-15 1.00924 0
-5.23029e-15 1.00789 0
4.83489e-15 1.00789 0
3.39564e-15 1.00924 0
3.18242e-15 1.00924 0
1.53832e-15 1.00651 0
-3.4885e-15 1.00651 0
-1.47106e-15 1.00789 0
4.41249e-15 1.00789 0
-3.4885e-15 1.00651 0
-8.21676e-15 1.00651 0
4.41249e-15 1.00789 0
6.79701e-15 1.00789 0
4.83489e-15 1.00789 0
-2.65134e-15 1.00789 0
3.18242e-15 1.00924 0
4.82931e-15 1.00924 0
-2.65134e-15 1.00789 0
-3.55957e-15 1.00789 0
4.82931e-15 1.00924 0
1.1401e-14 1.00924 0
-6.62066e-15 1.00924 0
6.40344e-15 1.00924 0
5.23089e-15 1.01058 0
8.21744e-15 1.01058 0
6.40344e-15 1.00924 0
-4.83753e-15 1.00924 0
8.21744e-15 1.01058 0
1.07361e-14 1.01058 0
-7.75465e-15 1.01058 0
-5.11217e-15 1.01058 0
2.29454e-15 1.01189 0
9.36311e-16 1.01189 0
-5.11217e-15 1.01058 0
1.87753e-15 1.01058 0
9.36311e-16 1.01189 0
9.96597e-15 1.01189 0
-4.83753e-15 1.00924 0
-3.72475e-15 1.00924 0
1.07361e-14 1.01058 0
3.86523e-15 1.01058 0
-3.72475e-15 1.00924 0
-8.33447e-15 1.00924 0
3.86523e-15 1.01058 0
8.17296e-15 1.01058 0
1.87753e-15 1.01058 0
6.2797e-15 1.01058 0
9.96597e-15 1.01189 0
3.30233e-16 1.01189 0
6.2797e-15 1.01058 0
-2.35751e-15 1.01058 0
3.30233e-16 1.01189 0
2.30054e-15 1.01189 0
-8.21676e-15 1.00651 0
-5.87929e-15 1.00651 0
6.79701e-15 1.00789 0
2.73199e-15 1.00789 0
-5.87929e-15 1.00651 0
3.58412e-16 1.00651 0
2.73199e-15 1.00789 0
4.60422e-15 1.00789 0
-3.55957e-15 1.00789 0
5.6647e-16 1.00789 0
1.1401e-14 1.00924 0
5.74641e-15 1.00924 0
5.6647e-16 1.00789 0
3.51212e-15 1.00789 0
5.74641e-15 1.00924 0
2.67901e-15 1.00924 0
3.58412e-16 1.00651 0
5.83612e-15 1.00651 0
4.60422e-15 1.00789 0
1.73296e-15 1.00789 0
5.83612e-15 1.00651 0
1.52078e-14 1.00651 0
1.73296e-15 1.00789 0
-4.02157e-15 1.00789 0
3.51212e-15 1.00789 0
-4.04425e-15 1.00789 0
2.67901e-15 1.00924 0
1.22777e-14 1.00924 0
-4.04425e-15 1.00789 0
-7.32671e-16 1.00789 0
1.22777e-14 1.00924 0
7.92997e-15 1.00924 0
-8.33447e-15 1.00924 0
-3.75207e-15 1.00924 0
8.17296e-15 1.01058 0
3.12514e-15 1.01058 0
-3.75207e-15 1.00924 0
-1.22025e-14 1.00924 0
3.12514e-15 1.01058 0
7.42139e-15 1.01058 0
-2.35751e-15 1.01058 0
1.29298e-15 1.01058 0
2.30054e-15 1.01189 0
-6.1304e-16 1.01189 0
1.29298e-15 1.01058 0
-2.42917e-15 1.01058 0
-6.1304e-16 1.01189 0
7.69566e-15 1.01189 0
-1.22025e-14 1.00924 0
-6.84276e-15 1.00924 0
7.42139e-15 1.01058 0
2.85433e-15 1.01058 0
-6.84276e-15 1.00924 0
-7.70529e-15 1.00924 0
2.85433e-15 1.01058 0
7.31607e-15 1.01058 0
-2.42917e-15 1.01058 0
3.11096e-15 1.01058 0
7.69566e-15 1.01189 0
-5.50947e-15 1.01189 0
3.11096e-15 1.01058 0
-4.83466e-16 1.01058 0
-5.50947e-15 1.01189 0
2.51154e-16 1.01189 0
0 1.01189 0
-6.13634e-15 1.01189 0
0 1.01319 0
-5.92637e-15 1.01319 0
-6.13634e-15 1.01189 0
-1.03856e-13 1.01189 0
-5.92637e-15 1.01319 0
-1.00185e-13 1.01319 0
0 1.01319 0
1.43532e-14 1.01319 0
0 1.01449 0
1.3319e-14 1.01449 0
1.43532e-14 1.01319 0
9.16619e-14 1.01319 0
1.3319e-14 1.01449 0
8.31219e-14 1.01449 0
-1.03856e-13 1.01189 0
6.74437e-15 1.01189 0
-1.00185e-13 1.01319 0
6.89146e-15 1.01319 0
6.74437e-15 1.01189 0
9.77671e-14 1.01189 0
6.89146e-15 1.01319 0
9.85828e-14 1.01319 0
9.16619e-14 1.01319 0
-3.0968e-14 1.01319 0
8.31219e-14 1.01449 0
-2.34261e-14 1.01449 0
-3.0968e-14 1.01319 0
-2.70253e-14 1.01319 0
-2.34261e-14 1.01449 0
-1.97611e-14 1.01449 0
0 1.01449 0
-1.75244e-14 1.01449 0
0 1.0158 0
-2.00975e-14 1.0158 0
-1.75244e-14 1.01449 0
-5.49869e-14 1.01449 0
-2.00975e-14 1.0158 0
-5.8053e-14 1.0158 0
0 1.0158 0
1.22689e-15 1.0158 0
0 1.01712 0
2.69726e-15 1.01712 0
1.22689e-15 1.0158 0
2.18247e-14 1.0158 0
2.69726e-15 1.01712 0
2.10885e-14 1.01712 0
-5.49869e-14 1.01449 0
9.2858e-15 1.01449 0
-5.8053e-14 1.0158 0
8.42049e-15 1.0158 0
9.2858e-15 1.01449 0
4.79675e-15 1.01449 0
8.42049e-15 1.0158 0
1.07113e-14 1.0158 0
2.18247e-14 1.0158 0
-1.09387e-14 1.0158 0
2.10885e-14 1.01712 0
-3.04648e-15 1.01712 0
-1.09387e-14 1.0158 0
-5.45357e-15 1.0158 0
-3.04648e-15 1.01712 0
-3.64656e-15 1.01712 0
9.77671e-14 1.01189 0
9.67497e-15 1.01189 0
9.85828e-14 1.01319 0
1.12669e-14 1.01319 0
9.67497e-15 1.01189 0
-5.26412e-16 1.01189 0
1.12669e-14 1.01319 0
2.77716e-15 1.01319 0
-2.70253e-14 1.01319 0
2.59755e-14 1.01319 0
-1.97611e-14 1.01449 0
2.37303e-14 1.01449 0
2.59755e-14 1.01319 0
-5.99311e-15 1.01319 0
2.37303e-14 1.01449 0
8.54938e-16 1.01449 0
-5.26412e-16 1.01189 0
8.76795e-16 1.01189 0
2.77716e-15 1.01319 0
9.01425e-16 1.01319 0
8.76795e-16 1.01189 0
9.00697e-15 1.01189 0
9.01425e-16 1.01319 0
4.83394e-15 1.01319 0
-5.99311e-15 1.01319 0
-1.76209e-15 1.01319 0
8.54938e-16 1.01449 0
4.08966e-15 1.01449 0
-1.76209e-15 1.01319 0
-3.98029e-15 1.01319 0
4.08966e-15 1.01449 0
2.00851e-15 1.01449 0
4.79675e-15 1.01449 0
-6.86168e-15 1.01449 0
1.07113e-14 1.0158 0
-6.02596e-15 1.0158 0
-6.86168e-15 1.01449 0
2.46076e-15 1.01449 0
-6.02596e-15 1.0158 0
1.38471e-15 1.0158 0
-5.45357e-15 1.0158 0
-2.71211e-15 1.0158 0
-3.64656e-15 1.01712 0
-2.59833e-15 1.01712 0
-2.71211e-15 1.0158 0
-1.15541e-15 1.0158 0
-2.59833e-15 1.01712 0
1.82777e-15 1.01712 0
2.46076e-15 1.01449 0
-3.74408e-16 1.01449 0
1.38471e-15 1.0158 0
3.72014e-15 1.0158 0
-3.74408e-16 1.01449 0
-4.33938e-15 1.01449 0
3.72014e-15 1.0158 0
7.13931e-15 1.0158 0
-1.15541e-15 1.0158 0
-1.70921e-15 1.0158 0
1.82777e-15 1.01712 0
4.56289e-15 1.01712 0
-1.70921e-15 1.0158 0
-3.61531e-15 1.0158 0
4.56289e-15 1.01712 0
5.89362e-15 1.01712 0
0 1.01712 0
2.01023e-14 1.01712 0
0 1.01845 0
2.05931e-14 1.01845 0
2.01023e-14 1.01712 0
-2.43667e-14 1.01712 0
2.05931e-14 1.01845 0
-1.83038e-14 1.01845 0
0 1.01845 0
-2.26815e-14 1.01845 0
0 1.01975 0
-2.01654e-14 1.01975 0
-2.26815e-14 1.01845 0
3.45026e-14 1.01845 0
-2.01654e-14 1.01975 0
3.41841e-14 1.01975 0
-2.43667e-14 1.01712 0
-2.43289e-15 1.01712 0
-1.83038e-14 1.01845 0
2.18414e-15 1.01845 0
-2.43289e-15 1.01712 0
-1.22602e-14 1.01712 0
2.18414e-15 1.01845 0
-5.4952e-15 1.01845 0
3.45026e-14 1.01845 0
2.73382e-15 1.01845 0
3.41841e-14 1.01975 0
8.59389e-15 1.01975 0
2.73382e-15 1.01845 0
2.15265e-15 1.01845 0
8.59389e-15 1.01975 0
3.01406e-15 1.01975 0
0 1.01975 0
1.5443e-14 1.01975 0
0 1.02088 0
1.42169e-14 1.02088 0
1.5443e-14 1.01975 0
-1.8558e-14 1.01975 0
1.42169e-14 1.02088 0
-1.98145e-14 1.02088 0
0 1.02088 0
-2.43995e-15 1.02088 0
0 1.02136 0
-1.29709e-14 1.02136 0
-2.43995e-15 1.02088 0
5.2131e-17 1.02088 0
-1.29709e-14 1.02136 0
1.42964e-14 1.02136 0
-1.8558e-14 1.01975 0
8.309e-16 1.01975 0
-1.98145e-14 1.02088 0
-8.97409e-16 1.02088 0
8.309e-16 1.01975 0
3.18174e-15 1.01975 0
-8.97409e-16 1.02088 0
3.8769e-15 1.02088 0
5.2131e-17 1.02088 0
-3.35669e-15 1.02088 0
1.42964e-14 1.02136 0
-1.37095e-14 1.02136 0
-3.35669e-15 1.02088 0
-7.54542e-16 1.02088 0
-1.37095e-14 1.02136 0
1.06901e-14 1.02136 0
-1.22602e-14 1.01712 0
-5.20078e-15 1.01712 0
-5.4952e-15 1.01845 0
4.77209e-15 1.01845 0
-5.20078e-15 1.01712 0
1.01729e-15 1.01712 0
4.77209e-15 1.01845 0
3.16333e-15 1.01845 0
2.15265e-15 1.01845 0
-3.09693e-15 1.01845 0
3.01406e-15 1.01975 0
2.80515e-15 1.01975 0
-3.09693e-15 1.01845 0
-4.94388e-15 1.01845 0
2.80515e-15 1.01975 0
3.99933e-15 1.01975 0
1.01729e-15 1.01712 0
-2.4516e-15 1.01712 0
3.16333e-15 1.01845 0
2.99342e-15 1.01845 0
-2.4516e-15 1.01712 0
-1.89407e-15 1.01712 0
2.99342e-15 1.01845 0
2.21573e-15 1.01845 0
-4.94388e-15 1.01845 0
-6.38799e-15 1.01845 0
3.99933e-15 1.01975 0
3.17267e-15 1.01975 0
-6.38799e-15 1.01845 0
-2.44788e-15 1.01845 0
3.17267e-15 1.01975 0
1.82641e-15 1.01975 0
3.18174e-15 1.01975 0
-8.88573e-16 1.01975 0
3.8769e-15 1.02088 0
4.85117e-15 1.02088 0
-8.88573e-16 1.01975 0
-1.54606e-15 1.01975 0
4.85117e-15 1.02088 0
3.04566e-15 1.02088 0
-7.54542e-16 1.02088 0
-3.69968e-15 1.02088 0
1.06901e-14 1.02136 0
2.89506e-15 1.02136 0
-3.69968e-15 1.02088 0
-1.18861e-15 1.02088 0
2.89506e-15 1.02136 0
-4.53716e-16 1.02136 0
-1.54606e-15 1.01975 0
-3.48724e-15 1.01975 0
3.04566e-15 1.02088 0
2.8505e-15 1.02088 0
-3.48724e-15 1.01975 0
-1.44344e-15 1.01975 0
2.8505e-15 1.02088 0
3.43678e-15 1.02088 0
-1.18861e-15 1.02088 0
-9.97837e-16 1.02088 0
-4.53716e-16 1.02136 0
6.55664e-15 1.02136 0
-9.97837e-16 1.02088 0
1.072e-15 1.02088 0
6.55664e-15 1.02136 0
-1.51128e-14 1.02136 0
9.00697e-15 1.01189 0
5.78355e-15 1.01189 0
4.83394e-15 1.01319 0
5.17115e-15 1.01319 0
5.78355e-15 1.01189 0
-7.01523e-15 1.01189 0
5.17115e-15 1.01319 0
-4.62244e-15 1.01319 0
-3.98029e-15 1.01319 0
-2.25123e-15 1.01319 0
2.00851e-15 1.01449 0
5.25857e-15 1.01449 0
-2.25123e-15 1.01319 0
2.65954e-15 1.01319 0
5.25857e-15 1.01449 0
2.02192e-15 1.01449 0
-7.01523e-15 1.01189 0
-4.63533e-15 1.01189 0
-4.62244e-15 1.01319 0
2.92773e-15 1.01319 0
-4.63533e-15 1.01189 0
6.02758e-16 1.01189 0
2.92773e-15 1.01319 0
2.0527e-15 1.01319 0
2.65954e-15 1.01319 0
-3.49888e-15 1.01319 0
2.02192e-15 1.01449 0
4.54797e-15 1.01449 0
-3.49888e-15 1.01319 0
-2.47265e-15 1.01319 0
4.54797e-15 1.01449 0
4.72958e-15 1.01449 0
-4.33938e-15 1.01449 0
-3.43018e-15 1.01449 0
7.13931e-15 1.0158 0
5.88914e-15 1.0158 0
-3.43018e-15 1.01449 0
-3.32769e-15 1.01449 0
5.88914e-15 1.0158 0
2.2493e-15 1.0158 0
-3.61531e-15 1.0158 0
-5.35782e-15 1.0158 0
5.89362e-15 1.01712 0
4.88979e-15 1.01712 0
-5.35782e-15 1.0158 0
-2.36575e-16 1.0158 0
4.88979e-15 1.01712 0
-1.53344e-15 1.01712 0
-3.32769e-15 1.01449 0
-3.02276e-15 1.01449 0
2.2493e-15 1.0158 0
5.04179e-15 1.0158 0
-3.02276e-15 1.01449 0
-4.31813e-15 1.01449 0
5.04179e-15 1.0158 0
2.30827e-15 1.0158 0
-2.36575e-16 1.0158 0
-2.90084e-15 1.0158 0
-1.53344e-15 1.01712 0
2.62511e-15 1.01712 0
-2.90084e-15 1.0158 0
-7.34644e-16 1.0158 0
2.62511e-15 1.01712 0
2.85847e-15 1.01712 0
6.02758e-16 1.01189 0
1.30623e-15 1.01189 0
2.0527e-15 1.01319 0
7.44884e-16 1.01319 0
1.30623e-15 1.01189 0
-2.26169e-15 1.01189 0
7.44884e-16 1.01319 0
7.53488e-15 1.01319 0
-2.47265e-15 1.01319 0
-7.0808e-16 1.01319 0
4.72958e-15 1.01449 0
2.87303e-15 1.01449 0
-7.0808e-16 1.01319 0
1.75119e-15 1.01319 0
2.87303e-15 1.01449 0
-3.75611e-16 1.01449 0
-2.26169e-15 1.01189 0
1.1841e-15 1.01189 0
7.53488e-15 1.01319 0
3.17151e-15 1.01319 0
1.1841e-15 1.01189 0
3.06436e-15 1.01189 0
3.17151e-15 1.01319 0
-1.54303e-15 1.01319 0
1.75119e-15 1.01319 0
2.5655e-15 1.01319 0
-3.75611e-16 1.01449 0
2.72053e-15 1.01449 0
2.5655e-15 1.01319 0
6.47038e-16 1.01319 0
2.72053e-15 1.01449 0
3.11743e-15 1.01449 0
-4.31813e-15 1.01449 0
-1.78719e-15 1.01449 0
2.30827e-15 1.0158 0
1.74679e-16 1.0158 0
-1.78719e-15 1.01449 0
4.22339e-16 1.01449 0
1.74679e-16 1.0158 0
2.48645e-15 1.0158 0
-7.34644e-16 1.0158 0
1.3463e-15 1.0158 0
2.85847e-15 1.01712 0
2.2481e-15 1.01712 0
1.3463e-15 1.0158 0
-4.13912e-15 1.0158 0
2.2481e-15 1.01712 0
5.13694e-15 1.01712 0
4.22339e-16 1.01449 0
-1.97372e-15 1.01449 0
2.48645e-15 1.0158 0
2.01955e-15 1.0158 0
-1.97372e-15 1.01449 0
-1.55667e-15 1.01449 0
2.01955e-15 1.0158 0
5.57392e-15 1.0158 0
-4.13912e-15 1.0158 0
-3.40608e-15 1.0158 0
5.13694e-15 1.01712 0
2.57373e-15 1.01712 0
-3.40608e-15 1.0158 0
3.62362e-15 1.0158 0
2.57373e-15 1.01712 0
-9.47471e-16 1.01712 0
-1.89407e-15 1.01712 0
-4.95696e-15 1.01712 0
2.21573e-15 1.01845 0
3.62937e-15 1.01845 0
-4.95696e-15 1.01712 0
-3.03665e-15 1.01712 0
3.62937e-15 1.01845 0
2.59465e-15 1.01845 0
-2.44788e-15 1.01845 0
5.87145e-16 1.01845 0
1.82641e-15 1.01975 0
-2.20892e-15 1.01975 0
5.87145e-16 1.01845 0
-1.89028e-15 1.01845 0
-2.20892e-15 1.01975 0
2.84496e-15 1.01975 0
-3.03665e-15 1.01712 0
2.51851e-17 1.01712 0
2.59465e-15 1.01845 0
6.12634e-16 1.01845 0
2.51851e-17 1.01712 0
-5.52511e-15 1.01712 0
6.12634e-16 1.01845 0
2.868e-15 1.01845 0
-1.89028e-15 1.01845 0
-3.78958e-15 1.01845 0
2.84496e-15 1.01975 0
1.05038e-15 1.01975 0