# vtk DataFile Version 3.0
#This file was generated by the deal.II library on 2018/10/12 at 1:07:04
ASCII
DATASET UNSTRUCTURED_GRID

POINTS 5120 double
0 0 0
0.392699 0 0
0 0.599898 0
0.392699 0.599898 0
0.392699 0 0
0.785398 0 0
0.392699 0.599898 0
0.785398 0.599898 0
0 0.599898 0
0.392699 0.599898 0
0 1.22674 0
0.392699 1.22674 0
0.392699 0.599898 0
0.785398 0.599898 0
0.392699 1.22674 0
0.785398 1.22674 0
0.785398 0 0
1.1781 0 0
0.785398 0.599898 0
1.1781 0.599898 0
1.1781 0 0
1.5708 0 0
1.1781 0.599898 0
1.5708 0.599898 0
0.785398 0.599898 0
1.1781 0.599898 0
0.785398 1.22674 0
1.1781 1.22674 0
1.1781 0.599898 0
1.5708 0.599898 0
1.1781 1.22674 0
1.5708 1.22674 0
0 1.22674 0
0.392699 1.22674 0
0 1.85264 0
0.392699 1.85264 0
0.392699 1.22674 0
0.785398 1.22674 0
0.392699 1.85264 0
0.785398 1.85264 0
0 1.85264 0
0.392699 1.85264 0
0 2.47946 0
0.392699 2.47946 0
0.392699 1.85264 0
0.785398 1.85264 0
0.392699 2.47946 0
0.785398 2.47946 0
0.785398 1.22674 0
1.1781 1.22674 0
0.785398 1.85264 0
1.1781 1.85264 0
1.1781 1.22674 0
1.5708 1.22674 0
1.1781 1.85264 0
1.5708 1.85264 0
0.785398 1.85264 0
1.1781 1.85264 0
0.785398 2.47946 0
1.1781 2.47946 0
1.1781 1.85264 0
1.5708 1.85264 0
1.1781 2.47946 0
1.5708 2.47946 0
1.5708 0 0
1.9635 0 0
1.5708 0.599898 0
1.9635 0.599898 0
1.9635 0 0
2.35619 0 0
1.9635 0.599898 0
2.35619 0.599898 0
1.5708 0.599898 0
1.9635 0.599898 0
1.5708 1.22674 0
1.9635 1.22674 0
1.9635 0.599898 0
2.35619 0.599898 0
1.9635 1.22674 0
2.35619 1.22674 0
2.35619 0 0
2.74889 0 0
2.35619 0.599898 0
2.74889 0.599898 0
2.74889 0 0
3.14159 0 0
2.74889 0.599898 0
3.14159 0.599898 0
2.35619 0.599898 0
2.74889 0.599898 0
2.35619 1.22674 0
2.74889 1.22674 0
2.74889 0.599898 0
3.14159 0.599898 0
2.74889 1.22674 0
3.14159 1.22674 0
1.5708 1.22674 0
1.9635 1.22674 0
1.5708 1.85264 0
1.9635 1.85264 0
1.9635 1.22674 0
2.35619 1.22674 0
1.9635 1.85264 0
2.35619 1.85264 0
1.5708 1.85264 0
1.9635 1.85264 0
1.5708 2.47946 0
1.9635 2.47946 0
1.9635 1.85264 0
2.35619 1.85264 0
1.9635 2.47946 0
2.35619 2.47946 0
2.35619 1.22674 0
2.74889 1.22674 0
2.35619 1.85264 0
2.74889 1.85264 0
2.74889 1.22674 0
3.14159 1.22674 0
2.74889 1.85264 0
3.14159 1.85264 0
2.35619 1.85264 0
2.74889 1.85264 0
2.35619 2.47946 0
2.74889 2.47946 0
2.74889 1.85264 0
3.14159 1.85264 0
2.74889 2.47946 0
3.14159 2.47946 0
0 2.47946 0
0.392699 2.47946 0
0 3.10604 0
0.392699 3.10604 0
0.392699 2.47946 0
0.785398 2.47946 0
0.392699 3.10604 0
0.785398 3.10604 0
0 3.10604 0
0.392699 3.10604 0
0 3.73263 0
0.392699 3.73263 0
0.392699 3.10604 0
0.785398 3.10604 0
0.392699 3.73263 0
0.785398 3.73263 0
0.785398 2.47946 0
1.1781 2.47946 0
0.785398 3.10604 0
1.1781 3.10604 0
1.1781 2.47946 0
1.5708 2.47946 0
1.1781 3.10604 0
1.5708 3.10604 0
0.785398 3.10604 0
1.1781 3.10604 0
0.785398 3.73263 0
1.1781 3.73263 0
1.1781 3.10604 0
1.5708 3.10604 0
1.1781 3.73263 0
1.5708 3.73263 0
0 3.73263 0
0.392699 3.73263 0
0 4.35914 0
0.392699 4.35914 0
0.392699 3.73263 0
0.785398 3.73263 0
0.392699 4.35914 0
0.785398 4.35914 0
0 4.35914 0
0.392699 4.35914 0
0 4.98559 0
0.392699 4.98559 0
0.392699 4.35914 0
0.785398 4.35914 0
0.392699 4.98559 0
0.785398 4.98559 0
0.785398 3.73263 0
1.1781 3.73263 0
0.785398 4.35914 0
1.1781 4.35914 0
1.1781 3.73263 0
1.5708 3.73263 0
1.1781 4.35914 0
1.5708 4.35914 0
0.785398 4.35914 0
1.1781 4.35914 0
0.785398 4.98559 0
1.1781 4.98559 0
1.1781 4.35914 0
1.5708 4.35914 0
1.1781 4.98559 0
1.5708 4.98559 0
1.5708 2.47946 0
1.9635 2.47946 0
1.5708 3.10604 0
1.9635 3.10604 0
1.9635 2.47946 0
2.35619 2.47946 0
1.9635 3.10604 0
2.35619 3.10604 0
1.5708 3.10604 0
1.9635 3.10604 0
1.5708 3.73263 0
1.9635 3.73263 0
1.9635 3.10604 0
2.35619 3.10604 0
1.9635 3.73263 0
2.35619 3.73263 0
2.35619 2.47946 0
2.74889 2.47946 0
2.35619 3.10604 0
2.74889 3.10604 0
2.74889 2.47946 0
3.14159 2.47946 0
2.74889 3.10604 0
3.14159 3.10604 0
2.35619 3.10604 0
2.74889 3.10604 0
2.35619 3.73263 0
2.74889 3.73263 0
2.74889 3.10604 0
3.14159 3.10604 0
2.74889 3.73263 0
3.14159 3.73263 0
1.5708 3.73263 0
1.9635 3.73263 0
1.5708 4.35914 0
1.9635 4.35914 0
1.9635 3.73263 0
2.35619 3.73263 0
1.9635 4.35914 0
2.35619 4.35914 0
1.5708 4.35914 0
1.9635 4.35914 0
1.5708 4.98559 0
1.9635 4.98559 0
1.9635 4.35914 0
2.35619 4.35914 0
1.9635 4.98559 0
2.35619 4.98559 0
2.35619 3.73263 0
2.74889 3.73263 0
2.35619 4.35914 0
2.74889 4.35914 0
2.74889 3.73263 0
3.14159 3.73263 0
2.74889 4.35914 0
3.14159 4.35914 0
2.35619 4.35914 0
2.74889 4.35914 0
2.35619 4.98559 0
2.74889 4.98559 0
2.74889 4.35914 0
3.14159 4.35914 0
2.74889 4.98559 0
3.14159 4.98559 0
3.14159 0 0
3.53429 0 0
3.14159 0.599898 0
3.53429 0.599898 0
3.53429 0 0
3.92699 0 0
3.53429 0.599898 0
3.92699 0.599898 0
3.14159 0.599898 0
3.53429 0.599898 0
3.14159 1.22674 0
3.53429 1.22674 0
3.53429 0.599898 0
3.92699 0.599898 0
3.53429 1.22674 0
3.92699 1.22674 0
3.92699 0 0
4.31969 0 0
3.92699 0.599898 0
4.31969 0.599898 0
4.31969 0 0
4.71239 0 0
4.31969 0.599898 0
4.71239 0.599898 0
3.92699 0.599898 0
4.31969 0.599898 0
3.92699 1.22674 0
4.31969 1.22674 0
4.31969 0.599898 0
4.71239 0.599898 0
4.31969 1.22674 0
4.71239 1.22674 0
3.14159 1.22674 0
3.53429 1.22674 0
3.14159 1.85264 0
3.53429 1.85264 0
3.53429 1.22674 0
3.92699 1.22674 0
3.53429 1.85264 0
3.92699 1.85264 0
3.14159 1.85264 0
3.53429 1.85264 0
3.14159 2.47946 0
3.53429 2.47946 0
3.53429 1.85264 0
3.92699 1.85264 0
3.53429 2.47946 0
3.92699 2.47946 0
3.92699 1.22674 0
4.31969 1.22674 0
3.92699 1.85264 0
4.31969 1.85264 0
4.31969 1.22674 0
4.71239 1.22674 0
4.31969 1.85264 0
4.71239 1.85264 0
3.92699 1.85264 0
4.31969 1.85264 0
3.92699 2.47946 0
4.31969 2.47946 0
4.31969 1.85264 0
4.71239 1.85264 0
4.31969 2.47946 0
4.71239 2.47946 0
4.71239 0 0
5.10509 0 0
4.71239 0.599898 0
5.10509 0.599898 0
5.10509 0 0
5.49779 0 0
5.10509 0.599898 0
5.49779 0.599898 0
4.71239 0.599898 0
5.10509 0.599898 0
4.71239 1.22674 0
5.10509 1.22674 0
5.10509 0.599898 0
5.49779 0.599898 0
5.10509 1.22674 0
5.49779 1.22674 0
5.49779 0 0
5.89049 0 0
5.49779 0.599898 0
5.89049 0.599898 0
5.89049 0 0
6.28319 0 0
5.89049 0.599898 0
6.28319 0.599898 0
5.49779 0.599898 0
5.89049 0.599898 0
5.49779 1.22674 0
5.89049 1.22674 0
5.89049 0.599898 0
6.28319 0.599898 0
5.89049 1.22674 0
6.28319 1.22674 0
4.71239 1.22674 0
5.10509 1.22674 0
4.71239 1.85264 0
5.10509 1.85264 0
5.10509 1.22674 0
5.49779 1.22674 0
5.10509 1.85264 0
5.49779 1.85264 0
4.71239 1.85264 0
5.10509 1.85264 0
4.71239 2.47946 0
5.10509 2.47946 0
5.10509 1.85264 0
5.49779 1.85264 0
5.10509 2.47946 0
5.49779 2.47946 0
5.49779 1.22674 0
5.89049 1.22674 0
5.49779 1.85264 0
5.89049 1.85264 0
5.89049 1.22674 0
6.28319 1.22674 0
5.89049 1.85264 0
6.28319 1.85264 0
5.49779 1.85264 0
5.89049 1.85264 0
5.49779 2.47946 0
5.89049 2.47946 0
5.89049 1.85264 0
6.28319 1.85264 0
5.89049 2.47946 0
6.28319 2.47946 0
3.14159 2.47946 0
3.53429 2.47946 0
3.14159 3.10604 0
3.53429 3.10604 0
3.53429 2.47946 0
3.92699 2.47946 0
3.53429 3.10604 0
3.92699 3.10604 0
3.14159 3.10604 0
3.53429 3.10604 0
3.14159 3.73263 0
3.53429 3.73263 0
3.53429 3.10604 0
3.92699 3.10604 0
3.53429 3.73263 0
3.92699 3.73263 0
3.92699 2.47946 0
4.31969 2.47946 0
3.92699 3.10604 0
4.31969 3.10604 0
4.31969 2.47946 0
4.71239 2.47946 0
4.31969 3.10604 0
4.71239 3.10604 0
3.92699 3.10604 0
4.31969 3.10604 0
3.92699 3.73263 0
4.31969 3.73263 0
4.31969 3.10604 0
4.71239 3.10604 0
4.31969 3.73263 0
4.71239 3.73263 0
3.14159 3.73263 0
3.53429 3.73263 0
3.14159 4.35914 0
3.53429 4.35914 0
3.53429 3.73263 0
3.92699 3.73263 0
3.53429 4.35914 0
3.92699 4.35914 0
3.14159 4.35914 0
3.53429 4.35914 0
3.14159 4.98559 0
3.53429 4.98559 0
3.53429 4.35914 0
3.92699 4.35914 0
3.53429 4.98559 0
3.92699 4.98559 0
3.92699 3.73263 0
4.31969 3.73263 0
3.92699 4.35914 0
4.31969 4.35914 0
4.31969 3.73263 0
4.71239 3.73263 0
4.31969 4.35914 0
4.71239 4.35914 0
3.92699 4.35914 0
4.31969 4.35914 0
3.92699 4.98559 0
4.31969 4.98559 0
4.31969 4.35914 0
4.71239 4.35914 0
4.31969 4.98559 0
4.71239 4.98559 0
4.71239 2.47946 0
5.10509 2.47946 0
4.71239 3.10604 0
5.10509 3.10604 0
5.10509 2.47946 0
5.49779 2.47946 0
5.10509 3.10604 0
5.49779 3.10604 0
4.71239 3.10604 0
5.10509 3.10604 0
4.71239 3.73263 0
5.10509 3.73263 0
5.10509 3.10604 0
5.49779 3.10604 0
5.10509 3.73263 0
5.49779 3.73263 0
5.49779 2.47946 0
5.89049 2.47946 0
5.49779 3.10604 0
5.89049 3.10604 0
5.89049 2.47946 0
6.28319 2.47946 0
5.89049 3.10604 0
6.28319 3.10604 0
5.49779 3.10604 0
5.89049 3.10604 0
5.49779 3.73263 0
5.89049 3.73263 0
5.89049 3.10604 0
6.28319 3.10604 0
5.89049 3.73263 0
6.28319 3.73263 0
4.71239 3.73263 0
5.10509 3.73263 0
4.71239 4.35914 0
5.10509 4.35914 0
5.10509 3.73263 0
5.49779 3.73263 0
5.10509 4.35914 0
5.49779 4.35914 0
4.71239 4.35914 0
5.10509 4.35914 0
4.71239 4.98559 0
5.10509 4.98559 0
5.10509 4.35914 0
5.49779 4.35914 0
5.10509 4.98559 0
5.49779 4.98559 0
5.49779 3.73263 0
5.89049 3.73263 0
5.49779 4.35914 0
5.89049 4.35914 0
5.89049 3.73263 0
6.28319 3.73263 0
5.89049 4.35914 0
6.28319 4.35914 0
5.49779 4.35914 0
5.89049 4.35914 0
5.49779 4.98559 0
5.89049 4.98559 0
5.89049 4.35914 0
6.28319 4.35914 0
5.89049 4.98559 0
6.28319 4.98559 0
0 4.98559 0
0.392699 4.98559 0
0 5.61196 0
0.392699 5.61196 0
0.392699 4.98559 0
0.785398 4.98559 0
0.392699 5.61196 0
0.785398 5.61196 0
0 5.61196 0
0.392699 5.61196 0
0 6.23826 0
0.392699 6.23826 0
0.392699 5.61196 0
0.785398 5.61196 0
0.392699 6.23826 0
0.785398 6.23826 0
0.785398 4.98559 0
1.1781 4.98559 0
0.785398 5.61196 0
1.1781 5.61196 0
1.1781 4.98559 0
1.5708 4.98559 0
1.1781 5.61196 0
1.5708 5.61196 0
0.785398 5.61196 0
1.1781 5.61196 0
0.785398 6.23826 0
1.1781 6.23826 0
1.1781 5.61196 0
1.5708 5.61196 0
1.1781 6.23826 0
1.5708 6.23826 0
0 6.23826 0
0.392699 6.23826 0
0 6.8645 0
0.392699 6.8645 0
0.392699 6.23826 0
0.785398 6.23826 0
0.392699 6.8645 0
0.785398 6.8645 0
0 6.8645 0
0.392699 6.8645 0
0 7.49074 0
0.392699 7.49074 0
0.392699 6.8645 0
0.785398 6.8645 0
0.392699 7.49074 0
0.785398 7.49074 0
0.785398 6.23826 0
1.1781 6.23826 0
0.785398 6.8645 0
[...]
POINT_DATA 5120
VECTORS uf double
0 1 0
-1.11153e-13 1 0
0 1.00247 0
-1.10312e-13 1.00247 0
-1.11153e-13 1 0
-7.90806e-15 1 0
-1.10312e-13 1.00247 0
-9.77543e-15 1.00247 0
0 1.00247 0
6.97343e-14 1.00247 0
0 1.00374 0
7.11556e-14 1.00374 0
6.97343e-14 1.00247 0
1.21659e-15 1.00247 0
7.11556e-14 1.00374 0
-5.3239e-15 1.00374 0
-7.90806e-15 1 0
1.93263e-13 1 0
-9.77543e-15 1.00247 0
1.80902e-13 1.00247 0
1.93263e-13 1 0
4.50422e-14 1 0
1.80902e-13 1.00247 0
5.17799e-14 1.00247 0
1.21659e-15 1.00247 0
-1.92618e-13 1.00247 0
-5.3239e-15 1.00374 0
-1.86198e-13 1.00374 0
-1.92618e-13 1.00247 0
-5.15936e-14 1.00247 0
-1.86198e-13 1.00374 0
-3.88935e-14 1.00374 0
0 1.00374 0
8.11437e-15 1.00374 0
0 1.00528 0
1.07599e-14 1.00528 0
8.11437e-15 1.00374 0
4.025e-14 1.00374 0
1.07599e-14 1.00528 0
4.12557e-14 1.00528 0
0 1.00528 0
4.44468e-14 1.00528 0
0 1.00671 0
3.81297e-14 1.00671 0
4.44468e-14 1.00528 0
2.8202e-14 1.00528 0
3.81297e-14 1.00671 0
2.34345e-14 1.00671 0
4.025e-14 1.00374 0
-8.1673e-16 1.00374 0
4.12557e-14 1.00528 0
1.43948e-14 1.00528 0
-8.1673e-16 1.00374 0
-5.52828e-15 1.00374 0
1.43948e-14 1.00528 0
-7.50044e-16 1.00528 0
2.8202e-14 1.00528 0
1.44667e-14 1.00528 0
2.34345e-14 1.00671 0
1.77388e-14 1.00671 0
1.44667e-14 1.00528 0
-3.54941e-14 1.00528 0
1.77388e-14 1.00671 0
-3.188e-14 1.00671 0
4.50422e-14 1 0
-3.14112e-14 1 0
5.17799e-14 1.00247 0
-1.74995e-14 1.00247 0
-3.14112e-14 1 0
-7.46359e-15 1 0
-1.74995e-14 1.00247 0
7.10556e-15 1.00247 0
-5.15936e-14 1.00247 0
2.70746e-14 1.00247 0
-3.88935e-14 1.00374 0
2.3375e-14 1.00374 0
2.70746e-14 1.00247 0
-7.17168e-15 1.00247 0
2.3375e-14 1.00374 0
1.0641e-14 1.00374 0
-7.46359e-15 1 0
6.16998e-16 1 0
7.10556e-15 1.00247 0
4.54263e-16 1.00247 0
6.16998e-16 1 0
-2.76422e-16 1 0
4.54263e-16 1.00247 0
-2.35551e-16 1.00247 0
-7.17168e-15 1.00247 0
-8.19934e-15 1.00247 0
1.0641e-14 1.00374 0
6.65137e-15 1.00374 0
-8.19934e-15 1.00247 0
1.65268e-15 1.00247 0
6.65137e-15 1.00374 0
3.34955e-15 1.00374 0
-5.52828e-15 1.00374 0
2.2706e-14 1.00374 0
-7.50044e-16 1.00528 0
2.99678e-14 1.00528 0
2.2706e-14 1.00374 0
5.85356e-16 1.00374 0
2.99678e-14 1.00528 0
8.10363e-15 1.00528 0
-3.54941e-14 1.00528 0
-1.20109e-15 1.00528 0
-3.188e-14 1.00671 0
-8.89765e-15 1.00671 0
-1.20109e-15 1.00528 0
-6.23461e-15 1.00528 0
-8.89765e-15 1.00671 0
-2.65687e-17 1.00671 0
5.85356e-16 1.00374 0
2.83657e-15 1.00374 0
8.10363e-15 1.00528 0
3.75761e-15 1.00528 0
2.83657e-15 1.00374 0
1.43972e-15 1.00374 0
3.75761e-15 1.00528 0
6.07168e-15 1.00528 0
-6.23461e-15 1.00528 0
-4.66574e-16 1.00528 0
-2.65687e-17 1.00671 0
-2.10807e-16 1.00671 0
-4.66574e-16 1.00528 0
-4.84158e-15 1.00528 0
-2.10807e-16 1.00671 0
4.51404e-15 1.00671 0
0 1.00671 0
-6.9258e-14 1.00671 0
0 1.00813 0
-6.48565e-14 1.00813 0
-6.9258e-14 1.00671 0
-6.96582e-14 1.00671 0
-6.48565e-14 1.00813 0
-6.46968e-14 1.00813 0
0 1.00813 0
5.592e-14 1.00813 0
0 1.00952 0
4.63037e-14 1.00952 0
5.592e-14 1.00813 0
8.32585e-14 1.00813 0
4.63037e-14 1.00952 0
9.12275e-14 1.00952 0
-6.96582e-14 1.00671 0
-3.1474e-14 1.00671 0
-6.46968e-14 1.00813 0
-2.54995e-14 1.00813 0
-3.1474e-14 1.00671 0
7.01412e-14 1.00671 0
-2.54995e-14 1.00813 0
5.23284e-14 1.00813 0
8.32585e-14 1.00813 0
4.04596e-14 1.00813 0
9.12275e-14 1.00952 0
4.01493e-14 1.00952 0
4.04596e-14 1.00813 0
-6.47398e-14 1.00813 0
4.01493e-14 1.00952 0
-6.17858e-14 1.00952 0
0 1.00952 0
2.333e-14 1.00952 0
0 1.0109 0
1.92462e-14 1.0109 0
2.333e-14 1.00952 0
-1.80684e-13 1.00952 0
1.92462e-14 1.0109 0
-1.77774e-13 1.0109 0
0 1.0109 0
-1.80913e-15 1.0109 0
0 1.01225 0
-4.95804e-15 1.01225 0
-1.80913e-15 1.0109 0
1.74411e-13 1.0109 0
-4.95804e-15 1.01225 0
1.66238e-13 1.01225 0
-1.80684e-13 1.00952 0
-2.6138e-14 1.00952 0
-1.77774e-13 1.0109 0
-1.69952e-14 1.0109 0
-2.6138e-14 1.00952 0
1.34174e-13 1.00952 0
-1.69952e-14 1.0109 0
1.38386e-13 1.0109 0
1.74411e-13 1.0109 0
2.43356e-14 1.0109 0
1.66238e-13 1.01225 0
2.22265e-14 1.01225 0
2.43356e-14 1.0109 0
-1.64547e-13 1.0109 0
2.22265e-14 1.01225 0
-1.46385e-13 1.01225 0
7.01412e-14 1.00671 0
-3.87956e-15 1.00671 0
5.23284e-14 1.00813 0
2.83541e-15 1.00813 0
-3.87956e-15 1.00671 0
2.43729e-17 1.00671 0
2.83541e-15 1.00813 0
-8.43407e-16 1.00813 0
-6.47398e-14 1.00813 0
-4.30587e-15 1.00813 0
-6.17858e-14 1.00952 0
-5.4309e-15 1.00952 0
-4.30587e-15 1.00813 0
-4.78144e-15 1.00813 0
-5.4309e-15 1.00952 0
2.72242e-15 1.00952 0
2.43729e-17 1.00671 0
-5.36369e-15 1.00671 0
-8.43407e-16 1.00813 0
9.30528e-15 1.00813 0
-5.36369e-15 1.00671 0
-1.11697e-14 1.00671 0
9.30528e-15 1.00813 0
1.38348e-14 1.00813 0
-4.78144e-15 1.00813 0
-7.07608e-15 1.00813 0
2.72242e-15 1.00952 0
5.0942e-15 1.00952 0
-7.07608e-15 1.00813 0
1.35159e-14 1.00813 0
5.0942e-15 1.00952 0
6.98566e-15 1.00952 0
1.34174e-13 1.00952 0
-2.30159e-14 1.00952 0
1.38386e-13 1.0109 0
-1.9783e-14 1.0109 0
-2.30159e-14 1.00952 0
-3.67933e-15 1.00952 0
-1.9783e-14 1.0109 0
5.49569e-15 1.0109 0
-1.64547e-13 1.0109 0
-2.85584e-14 1.0109 0
-1.46385e-13 1.01225 0
-2.43153e-14 1.01225 0
-2.85584e-14 1.0109 0
1.11966e-16 1.0109 0
-2.43153e-14 1.01225 0
5.73573e-15 1.01225 0
-3.67933e-15 1.00952 0
5.07867e-15 1.00952 0
5.49569e-15 1.0109 0
-3.96365e-16 1.0109 0
5.07867e-15 1.00952 0
-4.33235e-15 1.00952 0
-3.96365e-16 1.0109 0
-3.17474e-15 1.0109 0
1.11966e-16 1.0109 0
5.77134e-15 1.0109 0
5.73573e-15 1.01225 0
1.06951e-14 1.01225 0
5.77134e-15 1.0109 0
-9.73286e-15 1.0109 0
1.06951e-14 1.01225 0
4.21689e-16 1.01225 0
-2.76422e-16 1 0
-6.852e-16 1 0
-2.35551e-16 1.00247 0
3.12888e-15 1.00247 0
-6.852e-16 1 0
9.23396e-16 1 0
3.12888e-15 1.00247 0
4.845e-15 1.00247 0
1.65268e-15 1.00247 0
8.75946e-15 1.00247 0
3.34955e-15 1.00374 0
-1.40729e-15 1.00374 0
8.75946e-15 1.00247 0
-2.28831e-15 1.00247 0
-1.40729e-15 1.00374 0
9.03624e-16 1.00374 0
9.23396e-16 1 0
5.83793e-15 1 0
4.845e-15 1.00247 0
1.85177e-15 1.00247 0
5.83793e-15 1 0
1.7208e-15 1 0
1.85177e-15 1.00247 0
6.08738e-15 1.00247 0
-2.28831e-15 1.00247 0
-8.46246e-15 1.00247 0
9.03624e-16 1.00374 0
3.13736e-15 1.00374 0
-8.46246e-15 1.00247 0
-8.59309e-16 1.00247 0
3.13736e-15 1.00374 0
2.22492e-15 1.00374 0
1.43972e-15 1.00374 0
-2.26762e-15 1.00374 0
6.07168e-15 1.00528 0
2.46197e-15 1.00528 0
-2.26762e-15 1.00374 0
1.06275e-15 1.00374 0
2.46197e-15 1.00528 0
7.86515e-15 1.00528 0
-4.84158e-15 1.00528 0
1.06314e-14 1.00528 0
4.51404e-15 1.00671 0
9.47959e-16 1.00671 0
1.06314e-14 1.00528 0
2.07614e-15 1.00528 0
9.47959e-16 1.00671 0
4.04966e-17 1.00671 0
1.06275e-15 1.00374 0
1.82615e-14 1.00374 0
7.86515e-15 1.00528 0
-8.17559e-16 1.00528 0
1.82615e-14 1.00374 0
5.61275e-15 1.00374 0
-8.17559e-16 1.00528 0
4.47017e-15 1.00528 0
2.07614e-15 1.00528 0
-3.94629e-15 1.00528 0
4.04966e-17 1.00671 0
8.8042e-16 1.00671 0
-3.94629e-15 1.00528 0
4.3245e-15 1.00528 0
8.8042e-16 1.00671 0
8.28594e-15 1.00671 0
1.7208e-15 1 0
-5.73057e-16 1 0
6.08738e-15 1.00247 0
1.10701e-14 1.00247 0
-5.73057e-16 1 0
1.92823e-15 1 0
1.10701e-14 1.00247 0
8.21499e-15 1.00247 0
-8.59309e-16 1.00247 0
7.76468e-15 1.00247 0
2.22492e-15 1.00374 0
-5.59254e-15 1.00374 0
7.76468e-15 1.00247 0
-3.33952e-15 1.00247 0
-5.59254e-15 1.00374 0
1.01985e-14 1.00374 0
1.92823e-15 1 0
7.49048e-16 1 0
8.21499e-15 1.00247 0
9.14413e-15 1.00247 0
7.49048e-16 1 0
4.17255e-15 1 0
9.14413e-15 1.00247 0
2.86183e-15 1.00247 0
-3.33952e-15 1.00247 0
4.92569e-15 1.00247 0
1.01985e-14 1.00374 0
5.06848e-15 1.00374 0
4.92569e-15 1.00247 0
6.33627e-15 1.00247 0
5.06848e-15 1.00374 0
-1.32367e-16 1.00374 0
5.61275e-15 1.00374 0
-4.1442e-15 1.00374 0
4.47017e-15 1.00528 0
8.74732e-15 1.00528 0
-4.1442e-15 1.00374 0
8.20147e-15 1.00374 0
8.74732e-15 1.00528 0
-2.35619e-15 1.00528 0
4.3245e-15 1.00528 0
2.77355e-15 1.00528 0
8.28594e-15 1.00671 0
5.65348e-15 1.00671 0
2.77355e-15 1.00528 0
2.33028e-15 1.00528 0
5.65348e-15 1.00671 0
-4.37792e-15 1.00671 0
8.20147e-15 1.00374 0
-5.55245e-15 1.00374 0
-2.35619e-15 1.00528 0
1.14398e-14 1.00528 0
-5.55245e-15 1.00374 0
-1.16446e-15 1.00374 0
1.14398e-14 1.00528 0
8.70083e-15 1.00528 0
2.33028e-15 1.00528 0
-1.3579e-15 1.00528 0
-4.37792e-15 1.00671 0
7.54109e-15 1.00671 0
-1.3579e-15 1.00528 0
-1.76395e-15 1.00528 0
7.54109e-15 1.00671 0
4.72522e-16 1.00671 0
-1.11697e-14 1.00671 0
-3.52709e-15 1.00671 0
1.38348e-14 1.00813 0
5.14589e-15 1.00813 0
-3.52709e-15 1.00671 0
-3.41333e-15 1.00671 0
5.14589e-15 1.00813 0
5.87603e-15 1.00813 0
1.35159e-14 1.00813 0
-7.03614e-15 1.00813 0
6.98566e-15 1.00952 0
2.62118e-15 1.00952 0
-7.03614e-15 1.00813 0
1.14955e-15 1.00813 0
2.62118e-15 1.00952 0
2.89069e-15 1.00952 0
-3.41333e-15 1.00671 0
2.12446e-15 1.00671 0
5.87603e-15 1.00813 0
5.9737e-15 1.00813 0
2.12446e-15 1.00671 0
-6.22721e-15 1.00671 0
5.9737e-15 1.00813 0
6.25622e-15 1.00813 0
1.14955e-15 1.00813 0
6.87466e-16 1.00813 0
2.89069e-15 1.00952 0
3.79949e-15 1.00952 0
6.87466e-16 1.00813 0
-5.7618e-15 1.00813 0
3.79949e-15 1.00952 0
6.11938e-15 1.00952 0
-4.33235e-15 1.00952 0
3.56985e-15 1.00952 0
-3.17474e-15 1.0109 0
1.30478e-14 1.0109 0
3.56985e-15 1.00952 0
-2.84389e-15 1.00952 0
1.30478e-14 1.0109 0
4.46976e-15 1.0109 0
-9.73286e-15 1.0109 0
-7.70822e-15 1.0109 0
4.21689e-16 1.01225 0
3.26144e-15 1.01225 0
-7.70822e-15 1.0109 0
7.35507e-15 1.0109 0
3.26144e-15 1.01225 0
1.71783e-14 1.01225 0
-2.84389e-15 1.00952 0
-4.12563e-15 1.00952 0
4.46976e-15 1.0109 0
2.12367e-15 1.0109 0
-4.12563e-15 1.00952 0
-3.52872e-15 1.00952 0
2.12367e-15 1.0109 0
6.22107e-15 1.0109 0
7.35507e-15 1.0109 0
6.69855e-15 1.0109 0
1.71783e-14 1.01225 0
-6.88967e-16 1.01225 0
6.69855e-15 1.0109 0
-5.85322e-15 1.0109 0
-6.88967e-16 1.01225 0
1.03399e-14 1.01225 0
-6.22721e-15 1.00671 0
-3.05674e-16 1.00671 0
6.25622e-15 1.00813 0
-1.52816e-15 1.00813 0
-3.05674e-16 1.00671 0
5.07382e-15 1.00671 0
-1.52816e-15 1.00813 0
6.7342e-15 1.00813 0
-5.7618e-15 1.00813 0
-4.36763e-16 1.00813 0
6.11938e-15 1.00952 0
3.73064e-15 1.00952 0
-4.36763e-16 1.00813 0
1.20972e-15 1.00813 0
3.73064e-15 1.00952 0
-1.7332e-15 1.00952 0
5.07382e-15 1.00671 0
5.21601e-15 1.00671 0
6.7342e-15 1.00813 0
3.44967e-15 1.00813 0
5.21601e-15 1.00671 0
5.8254e-15 1.00671 0
3.44967e-15 1.00813 0
6.1889e-15 1.00813 0
1.20972e-15 1.00813 0
-7.46905e-15 1.00813 0
-1.7332e-15 1.00952 0
1.26407e-14 1.00952 0
-7.46905e-15 1.00813 0
-1.99186e-15 1.00813 0
1.26407e-14 1.00952 0
3.29969e-15 1.00952 0
-3.52872e-15 1.00952 0
2.17789e-15 1.00952 0
6.22107e-15 1.0109 0
-1.69483e-15 1.0109 0
2.17789e-15 1.00952 0
-5.96959e-15 1.00952 0
-1.69483e-15 1.0109 0
9.11445e-15 1.0109 0
-5.85322e-15 1.0109 0
1.8928e-15 1.0109 0
1.03399e-14 1.01225 0
2.31006e-15 1.01225 0
1.8928e-15 1.0109 0
-5.21559e-15 1.0109 0
2.31006e-15 1.01225 0
8.79453e-15 1.01225 0
-5.96959e-15 1.00952 0
-5.30963e-15 1.00952 0
9.11445e-15 1.0109 0
4.57217e-15 1.0109 0
-5.30963e-15 1.00952 0
5.73317e-16 1.00952 0
4.57217e-15 1.0109 0
-4.69732e-16 1.0109 0
-5.21559e-15 1.0109 0
-8.73098e-16 1.0109 0
8.79453e-15 1.01225 0
-3.76718e-15 1.01225 0
-8.73098e-16 1.0109 0
6.84658e-15 1.0109 0
-3.76718e-15 1.01225 0
1.09049e-16 1.01225 0
0 1.01225 0
-2.46934e-14 1.01225 0
0 1.01358 0
-1.5485e-14 1.01358 0
-2.46934e-14 1.01225 0
-1.16658e-13 1.01225 0
-1.5485e-14 1.01358 0
-1.10849e-13 1.01358 0
0 1.01358 0
1.81705e-14 1.01358 0
0 1.01492 0
1.1774e-14 1.01492 0
1.81705e-14 1.01358 0
1.06791e-13 1.01358 0
1.1774e-14 1.01492 0
1.04129e-13 1.01492 0
-1.16658e-13 1.01225 0
2.91111e-14 1.01225 0
-1.10849e-13 1.01358 0
3.38639e-14 1.01358 0
2.91111e-14 1.01225 0
1.11684e-13 1.01225 0
3.38639e-14 1.01358 0
1.14216e-13 1.01358 0
1.06791e-13 1.01358 0
-6.58365e-14 1.01358 0
1.04129e-13 1.01492 0
-6.00215e-14 1.01492 0
-6.58365e-14 1.01358 0
-4.68862e-14 1.01358 0
-6.00215e-14 1.01492 0
-5.01524e-14 1.01492 0
0 1.01492 0
-2.8382e-14 1.01492 0
0 1.01626 0
-2.74768e-14 1.01626 0
-2.8382e-14 1.01492 0
-8.45536e-14 1.01492 0
-2.74768e-14 1.01626 0
-8.55623e-14 1.01626 0
0 1.01626 0
7.3475e-15 1.01626 0
0 1.01761 0
7.07664e-15 1.01761 0
7.3475e-15 1.01626 0
3.12072e-14 1.01626 0
7.07664e-15 1.01761 0
3.62406e-14 1.01761 0
-8.45536e-14 1.01492 0
1.51795e-14 1.01492 0
-8.55623e-14 1.01626 0
1.2758e-14 1.01626 0
1.51795e-14 1.01492 0
1.34857e-14 1.01492 0
1.2758e-14 1.01626 0
8.94043e-15 1.01626 0
3.12072e-14 1.01626 0
-1.35107e-14 1.01626 0
3.62406e-14 1.01761 0
-6.52161e-15 1.01761 0
-1.35107e-14 1.01626 0
-2.97616e-15 1.01626 0
-6.52161e-15 1.01761 0
-4.19239e-15 1.01761 0
1.11684e-13 1.01225 0
2.24976e-14 1.01225 0
1.14216e-13 1.01358 0
3.48615e-14 1.01358 0
2.24976e-14 1.01225 0
-3.68215e-15 1.01225 0
3.48615e-14 1.01358 0
5.48382e-15 1.01358 0
-4.68862e-14 1.01358 0
1.55155e-14 1.01358 0
-5.01524e-14 1.01492 0
2.16485e-14 1.01492 0
1.55155e-14 1.01358 0
-4.72864e-15 1.01358 0
2.16485e-14 1.01492 0
2.23454e-15 1.01492 0
-3.68215e-15 1.01225 0
-7.96417e-15 1.01225 0
5.48382e-15 1.01358 0
7.38544e-16 1.01358 0
-7.96417e-15 1.01225 0
1.04762e-14 1.01225 0
7.38544e-16 1.01358 0
8.13074e-15 1.01358 0
-4.72864e-15 1.01358 0
-3.2264e-15 1.01358 0
2.23454e-15 1.01492 0
5.28337e-15 1.01492 0
-3.2264e-15 1.01358 0
-3.14866e-15 1.01358 0
5.28337e-15 1.01492 0
-1.49772e-15 1.01492 0
1.34857e-14 1.01492 0
-1.59179e-14 1.01492 0
8.94043e-15 1.01626 0
-1.37502e-14 1.01626 0
-1.59179e-14 1.01492 0
-7.68439e-17 1.01492 0
-1.37502e-14 1.01626 0
2.06302e-15 1.01626 0
-2.97616e-15 1.01626 0
1.36765e-15 1.01626 0
-4.19239e-15 1.01761 0
1.54327e-15 1.01761 0
1.36765e-15 1.01626 0
7.8885e-16 1.01626 0
1.54327e-15 1.01761 0
-1.08619e-15 1.01761 0
-7.68439e-17 1.01492 0
-3.04989e-15 1.01492 0
2.06302e-15 1.01626 0
5.92072e-15 1.01626 0
-3.04989e-15 1.01492 0
-3.66208e-15 1.01492 0
5.92072e-15 1.01626 0
2.42457e-15 1.01626 0
7.8885e-16 1.01626 0
-4.85536e-15 1.01626 0
-1.08619e-15 1.01761 0
1.66542e-15 1.01761 0
-4.85536e-15 1.01626 0
-3.59544e-15 1.01626 0
1.66542e-15 1.01761 0
3.40706e-15 1.01761 0
0 1.01761 0
3.58954e-14 1.01761 0
0 1.01897 0
3.35681e-14 1.01897 0
3.58954e-14 1.01761 0
-2.21378e-14 1.01761 0
3.35681e-14 1.01897 0
-2.06172e-14 1.01897 0
0 1.01897 0
-3.19102e-14 1.01897 0
0 1.0203 0
-2.69057e-14 1.0203 0
-3.19102e-14 1.01897 0
4.09938e-14 1.01897 0
-2.69057e-14 1.0203 0
3.56428e-14 1.0203 0
-2.21378e-14 1.01761 0
1.85864e-15 1.01761 0
-2.06172e-14 1.01897 0
5.25735e-15 1.01897 0
1.85864e-15 1.01761 0
-1.39214e-14 1.01761 0
5.25735e-15 1.01897 0
-6.16279e-15 1.01897 0
4.09938e-14 1.01897 0
-2.75684e-15 1.01897 0
3.56428e-14 1.0203 0
3.86424e-15 1.0203 0
-2.75684e-15 1.01897 0
-2.56159e-15 1.01897 0
3.86424e-15 1.0203 0
2.12524e-15 1.0203 0
0 1.0203 0
1.42938e-14 1.0203 0
0 1.02146 0
1.29517e-14 1.02146 0
1.42938e-14 1.0203 0
-2.32713e-14 1.0203 0
1.29517e-14 1.02146 0
-2.34063e-14 1.02146 0
0 1.02146 0
-2.62081e-15 1.02146 0
0 1.02197 0
-1.19687e-14 1.02197 0
-2.62081e-15 1.02146 0
-1.96849e-15 1.02146 0
-1.19687e-14 1.02197 0
1.30036e-14 1.02197 0
-2.32713e-14 1.0203 0
3.61412e-16 1.0203 0
-2.34063e-14 1.02146 0
4.37602e-16 1.02146 0
3.61412e-16 1.0203 0
1.99198e-15 1.0203 0
4.37602e-16 1.02146 0
5.01396e-15 1.02146 0
-1.96849e-15 1.02146 0
-3.49541e-15 1.02146 0
1.30036e-14 1.02197 0
-1.89123e-14 1.02197 0
-3.49541e-15 1.02146 0
-1.41004e-15 1.02146 0
-1.89123e-14 1.02197 0
1.97268e-14 1.02197 0
-1.39214e-14 1.01761 0
-7.81216e-15 1.01761 0
-6.16279e-15 1.01897 0
1.15943e-15 1.01897 0
-7.81216e-15 1.01761 0
2.35003e-15 1.01761 0
1.15943e-15 1.01897 0
3.58633e-15 1.01897 0
-2.56159e-15 1.01897 0
-2.09271e-15 1.01897 0
2.12524e-15 1.0203 0
2.16325e-15 1.0203 0
-2.09271e-15 1.01897 0
-3.73674e-15 1.01897 0
2.16325e-15 1.0203 0
3.11221e-15 1.0203 0
2.35003e-15 1.01761 0
1.30648e-15 1.01761 0
3.58633e-15 1.01897 0
4.54104e-15 1.01897 0
1.30648e-15 1.01761 0
-9.57376e-17 1.01761 0
4.54104e-15 1.01897 0
2.90584e-15 1.01897 0
-3.73674e-15 1.01897 0
-4.62146e-15 1.01897 0
3.11221e-15 1.0203 0
1.67409e-15 1.0203 0
-4.62146e-15 1.01897 0
-1.77791e-15 1.01897 0
1.67409e-15 1.0203 0
1.65329e-15 1.0203 0
1.99198e-15 1.0203 0
-2.45735e-15 1.0203 0
5.01396e-15 1.02146 0
3.27676e-15 1.02146 0
-2.45735e-15 1.0203 0
-1.3855e-15 1.0203 0
3.27676e-15 1.02146 0
2.10213e-15 1.02146 0
-1.41004e-15 1.02146 0
-4.11547e-15 1.02146 0
1.97268e-14 1.02197 0
2.52929e-15 1.02197 0
-4.11547e-15 1.02146 0
-7.39192e-16 1.02146 0
2.52929e-15 1.02197 0
-1.13228e-15 1.02197 0
-1.3855e-15 1.0203 0
-2.80102e-15 1.0203 0
2.10213e-15 1.02146 0
2.69433e-15 1.02146 0
-2.80102e-15 1.0203 0
-1.67828e-15 1.0203 0
2.69433e-15 1.02146 0
3.04083e-15 1.02146 0
-7.39192e-16 1.02146 0
-1.20538e-15 1.02146 0
-1.13228e-15 1.02197 0
7.7765e-15 1.02197 0
-1.20538e-15 1.02146 0
1.9188e-15 1.02146 0
7.7765e-15 1.02197 0
-1.96934e-14 1.02197 0
1.04762e-14 1.01225 0
3.03771e-15 1.01225 0
8.13074e-15 1.01358 0
1.34254e-14 1.01358 0
3.03771e-15 1.01225 0
-1.04101e-14 1.01225 0
1.34254e-14 1.01358 0
-9.16188e-15 1.01358 0
-3.14866e-15 1.01358 0
-6.56976e-15 1.01358 0
-1.49772e-15 1.01492 0
6.47153e-15 1.01492 0
-6.56976e-15 1.01358 0
1.98914e-15 1.01358 0
6.47153e-15 1.01492 0
2.20107e-15 1.01492 0
-1.04101e-14 1.01225 0
-2.68758e-15 1.01225 0
-9.16188e-15 1.01358 0
5.07444e-16 1.01358 0
-2.68758e-15 1.01225 0
-9.70191e-15 1.01225 0
5.07444e-16 1.01358 0
7.27302e-15 1.01358 0
1.98914e-15 1.01358 0
8.69057e-16 1.01358 0
2.20107e-15 1.01492 0
-1.44115e-15 1.01492 0
8.69057e-16 1.01358 0
-2.38134e-15 1.01358 0
-1.44115e-15 1.01492 0
2.04588e-15 1.01492 0
-3.66208e-15 1.01492 0
-3.8361e-15 1.01492 0
2.42457e-15 1.01626 0
3.24782e-15 1.01626 0
-3.8361e-15 1.01492 0
-6.01328e-15 1.01492 0
3.24782e-15 1.01626 0
2.28297e-15 1.01626 0
-3.59544e-15 1.01626 0
-3.11128e-15 1.01626 0
3.40706e-15 1.01761 0
9.10536e-16 1.01761 0
-3.11128e-15 1.01626 0
-6.19776e-16 1.01626 0
9.10536e-16 1.01761 0
-8.08695e-16 1.01761 0
-6.01328e-15 1.01492 0
-3.34813e-16 1.01492 0
2.28297e-15 1.01626 0
4.97642e-15 1.01626 0
-3.34813e-16 1.01492 0
-8.57453e-16 1.01492 0
4.97642e-15 1.01626 0
1.83754e-15 1.01626 0
-6.19776e-16 1.01626 0
-5.33905e-15 1.01626 0
-8.08695e-16 1.01761 0
2.83736e-15 1.01761 0
-5.33905e-15 1.01626 0
9.61802e-16 1.01626 0
2.83736e-15 1.01761 0
-6.62815e-16 1.01761 0
-9.70191e-15 1.01225 0
-2.05492e-15 1.01225 0
7.27302e-15 1.01358 0
2.20416e-15 1.01358 0
-2.05492e-15 1.01225 0
-3.94453e-15 1.01225 0
2.20416e-15 1.01358 0
1.11176e-14 1.01358 0
-2.38134e-15 1.01358 0
-2.46934e-15 1.01358 0
2.04588e-15 1.01492 0
5.06206e-15 1.01492 0
-2.46934e-15 1.01358 0
-1.45957e-15 1.01358 0
5.06206e-15 1.01492 0
-3.17259e-16 1.01492 0
-3.94453e-15 1.01225 0
1.07264e-15 1.01225 0
1.11176e-14 1.01358 0
2.48252e-15 1.01358 0
1.07264e-15 1.01225 0
-3.16557e-15 1.01225 0
2.48252e-15 1.01358 0
6.1476e-15 1.01358 0
-1.45957e-15 1.01358 0
2.63321e-15 1.01358 0
-3.17259e-16 1.01492 0
2.04772e-15 1.01492 0
2.63321e-15 1.01358 0
-4.03636e-15 1.01358 0
2.04772e-15 1.01492 0
6.97889e-15 1.01492 0
-8.57453e-16 1.01492 0
-1.44328e-15 1.01492 0
1.83754e-15 1.01626 0
-2.4561e-15 1.01626 0
-1.44328e-15 1.01492 0
1.6304e-15 1.01492 0
-2.4561e-15 1.01626 0
1.42207e-15 1.01626 0
9.61802e-16 1.01626 0
2.19604e-15 1.01626 0
-6.62815e-16 1.01761 0
3.94307e-15 1.01761 0
2.19604e-15 1.01626 0
-2.99324e-15 1.01626 0
3.94307e-15 1.01761 0
4.28874e-15 1.01761 0
1.6304e-15 1.01492 0
1.0772e-15 1.01492 0
1.42207e-15 1.01626 0
2.29058e-15 1.01626 0
1.0772e-15 1.01492 0
-3.49574e-15 1.01492 0
2.29058e-15 1.01626 0
6.27052e-15 1.01626 0
-2.99324e-15 1.01626 0
-9.47707e-16 1.01626 0
4.28874e-15 1.01761 0
-1.43347e-15 1.01761 0
-9.47707e-16 1.01626 0
5.68111e-15 1.01626 0
-1.43347e-15 1.01761 0
-1.3175e-15 1.01761 0
-9.57376e-17 1.01761 0
-5.28505e-15 1.01761 0
2.90584e-15 1.01897 0
2.34714e-15 1.01897 0
-5.28505e-15 1.01761 0
-4.00066e-15 1.01761 0
2.34714e-15 1.01897 0
1.9637e-15 1.01897 0
-1.77791e-15 1.01897 0
-6.12277e-16 1.01897 0
1.65329e-15 1.0203 0
1.23686e-15 1.0203 0
-6.12277e-16 1.01897 0
-6.06757e-16 1.01897 0
1.23686e-15 1.0203 0
1.07409e-15 1.0203 0
-4.00066e-15 1.01761 0
9.9032e-16 1.01761 0
1.9637e-15 1.01897 0
1.84386e-15 1.01897 0
9.9032e-16 1.01761 0
-1.0138e-15 1.01761 0
1.84386e-15 1.01897 0
1.40119e-15 1.01897 0
-6.06757e-16 1.01897 0
-2.45231e-15 1.01897 0