# vtk DataFile Version 3.0
#This file was generated by the deal.II library on 2018/10/12 at 0:29:58
ASCII
DATASET UNSTRUCTURED_GRID

POINTS 5120 double
0 0 0
0.392699 0 0
0 0.609814 0
0.392699 0.609814 0
0.392699 0 0
0.785398 0 0
0.392699 0.609814 0
0.785398 0.609814 0
0 0.609814 0
0.392699 0.609814 0
0 1.23596 0
0.392699 1.23596 0
0.392699 0.609814 0
0.785398 0.609814 0
0.392699 1.23596 0
0.785398 1.23596 0
0.785398 0 0
1.1781 0 0
0.785398 0.609814 0
1.1781 0.609814 0
1.1781 0 0
1.5708 0 0
1.1781 0.609814 0
1.5708 0.609814 0
0.785398 0.609814 0
1.1781 0.609814 0
0.785398 1.23596 0
1.1781 1.23596 0
1.1781 0.609814 0
1.5708 0.609814 0
1.1781 1.23596 0
1.5708 1.23596 0
0 1.23596 0
0.392699 1.23596 0
0 1.86147 0
0.392699 1.86147 0
0.392699 1.23596 0
0.785398 1.23596 0
0.392699 1.86147 0
0.785398 1.86147 0
0 1.86147 0
0.392699 1.86147 0
0 2.48752 0
0.392699 2.48752 0
0.392699 1.86147 0
0.785398 1.86147 0
0.392699 2.48752 0
0.785398 2.48752 0
0.785398 1.23596 0
1.1781 1.23596 0
0.785398 1.86147 0
1.1781 1.86147 0
1.1781 1.23596 0
1.5708 1.23596 0
1.1781 1.86147 0
1.5708 1.86147 0
0.785398 1.86147 0
1.1781 1.86147 0
0.785398 2.48752 0
1.1781 2.48752 0
1.1781 1.86147 0
1.5708 1.86147 0
1.1781 2.48752 0
1.5708 2.48752 0
1.5708 0 0
1.9635 0 0
1.5708 0.609814 0
1.9635 0.609814 0
1.9635 0 0
2.35619 0 0
1.9635 0.609814 0
2.35619 0.609814 0
1.5708 0.609814 0
1.9635 0.609814 0
1.5708 1.23596 0
1.9635 1.23596 0
1.9635 0.609814 0
2.35619 0.609814 0
1.9635 1.23596 0
2.35619 1.23596 0
2.35619 0 0
2.74889 0 0
2.35619 0.609814 0
2.74889 0.609814 0
2.74889 0 0
3.14159 0 0
2.74889 0.609814 0
3.14159 0.609814 0
2.35619 0.609814 0
2.74889 0.609814 0
2.35619 1.23596 0
2.74889 1.23596 0
2.74889 0.609814 0
3.14159 0.609814 0
2.74889 1.23596 0
3.14159 1.23596 0
1.5708 1.23596 0
1.9635 1.23596 0
1.5708 1.86147 0
1.9635 1.86147 0
1.9635 1.23596 0
2.35619 1.23596 0
1.9635 1.86147 0
2.35619 1.86147 0
1.5708 1.86147 0
1.9635 1.86147 0
1.5708 2.48752 0
1.9635 2.48752 0
1.9635 1.86147 0
2.35619 1.86147 0
1.9635 2.48752 0
2.35619 2.48752 0
2.35619 1.23596 0
2.74889 1.23596 0
2.35619 1.86147 0
2.74889 1.86147 0
2.74889 1.23596 0
3.14159 1.23596 0
2.74889 1.86147 0
3.14159 1.86147 0
2.35619 1.86147 0
2.74889 1.86147 0
2.35619 2.48752 0
2.74889 2.48752 0
2.74889 1.86147 0
3.14159 1.86147 0
2.74889 2.48752 0
3.14159 2.48752 0
0 2.48752 0
0.392699 2.48752 0
0 3.11343 0
0.392699 3.11343 0
0.392699 2.48752 0
0.785398 2.48752 0
0.392699 3.11343 0
0.785398 3.11343 0
0 3.11343 0
0.392699 3.11343 0
0 3.73934 0
0.392699 3.73934 0
0.392699 3.11343 0
0.785398 3.11343 0
0.392699 3.73934 0
0.785398 3.73934 0
0.785398 2.48752 0
1.1781 2.48752 0
0.785398 3.11343 0
1.1781 3.11343 0
1.1781 2.48752 0
1.5708 2.48752 0
1.1781 3.11343 0
1.5708 3.11343 0
0.785398 3.11343 0
1.1781 3.11343 0
0.785398 3.73934 0
1.1781 3.73934 0
1.1781 3.11343 0
1.5708 3.11343 0
1.1781 3.73934 0
1.5708 3.73934 0
0 3.73934 0
0.392699 3.73934 0
0 4.36521 0
0.392699 4.36521 0
0.392699 3.73934 0
0.785398 3.73934 0
0.392699 4.36521 0
0.785398 4.36521 0
0 4.36521 0
0.392699 4.36521 0
0 4.99103 0
0.392699 4.99103 0
0.392699 4.36521 0
0.785398 4.36521 0
0.392699 4.99103 0
0.785398 4.99103 0
0.785398 3.73934 0
1.1781 3.73934 0
0.785398 4.36521 0
1.1781 4.36521 0
1.1781 3.73934 0
1.5708 3.73934 0
1.1781 4.36521 0
1.5708 4.36521 0
0.785398 4.36521 0
1.1781 4.36521 0
0.785398 4.99103 0
1.1781 4.99103 0
1.1781 4.36521 0
1.5708 4.36521 0
1.1781 4.99103 0
1.5708 4.99103 0
1.5708 2.48752 0
1.9635 2.48752 0
1.5708 3.11343 0
1.9635 3.11343 0
1.9635 2.48752 0
2.35619 2.48752 0
1.9635 3.11343 0
2.35619 3.11343 0
1.5708 3.11343 0
1.9635 3.11343 0
1.5708 3.73934 0
1.9635 3.73934 0
1.9635 3.11343 0
2.35619 3.11343 0
1.9635 3.73934 0
2.35619 3.73934 0
2.35619 2.48752 0
2.74889 2.48752 0
2.35619 3.11343 0
2.74889 3.11343 0
2.74889 2.48752 0
3.14159 2.48752 0
2.74889 3.11343 0
3.14159 3.11343 0
2.35619 3.11343 0
2.74889 3.11343 0
2.35619 3.73934 0
2.74889 3.73934 0
2.74889 3.11343 0
3.14159 3.11343 0
2.74889 3.73934 0
3.14159 3.73934 0
1.5708 3.73934 0
1.9635 3.73934 0
1.5708 4.36521 0
1.9635 4.36521 0
1.9635 3.73934 0
2.35619 3.73934 0
1.9635 4.36521 0
2.35619 4.36521 0
1.5708 4.36521 0
1.9635 4.36521 0
1.5708 4.99103 0
1.9635 4.99103 0
1.9635 4.36521 0
2.35619 4.36521 0
1.9635 4.99103 0
2.35619 4.99103 0
2.35619 3.73934 0
2.74889 3.73934 0
2.35619 4.36521 0
2.74889 4.36521 0
2.74889 3.73934 0
3.14159 3.73934 0
2.74889 4.36521 0
3.14159 4.36521 0
2.35619 4.36521 0
2.74889 4.36521 0
2.35619 4.99103 0
2.74889 4.99103 0
2.74889 4.36521 0
3.14159 4.36521 0
2.74889 4.99103 0
3.14159 4.99103 0
3.14159 0 0
3.53429 0 0
3.14159 0.609814 0
3.53429 0.609814 0
3.53429 0 0
3.92699 0 0
3.53429 0.609814 0
3.92699 0.609814 0
3.14159 0.609814 0
3.53429 0.609814 0
3.14159 1.23596 0
3.53429 1.23596 0
3.53429 0.609814 0
3.92699 0.609814 0
3.53429 1.23596 0
3.92699 1.23596 0
3.92699 0 0
4.31969 0 0
3.92699 0.609814 0
4.31969 0.609814 0
4.31969 0 0
4.71239 0 0
4.31969 0.609814 0
4.71239 0.609814 0
3.92699 0.609814 0
4.31969 0.609814 0
3.92699 1.23596 0
4.31969 1.23596 0
4.31969 0.609814 0
4.71239 0.609814 0
4.31969 1.23596 0
4.71239 1.23596 0
3.14159 1.23596 0
3.53429 1.23596 0
3.14159 1.86147 0
3.53429 1.86147 0
3.53429 1.23596 0
3.92699 1.23596 0
3.53429 1.86147 0
3.92699 1.86147 0
3.14159 1.86147 0
3.53429 1.86147 0
3.14159 2.48752 0
3.53429 2.48752 0
3.53429 1.86147 0
3.92699 1.86147 0
3.53429 2.48752 0
3.92699 2.48752 0
3.92699 1.23596 0
4.31969 1.23596 0
3.92699 1.86147 0
4.31969 1.86147 0
4.31969 1.23596 0
4.71239 1.23596 0
4.31969 1.86147 0
4.71239 1.86147 0
3.92699 1.86147 0
4.31969 1.86147 0
3.92699 2.48752 0
4.31969 2.48752 0
4.31969 1.86147 0
4.71239 1.86147 0
4.31969 2.48752 0
4.71239 2.48752 0
4.71239 0 0
5.10509 0 0
4.71239 0.609814 0
5.10509 0.609814 0
5.10509 0 0
5.49779 0 0
5.10509 0.609814 0
5.49779 0.609814 0
4.71239 0.609814 0
5.10509 0.609814 0
4.71239 1.23596 0
5.10509 1.23596 0
5.10509 0.609814 0
5.49779 0.609814 0
5.10509 1.23596 0
5.49779 1.23596 0
5.49779 0 0
5.89049 0 0
5.49779 0.609814 0
5.89049 0.609814 0
5.89049 0 0
6.28319 0 0
5.89049 0.609814 0
6.28319 0.609814 0
5.49779 0.609814 0
5.89049 0.609814 0
5.49779 1.23596 0
5.89049 1.23596 0
5.89049 0.609814 0
6.28319 0.609814 0
5.89049 1.23596 0
6.28319 1.23596 0
4.71239 1.23596 0
5.10509 1.23596 0
4.71239 1.86147 0
5.10509 1.86147 0
5.10509 1.23596 0
5.49779 1.23596 0
5.10509 1.86147 0
5.49779 1.86147 0
4.71239 1.86147 0
5.10509 1.86147 0
4.71239 2.48752 0
5.10509 2.48752 0
5.10509 1.86147 0
5.49779 1.86147 0
5.10509 2.48752 0
5.49779 2.48752 0
5.49779 1.23596 0
5.89049 1.23596 0
5.49779 1.86147 0
5.89049 1.86147 0
5.89049 1.23596 0
6.28319 1.23596 0
5.89049 1.86147 0
6.28319 1.86147 0
5.49779 1.86147 0
5.89049 1.86147 0
5.49779 2.48752 0
5.89049 2.48752 0
5.89049 1.86147 0
6.28319 1.86147 0
5.89049 2.48752 0
6.28319 2.48752 0
3.14159 2.48752 0
3.53429 2.48752 0
3.14159 3.11343 0
3.53429 3.11343 0
3.53429 2.48752 0
3.92699 2.48752 0
3.53429 3.11343 0
3.92699 3.11343 0
3.14159 3.11343 0
3.53429 3.11343 0
3.14159 3.73934 0
3.53429 3.73934 0
3.53429 3.11343 0
3.92699 3.11343 0
3.53429 3.73934 0
3.92699 3.73934 0
3.92699 2.48752 0
4.31969 2.48752 0
3.92699 3.11343 0
4.31969 3.11343 0
4.31969 2.48752 0
4.71239 2.48752 0
4.31969 3.11343 0
4.71239 3.11343 0
3.92699 3.11343 0
4.31969 3.11343 0
3.92699 3.73934 0
4.31969 3.73934 0
4.31969 3.11343 0
4.71239 3.11343 0
4.31969 3.73934 0
4.71239 3.73934 0
3.14159 3.73934 0
3.53429 3.73934 0
3.14159 4.36521 0
3.53429 4.36521 0
3.53429 3.73934 0
3.92699 3.73934 0
3.53429 4.36521 0
3.92699 4.36521 0
3.14159 4.36521 0
3.53429 4.36521 0
3.14159 4.99103 0
3.53429 4.99103 0
3.53429 4.36521 0
3.92699 4.36521 0
3.53429 4.99103 0
3.92699 4.99103 0
3.92699 3.73934 0
4.31969 3.73934 0
3.92699 4.36521 0
4.31969 4.36521 0
4.31969 3.73934 0
4.71239 3.73934 0
4.31969 4.36521 0
4.71239 4.36521 0
3.92699 4.36521 0
4.31969 4.36521 0
3.92699 4.99103 0
4.31969 4.99103 0
4.31969 4.36521 0
4.71239 4.36521 0
4.31969 4.99103 0
4.71239 4.99103 0
4.71239 2.48752 0
5.10509 2.48752 0
4.71239 3.11343 0
5.10509 3.11343 0
5.10509 2.48752 0
5.49779 2.48752 0
5.10509 3.11343 0
5.49779 3.11343 0
4.71239 3.11343 0
5.10509 3.11343 0
4.71239 3.73934 0
5.10509 3.73934 0
5.10509 3.11343 0
5.49779 3.11343 0
5.10509 3.73934 0
5.49779 3.73934 0
5.49779 2.48752 0
5.89049 2.48752 0
5.49779 3.11343 0
5.89049 3.11343 0
5.89049 2.48752 0
6.28319 2.48752 0
5.89049 3.11343 0
6.28319 3.11343 0
5.49779 3.11343 0
5.89049 3.11343 0
5.49779 3.73934 0
5.89049 3.73934 0
5.89049 3.11343 0
6.28319 3.11343 0
5.89049 3.73934 0
6.28319 3.73934 0
4.71239 3.73934 0
5.10509 3.73934 0
4.71239 4.36521 0
5.10509 4.36521 0
5.10509 3.73934 0
5.49779 3.73934 0
5.10509 4.36521 0
5.49779 4.36521 0
4.71239 4.36521 0
5.10509 4.36521 0
4.71239 4.99103 0
5.10509 4.99103 0
5.10509 4.36521 0
5.49779 4.36521 0
5.10509 4.99103 0
5.49779 4.99103 0
5.49779 3.73934 0
5.89049 3.73934 0
5.49779 4.36521 0
5.89049 4.36521 0
5.89049 3.73934 0
6.28319 3.73934 0
5.89049 4.36521 0
6.28319 4.36521 0
5.49779 4.36521 0
5.89049 4.36521 0
5.49779 4.99103 0
5.89049 4.99103 0
5.89049 4.36521 0
6.28319 4.36521 0
5.89049 4.99103 0
6.28319 4.99103 0
0 4.99103 0
0.392699 4.99103 0
0 5.61681 0
0.392699 5.61681 0
0.392699 4.99103 0
0.785398 4.99103 0
0.392699 5.61681 0
0.785398 5.61681 0
0 5.61681 0
0.392699 5.61681 0
0 6.24253 0
0.392699 6.24253 0
0.392699 5.61681 0
0.785398 5.61681 0
0.392699 6.24253 0
0.785398 6.24253 0
0.785398 4.99103 0
1.1781 4.99103 0
0.785398 5.61681 0
1.1781 5.61681 0
1.1781 4.99103 0
1.5708 4.99103 0
1.1781 5.61681 0
1.5708 5.61681 0
0.785398 5.61681 0
1.1781 5.61681 0
0.785398 6.24253 0
1.1781 6.24253 0
1.1781 5.61681 0
1.5708 5.61681 0
1.1781 6.24253 0
1.5708 6.24253 0
0 6.24253 0
0.392699 6.24253 0
0 6.86823 0
0.392699 6.86823 0
0.392699 6.24253 0
0.785398 6.24253 0
0.392699 6.86823 0
0.785398 6.86823 0
0 6.86823 0
0.392699 6.86823 0
0 7.49392 0
0.392699 7.49392 0
0.392699 6.86823 0
0.785398 6.86823 0
0.392699 7.49392 0
0.785398 7.49392 0
0.785398 6.24253 0
1.1781 6.24253 0
0.785398 6.86823 0
[...]
POINT_DATA 5120
VECTORS uf double
0 1 0
-4.69019e-14 1 0
0 1.00229 0
-5.12004e-14 1.00229 0
-4.69019e-14 1 0
-1.018e-14 1 0
-5.12004e-14 1.00229 0
-6.44753e-15 1.00229 0
0 1.00229 0
1.25157e-14 1.00229 0
0 1.00346 0
1.03691e-14 1.00346 0
1.25157e-14 1.00229 0
1.68932e-14 1.00229 0
1.03691e-14 1.00346 0
2.08833e-14 1.00346 0
-1.018e-14 1 0
7.93394e-14 1 0
-6.44753e-15 1.00229 0
9.71915e-14 1.00229 0
7.93394e-14 1 0
8.23763e-15 1 0
9.71915e-14 1.00229 0
1.24346e-14 1.00229 0
1.68932e-14 1.00229 0
-1.03068e-13 1.00229 0
2.08833e-14 1.00346 0
-6.94844e-14 1.00346 0
-1.03068e-13 1.00229 0
-1.57538e-14 1.00229 0
-6.94844e-14 1.00346 0
-2.62094e-15 1.00346 0
0 1.00346 0
1.13793e-14 1.00346 0
0 1.00488 0
2.03729e-14 1.00488 0
1.13793e-14 1.00346 0
-2.49298e-14 1.00346 0
2.03729e-14 1.00488 0
-7.52862e-15 1.00488 0
0 1.00488 0
2.22432e-14 1.00488 0
0 1.00621 0
3.67232e-14 1.00621 0
2.22432e-14 1.00488 0
4.99201e-14 1.00488 0
3.67232e-14 1.00621 0
5.62769e-14 1.00621 0
-2.49298e-14 1.00346 0
-6.01981e-15 1.00346 0
-7.52862e-15 1.00488 0
6.31486e-15 1.00488 0
-6.01981e-15 1.00346 0
-3.27449e-15 1.00346 0
6.31486e-15 1.00488 0
5.29523e-15 1.00488 0
4.99201e-14 1.00488 0
7.82698e-16 1.00488 0
5.62769e-14 1.00621 0
5.79364e-15 1.00621 0
7.82698e-16 1.00488 0
-2.68646e-14 1.00488 0
5.79364e-15 1.00621 0
-1.0685e-14 1.00621 0
8.23763e-15 1 0
-2.52232e-14 1 0
1.24346e-14 1.00229 0
-8.07852e-15 1.00229 0
-2.52232e-14 1 0
-1.0689e-14 1 0
-8.07852e-15 1.00229 0
4.87319e-15 1.00229 0
-1.57538e-14 1.00229 0
2.01548e-14 1.00229 0
-2.62094e-15 1.00346 0
1.81403e-14 1.00346 0
2.01548e-14 1.00229 0
2.67211e-15 1.00229 0
1.81403e-14 1.00346 0
4.08762e-15 1.00346 0
-1.0689e-14 1 0
-1.87796e-15 1 0
4.87319e-15 1.00229 0
-3.02792e-15 1.00229 0
-1.87796e-15 1 0
-6.50388e-15 1 0
-3.02792e-15 1.00229 0
1.20908e-14 1.00229 0
2.67211e-15 1.00229 0
4.7244e-15 1.00229 0
4.08762e-15 1.00346 0
1.91444e-15 1.00346 0
4.7244e-15 1.00229 0
-5.37878e-15 1.00229 0
1.91444e-15 1.00346 0
1.36183e-14 1.00346 0
-3.27449e-15 1.00346 0
1.32043e-14 1.00346 0
5.29523e-15 1.00488 0
2.36476e-14 1.00488 0
1.32043e-14 1.00346 0
-5.65595e-16 1.00346 0
2.36476e-14 1.00488 0
7.96275e-15 1.00488 0
-2.68646e-14 1.00488 0
-1.03729e-14 1.00488 0
-1.0685e-14 1.00621 0
2.61448e-15 1.00621 0
-1.03729e-14 1.00488 0
-9.01724e-15 1.00488 0
2.61448e-15 1.00621 0
3.53881e-15 1.00621 0
-5.65595e-16 1.00346 0
1.3729e-15 1.00346 0
7.96275e-15 1.00488 0
5.60953e-15 1.00488 0
1.3729e-15 1.00346 0
-9.95781e-15 1.00346 0
5.60953e-15 1.00488 0
1.04337e-14 1.00488 0
-9.01724e-15 1.00488 0
-5.7708e-15 1.00488 0
3.53881e-15 1.00621 0
2.66866e-15 1.00621 0
-5.7708e-15 1.00488 0
-1.29555e-14 1.00488 0
2.66866e-15 1.00621 0
1.03358e-14 1.00621 0
0 1.00621 0
-2.83933e-14 1.00621 0
0 1.00753 0
-2.55778e-14 1.00753 0
-2.83933e-14 1.00621 0
-6.34117e-14 1.00621 0
-2.55778e-14 1.00753 0
-6.20291e-14 1.00753 0
0 1.00753 0
1.69251e-14 1.00753 0
0 1.00883 0
1.52836e-14 1.00883 0
1.69251e-14 1.00753 0
8.51802e-14 1.00753 0
1.52836e-14 1.00883 0
8.30561e-14 1.00883 0
-6.34117e-14 1.00621 0
-8.13911e-15 1.00621 0
-6.20291e-14 1.00753 0
-1.04155e-17 1.00753 0
-8.13911e-15 1.00621 0
4.79135e-14 1.00621 0
-1.04155e-17 1.00753 0
4.74971e-14 1.00753 0
8.51802e-14 1.00753 0
1.03384e-14 1.00753 0
8.30561e-14 1.00883 0
1.2003e-14 1.00883 0
1.03384e-14 1.00753 0
-5.78022e-14 1.00753 0
1.2003e-14 1.00883 0
-4.45948e-14 1.00883 0
0 1.00883 0
1.57496e-14 1.00883 0
0 1.0101 0
1.57547e-14 1.0101 0
1.57496e-14 1.00883 0
-1.33735e-13 1.00883 0
1.57547e-14 1.0101 0
-1.3677e-13 1.0101 0
0 1.0101 0
-1.38997e-14 1.0101 0
0 1.01136 0
-6.61568e-15 1.01136 0
-1.38997e-14 1.0101 0
1.15624e-13 1.0101 0
-6.61568e-15 1.01136 0
1.05739e-13 1.01136 0
-1.33735e-13 1.00883 0
-4.00369e-15 1.00883 0
-1.3677e-13 1.0101 0
-8.05474e-15 1.0101 0
-4.00369e-15 1.00883 0
8.38573e-14 1.00883 0
-8.05474e-15 1.0101 0
8.98462e-14 1.0101 0
1.15624e-13 1.0101 0
1.12036e-14 1.0101 0
1.05739e-13 1.01136 0
4.26222e-15 1.01136 0
1.12036e-14 1.0101 0
-1.19467e-13 1.0101 0
4.26222e-15 1.01136 0
-1.08901e-13 1.01136 0
4.79135e-14 1.00621 0
-2.11005e-14 1.00621 0
4.74971e-14 1.00753 0
-9.22051e-15 1.00753 0
-2.11005e-14 1.00621 0
-2.53925e-15 1.00621 0
-9.22051e-15 1.00753 0
3.31637e-15 1.00753 0
-5.78022e-14 1.00753 0
5.93764e-15 1.00753 0
-4.45948e-14 1.00883 0
8.70484e-15 1.00883 0
5.93764e-15 1.00753 0
-4.45758e-15 1.00753 0
8.70484e-15 1.00883 0
6.54762e-15 1.00883 0
-2.53925e-15 1.00621 0
-2.74276e-15 1.00621 0
3.31637e-15 1.00753 0
3.5786e-15 1.00753 0
-2.74276e-15 1.00621 0
-9.39395e-15 1.00621 0
3.5786e-15 1.00753 0
1.18888e-14 1.00753 0
-4.45758e-15 1.00753 0
-2.85289e-15 1.00753 0
6.54762e-15 1.00883 0
5.18855e-15 1.00883 0
-2.85289e-15 1.00753 0
-3.80233e-16 1.00753 0
5.18855e-15 1.00883 0
7.27186e-15 1.00883 0
8.38573e-14 1.00883 0
-3.32986e-15 1.00883 0
8.98462e-14 1.0101 0
3.90539e-15 1.0101 0
-3.32986e-15 1.00883 0
-4.3747e-15 1.00883 0
3.90539e-15 1.0101 0
2.38554e-15 1.0101 0
-1.19467e-13 1.0101 0
-2.4943e-14 1.0101 0
-1.08901e-13 1.01136 0
-8.61471e-15 1.01136 0
-2.4943e-14 1.0101 0
-2.90344e-15 1.0101 0
-8.61471e-15 1.01136 0
6.57236e-15 1.01136 0
-4.3747e-15 1.00883 0
-1.13723e-15 1.00883 0
2.38554e-15 1.0101 0
5.27923e-15 1.0101 0
-1.13723e-15 1.00883 0
-3.68989e-15 1.00883 0
5.27923e-15 1.0101 0
7.67421e-15 1.0101 0
-2.90344e-15 1.0101 0
-8.14377e-15 1.0101 0
6.57236e-15 1.01136 0
2.03698e-15 1.01136 0
-8.14377e-15 1.0101 0
-1.02393e-14 1.0101 0
2.03698e-15 1.01136 0
6.76628e-15 1.01136 0
-6.50388e-15 1 0
-1.831e-15 1 0
1.20908e-14 1.00229 0
1.32743e-14 1.00229 0
-1.831e-15 1 0
5.73104e-15 1 0
1.32743e-14 1.00229 0
5.57398e-15 1.00229 0
-5.37878e-15 1.00229 0
-1.12297e-15 1.00229 0
1.36183e-14 1.00346 0
8.89102e-15 1.00346 0
-1.12297e-15 1.00229 0
-1.3857e-15 1.00229 0
8.89102e-15 1.00346 0
4.50527e-15 1.00346 0
5.73104e-15 1 0
1.04435e-15 1 0
5.57398e-15 1.00229 0
9.93663e-15 1.00229 0
1.04435e-15 1 0
-6.74015e-15 1 0
9.93663e-15 1.00229 0
8.22626e-15 1.00229 0
-1.3857e-15 1.00229 0
-1.00121e-14 1.00229 0
4.50527e-15 1.00346 0
1.70723e-14 1.00346 0
-1.00121e-14 1.00229 0
6.66374e-15 1.00229 0
1.70723e-14 1.00346 0
6.10264e-15 1.00346 0
-9.95781e-15 1.00346 0
-1.40637e-14 1.00346 0
1.04337e-14 1.00488 0
1.23938e-14 1.00488 0
-1.40637e-14 1.00346 0
-1.77489e-15 1.00346 0
1.23938e-14 1.00488 0
1.11841e-14 1.00488 0
-1.29555e-14 1.00488 0
-3.41384e-15 1.00488 0
1.03358e-14 1.00621 0
5.15625e-15 1.00621 0
-3.41384e-15 1.00488 0
-1.06954e-14 1.00488 0
5.15625e-15 1.00621 0
7.5438e-15 1.00621 0
-1.77489e-15 1.00346 0
7.08763e-15 1.00346 0
1.11841e-14 1.00488 0
-3.58732e-15 1.00488 0
7.08763e-15 1.00346 0
-4.63312e-15 1.00346 0
-3.58732e-15 1.00488 0
9.15913e-15 1.00488 0
-1.06954e-14 1.00488 0
-9.97949e-15 1.00488 0
7.5438e-15 1.00621 0
9.7038e-15 1.00621 0
-9.97949e-15 1.00488 0
-5.75079e-15 1.00488 0
9.7038e-15 1.00621 0
1.25049e-14 1.00621 0
-6.74015e-15 1 0
-2.18538e-15 1 0
8.22626e-15 1.00229 0
1.16588e-14 1.00229 0
-2.18538e-15 1 0
-4.84547e-15 1 0
1.16588e-14 1.00229 0
1.34605e-14 1.00229 0
6.66374e-15 1.00229 0
2.31737e-15 1.00229 0
6.10264e-15 1.00346 0
4.58382e-15 1.00346 0
2.31737e-15 1.00229 0
-3.62192e-15 1.00229 0
4.58382e-15 1.00346 0
1.63145e-14 1.00346 0
-4.84547e-15 1 0
1.41934e-15 1 0
1.34605e-14 1.00229 0
7.85083e-15 1.00229 0
1.41934e-15 1 0
1.61638e-15 1 0
7.85083e-15 1.00229 0
1.30899e-14 1.00229 0
-3.62192e-15 1.00229 0
4.34432e-15 1.00229 0
1.63145e-14 1.00346 0
8.97039e-15 1.00346 0
4.34432e-15 1.00229 0
-4.64705e-15 1.00229 0
8.97039e-15 1.00346 0
9.8017e-15 1.00346 0
-4.63312e-15 1.00346 0
-9.73216e-15 1.00346 0
9.15913e-15 1.00488 0
1.15995e-14 1.00488 0
-9.73216e-15 1.00346 0
-3.91065e-15 1.00346 0
1.15995e-14 1.00488 0
8.80868e-15 1.00488 0
-5.75079e-15 1.00488 0
-1.36692e-15 1.00488 0
1.25049e-14 1.00621 0
4.43615e-15 1.00621 0
-1.36692e-15 1.00488 0
-1.14027e-14 1.00488 0
4.43615e-15 1.00621 0
7.71209e-15 1.00621 0
-3.91065e-15 1.00346 0
-1.26284e-14 1.00346 0
8.80868e-15 1.00488 0
1.45933e-14 1.00488 0
-1.26284e-14 1.00346 0
-8.04571e-15 1.00346 0
1.45933e-14 1.00488 0
6.93853e-15 1.00488 0
-1.14027e-14 1.00488 0
-2.15798e-15 1.00488 0
7.71209e-15 1.00621 0
5.27234e-15 1.00621 0
-2.15798e-15 1.00488 0
3.85705e-16 1.00488 0
5.27234e-15 1.00621 0
5.14057e-15 1.00621 0
-9.39395e-15 1.00621 0
-4.1154e-15 1.00621 0
1.18888e-14 1.00753 0
8.1087e-15 1.00753 0
-4.1154e-15 1.00621 0
-4.5065e-15 1.00621 0
8.1087e-15 1.00753 0
3.50425e-15 1.00753 0
-3.80233e-16 1.00753 0
-1.22644e-14 1.00753 0
7.27186e-15 1.00883 0
3.85163e-15 1.00883 0
-1.22644e-14 1.00753 0
2.41349e-15 1.00753 0
3.85163e-15 1.00883 0
1.92182e-15 1.00883 0
-4.5065e-15 1.00621 0
-3.37973e-15 1.00621 0
3.50425e-15 1.00753 0
7.69281e-15 1.00753 0
-3.37973e-15 1.00621 0
-9.72397e-15 1.00621 0
7.69281e-15 1.00753 0
1.00046e-14 1.00753 0
2.41349e-15 1.00753 0
-2.93863e-15 1.00753 0
1.92182e-15 1.00883 0
3.44483e-15 1.00883 0
-2.93863e-15 1.00753 0
-2.49107e-15 1.00753 0
3.44483e-15 1.00883 0
2.40984e-15 1.00883 0
-3.68989e-15 1.00883 0
3.24723e-15 1.00883 0
7.67421e-15 1.0101 0
6.63636e-15 1.0101 0
3.24723e-15 1.00883 0
-3.45761e-15 1.00883 0
6.63636e-15 1.0101 0
6.6355e-15 1.0101 0
-1.02393e-14 1.0101 0
-1.38912e-15 1.0101 0
6.76628e-15 1.01136 0
5.47245e-15 1.01136 0
-1.38912e-15 1.0101 0
-4.42916e-16 1.0101 0
5.47245e-15 1.01136 0
5.83896e-15 1.01136 0
-3.45761e-15 1.00883 0
-6.00209e-15 1.00883 0
6.6355e-15 1.0101 0
4.2683e-15 1.0101 0
-6.00209e-15 1.00883 0
-1.45427e-15 1.00883 0
4.2683e-15 1.0101 0
7.00713e-15 1.0101 0
-4.42916e-16 1.0101 0
8.99103e-15 1.0101 0
5.83896e-15 1.01136 0
-1.74674e-15 1.01136 0
8.99103e-15 1.0101 0
-4.83695e-15 1.0101 0
-1.74674e-15 1.01136 0
8.1124e-15 1.01136 0
-9.72397e-15 1.00621 0
-5.35094e-17 1.00621 0
1.00046e-14 1.00753 0
4.64162e-15 1.00753 0
-5.35094e-17 1.00621 0
3.28236e-17 1.00621 0
4.64162e-15 1.00753 0
8.63189e-15 1.00753 0
-2.49107e-15 1.00753 0
-6.21453e-15 1.00753 0
2.40984e-15 1.00883 0
4.67249e-15 1.00883 0
-6.21453e-15 1.00753 0
-1.28626e-15 1.00753 0
4.67249e-15 1.00883 0
-1.30053e-15 1.00883 0
3.28236e-17 1.00621 0
7.56097e-15 1.00621 0
8.63189e-15 1.00753 0
-5.14635e-16 1.00753 0
7.56097e-15 1.00621 0
5.07042e-15 1.00621 0
-5.14635e-16 1.00753 0
-3.15103e-17 1.00753 0
-1.28626e-15 1.00753 0
-5.4473e-15 1.00753 0
-1.30053e-15 1.00883 0
8.01455e-15 1.00883 0
-5.4473e-15 1.00753 0
-7.36226e-16 1.00753 0
8.01455e-15 1.00883 0
6.16848e-15 1.00883 0
-1.45427e-15 1.00883 0
3.69717e-15 1.00883 0
7.00713e-15 1.0101 0
-6.24402e-16 1.0101 0
3.69717e-15 1.00883 0
-1.57713e-15 1.00883 0
-6.24402e-16 1.0101 0
6.87011e-16 1.0101 0
-4.83695e-15 1.0101 0
-2.52408e-15 1.0101 0
8.1124e-15 1.01136 0
8.12207e-15 1.01136 0
-2.52408e-15 1.0101 0
1.5645e-15 1.0101 0
8.12207e-15 1.01136 0
6.52159e-15 1.01136 0
-1.57713e-15 1.00883 0
-3.79312e-15 1.00883 0
6.87011e-16 1.0101 0
2.57494e-15 1.0101 0
-3.79312e-15 1.00883 0
-5.43225e-15 1.00883 0
2.57494e-15 1.0101 0
3.36505e-15 1.0101 0
1.5645e-15 1.0101 0
1.0093e-15 1.0101 0
6.52159e-15 1.01136 0
-1.34916e-15 1.01136 0
1.0093e-15 1.0101 0
6.51931e-15 1.0101 0
-1.34916e-15 1.01136 0
-7.72457e-15 1.01136 0
0 1.01136 0
-6.70803e-15 1.01136 0
0 1.01261 0
7.07152e-16 1.01261 0
-6.70803e-15 1.01136 0
-7.23654e-14 1.01136 0
7.07152e-16 1.01261 0
-6.87482e-14 1.01261 0
0 1.01261 0
8.26743e-15 1.01261 0
0 1.01386 0
1.17732e-14 1.01386 0
8.26743e-15 1.01261 0
5.06521e-14 1.01261 0
1.17732e-14 1.01386 0
5.29952e-14 1.01386 0
-7.23654e-14 1.01136 0
4.79448e-15 1.01136 0
-6.87482e-14 1.01261 0
1.23988e-14 1.01261 0
4.79448e-15 1.01136 0
7.0843e-14 1.01136 0
1.23988e-14 1.01261 0
7.16956e-14 1.01261 0
5.06521e-14 1.01261 0
-3.06429e-14 1.01261 0
5.29952e-14 1.01386 0
-1.91013e-14 1.01386 0
-3.06429e-14 1.01261 0
-1.4738e-14 1.01261 0
-1.91013e-14 1.01386 0
-1.12951e-14 1.01386 0
0 1.01386 0
-1.78577e-14 1.01386 0
0 1.01512 0
-1.13206e-14 1.01512 0
-1.78577e-14 1.01386 0
-3.61929e-14 1.01386 0
-1.13206e-14 1.01512 0
-2.28146e-14 1.01512 0
0 1.01512 0
1.24172e-15 1.01512 0
0 1.01639 0
7.41232e-15 1.01639 0
1.24172e-15 1.01512 0
1.8584e-14 1.01512 0
7.41232e-15 1.01639 0
1.73965e-14 1.01639 0
-3.61929e-14 1.01386 0
6.12883e-15 1.01386 0
-2.28146e-14 1.01512 0
1.34421e-14 1.01512 0
6.12883e-15 1.01386 0
-3.2062e-15 1.01386 0
1.34421e-14 1.01512 0
1.24269e-14 1.01512 0
1.8584e-14 1.01512 0
-6.31166e-15 1.01512 0
1.73965e-14 1.01639 0
-5.00153e-16 1.01639 0
-6.31166e-15 1.01512 0
-5.11816e-15 1.01512 0
-5.00153e-16 1.01639 0
-1.28363e-15 1.01639 0
7.0843e-14 1.01136 0
-1.40085e-14 1.01136 0
7.16956e-14 1.01261 0
-7.01066e-15 1.01261 0
-1.40085e-14 1.01136 0
-1.24085e-14 1.01136 0
-7.01066e-15 1.01261 0
8.42513e-15 1.01261 0
-1.4738e-14 1.01261 0
2.68475e-14 1.01261 0
-1.12951e-14 1.01386 0
2.47016e-14 1.01386 0
2.68475e-14 1.01261 0
-5.66492e-15 1.01261 0
2.47016e-14 1.01386 0
7.74186e-15 1.01386 0
-1.24085e-14 1.01136 0
-7.29494e-16 1.01136 0
8.42513e-15 1.01261 0
4.25658e-15 1.01261 0
-7.29494e-16 1.01136 0
-1.35828e-15 1.01136 0
4.25658e-15 1.01261 0
5.23537e-15 1.01261 0
-5.66492e-15 1.01261 0
-4.61317e-15 1.01261 0
7.74186e-15 1.01386 0
5.88759e-15 1.01386 0
-4.61317e-15 1.01261 0
-6.94115e-15 1.01261 0
5.88759e-15 1.01386 0
8.09471e-15 1.01386 0
-3.2062e-15 1.01386 0
-1.02181e-14 1.01386 0
1.24269e-14 1.01512 0
-7.65357e-16 1.01512 0
-1.02181e-14 1.01386 0
-6.4084e-15 1.01386 0
-7.65357e-16 1.01512 0
6.80845e-15 1.01512 0
-5.11816e-15 1.01512 0
-6.10515e-15 1.01512 0
-1.28363e-15 1.01639 0
5.45521e-16 1.01639 0
-6.10515e-15 1.01512 0
-5.86206e-15 1.01512 0
5.45521e-16 1.01639 0
4.46174e-15 1.01639 0
-6.4084e-15 1.01386 0
-3.73294e-16 1.01386 0
6.80845e-15 1.01512 0
2.65861e-15 1.01512 0
-3.73294e-16 1.01386 0
-6.33604e-15 1.01386 0
2.65861e-15 1.01512 0
6.12986e-15 1.01512 0
-5.86206e-15 1.01512 0
-5.17997e-15 1.01512 0
4.46174e-15 1.01639 0
2.20959e-15 1.01639 0
-5.17997e-15 1.01512 0
-7.49041e-15 1.01512 0
2.20959e-15 1.01639 0
5.15725e-15 1.01639 0
0 1.01639 0
8.9381e-15 1.01639 0
0 1.01768 0
4.18464e-15 1.01768 0
8.9381e-15 1.01639 0
-2.40593e-14 1.01639 0
4.18464e-15 1.01768 0
-2.48422e-14 1.01768 0
0 1.01768 0
-1.38161e-14 1.01768 0
0 1.01894 0
-9.3261e-15 1.01894 0
-1.38161e-14 1.01768 0
2.69794e-14 1.01768 0
-9.3261e-15 1.01894 0
2.29691e-14 1.01894 0
-2.40593e-14 1.01639 0
-2.71458e-15 1.01639 0
-2.48422e-14 1.01768 0
-1.44788e-15 1.01768 0
-2.71458e-15 1.01639 0
-1.25465e-14 1.01639 0
-1.44788e-15 1.01768 0
-2.12042e-15 1.01768 0
2.69794e-14 1.01768 0
2.45441e-15 1.01768 0
2.29691e-14 1.01894 0
7.68151e-15 1.01894 0
2.45441e-15 1.01768 0
-7.35695e-16 1.01768 0
7.68151e-15 1.01894 0
1.74585e-15 1.01894 0
0 1.01894 0
9.0377e-15 1.01894 0
0 1.02003 0
8.73907e-15 1.02003 0
9.0377e-15 1.01894 0
-1.38223e-14 1.01894 0
8.73907e-15 1.02003 0
-1.27803e-14 1.02003 0
0 1.02003 0
-9.95119e-16 1.02003 0
0 1.02047 0
-7.57968e-15 1.02047 0
-9.95119e-16 1.02003 0
7.42442e-16 1.02003 0
-7.57968e-15 1.02047 0
1.65016e-14 1.02047 0
-1.38223e-14 1.01894 0
-3.95605e-16 1.01894 0
-1.27803e-14 1.02003 0
1.46012e-15 1.02003 0
-3.95605e-16 1.01894 0
2.1961e-16 1.01894 0
1.46012e-15 1.02003 0
3.78164e-15 1.02003 0
7.42442e-16 1.02003 0
-4.97938e-15 1.02003 0
1.65016e-14 1.02047 0
-7.29101e-15 1.02047 0
-4.97938e-15 1.02003 0
-2.80495e-15 1.02003 0
-7.29101e-15 1.02047 0
6.67708e-15 1.02047 0
-1.25465e-14 1.01639 0
-3.21865e-15 1.01639 0
-2.12042e-15 1.01768 0
6.1712e-15 1.01768 0
-3.21865e-15 1.01639 0
-2.74902e-15 1.01639 0
6.1712e-15 1.01768 0
4.64931e-15 1.01768 0
-7.35695e-16 1.01768 0
-6.17126e-15 1.01768 0
1.74585e-15 1.01894 0
-4.55967e-15 1.01894 0
-6.17126e-15 1.01768 0
-4.98889e-15 1.01768 0
-4.55967e-15 1.01894 0
4.03818e-15 1.01894 0
-2.74902e-15 1.01639 0
-6.59026e-16 1.01639 0
4.64931e-15 1.01768 0
4.201e-16 1.01768 0
-6.59026e-16 1.01639 0
-3.38425e-15 1.01639 0
4.201e-16 1.01768 0
3.24158e-15 1.01768 0
-4.98889e-15 1.01768 0
-4.77806e-15 1.01768 0
4.03818e-15 1.01894 0
1.7258e-15 1.01894 0
-4.77806e-15 1.01768 0
-2.45064e-15 1.01768 0
1.7258e-15 1.01894 0
3.39007e-15 1.01894 0
2.1961e-16 1.01894 0
7.02622e-16 1.01894 0
3.78164e-15 1.02003 0
4.77496e-15 1.02003 0
7.02622e-16 1.01894 0
-3.07554e-15 1.01894 0
4.77496e-15 1.02003 0
6.82885e-16 1.02003 0
-2.80495e-15 1.02003 0
-3.71202e-15 1.02003 0
6.67708e-15 1.02047 0
1.78204e-15 1.02047 0
-3.71202e-15 1.02003 0
-9.57003e-16 1.02003 0
1.78204e-15 1.02047 0
1.6009e-16 1.02047 0
-3.07554e-15 1.01894 0
-1.38147e-15 1.01894 0
6.82885e-16 1.02003 0
-1.19393e-16 1.02003 0
-1.38147e-15 1.01894 0
-3.9092e-15 1.01894 0
-1.19393e-16 1.02003 0
5.55386e-15 1.02003 0
-9.57003e-16 1.02003 0
-1.56675e-15 1.02003 0
1.6009e-16 1.02047 0
5.99596e-15 1.02047 0
-1.56675e-15 1.02003 0
-9.59335e-16 1.02003 0
5.99596e-15 1.02047 0
-8.5945e-15 1.02047 0
-1.35828e-15 1.01136 0
-9.86653e-16 1.01136 0
5.23537e-15 1.01261 0
6.44221e-15 1.01261 0
-9.86653e-16 1.01136 0
-2.45468e-15 1.01136 0
6.44221e-15 1.01261 0
2.34374e-15 1.01261 0
-6.94115e-15 1.01261 0
-4.35224e-15 1.01261 0
8.09471e-15 1.01386 0
8.2984e-15 1.01386 0
-4.35224e-15 1.01261 0
1.20343e-15 1.01261 0
8.2984e-15 1.01386 0
3.30182e-15 1.01386 0
-2.45468e-15 1.01136 0
-3.06383e-15 1.01136 0
2.34374e-15 1.01261 0
3.47821e-15 1.01261 0
-3.06383e-15 1.01136 0
-2.72561e-15 1.01136 0
3.47821e-15 1.01261 0
6.07252e-15 1.01261 0
1.20343e-15 1.01261 0
-3.457e-15 1.01261 0
3.30182e-15 1.01386 0
3.13855e-15 1.01386 0
-3.457e-15 1.01261 0
-1.73357e-15 1.01261 0
3.13855e-15 1.01386 0
4.07095e-15 1.01386 0
-6.33604e-15 1.01386 0
-6.73312e-15 1.01386 0
6.12986e-15 1.01512 0
4.29632e-15 1.01512 0
-6.73312e-15 1.01386 0
-8.52876e-15 1.01386 0
4.29632e-15 1.01512 0
8.11278e-15 1.01512 0
-7.49041e-15 1.01512 0
-4.34785e-15 1.01512 0
5.15725e-15 1.01639 0
5.58739e-15 1.01639 0
-4.34785e-15 1.01512 0
-4.27995e-15 1.01512 0
5.58739e-15 1.01639 0
4.62072e-16 1.01639 0
-8.52876e-15 1.01386 0
-2.03074e-15 1.01386 0
8.11278e-15 1.01512 0
5.57957e-15 1.01512 0
-2.03074e-15 1.01386 0
-7.23205e-15 1.01386 0
5.57957e-15 1.01512 0
3.00949e-15 1.01512 0
-4.27995e-15 1.01512 0
-2.75222e-15 1.01512 0
4.62072e-16 1.01639 0
2.67446e-15 1.01639 0
-2.75222e-15 1.01512 0
1.12378e-15 1.01512 0
2.67446e-15 1.01639 0
-4.32923e-16 1.01639 0
-2.72561e-15 1.01136 0
-7.68433e-15 1.01136 0
6.07252e-15 1.01261 0
6.04482e-15 1.01261 0
-7.68433e-15 1.01136 0
4.14804e-16 1.01136 0
6.04482e-15 1.01261 0
4.83032e-15 1.01261 0
-1.73357e-15 1.01261 0
-3.08364e-15 1.01261 0
4.07095e-15 1.01386 0
6.22225e-15 1.01386 0
-3.08364e-15 1.01261 0
-1.5921e-15 1.01261 0
6.22225e-15 1.01386 0
1.51299e-15 1.01386 0
4.14804e-16 1.01136 0
5.93791e-17 1.01136 0
4.83032e-15 1.01261 0
2.44824e-15 1.01261 0
5.93791e-17 1.01136 0
4.73302e-15 1.01136 0
2.44824e-15 1.01261 0
1.28737e-15 1.01261 0
-1.5921e-15 1.01261 0
7.05564e-16 1.01261 0
1.51299e-15 1.01386 0
4.33632e-15 1.01386 0
7.05564e-16 1.01261 0
-3.13206e-15 1.01261 0
4.33632e-15 1.01386 0
7.62829e-15 1.01386 0
-7.23205e-15 1.01386 0
-3.42059e-15 1.01386 0
3.00949e-15 1.01512 0
2.38221e-15 1.01512 0
-3.42059e-15 1.01386 0
1.47311e-15 1.01386 0
2.38221e-15 1.01512 0
1.73659e-15 1.01512 0
1.12378e-15 1.01512 0
-3.13462e-15 1.01512 0
-4.32923e-16 1.01639 0
3.71085e-15 1.01639 0
-3.13462e-15 1.01512 0
-7.55314e-15 1.01512 0
3.71085e-15 1.01639 0
5.77496e-15 1.01639 0
1.47311e-15 1.01386 0
-5.26996e-15 1.01386 0
1.73659e-15 1.01512 0
7.11014e-15 1.01512 0
-5.26996e-15 1.01386 0
-5.99162e-15 1.01386 0
7.11014e-15 1.01512 0
5.2778e-15 1.01512 0
-7.55314e-15 1.01512 0
-2.30522e-15 1.01512 0
5.77496e-15 1.01639 0
-1.05664e-15 1.01639 0
-2.30522e-15 1.01512 0
4.67942e-15 1.01512 0
-1.05664e-15 1.01639 0
-1.45818e-15 1.01639 0
-3.38425e-15 1.01639 0
-8.15699e-15 1.01639 0
3.24158e-15 1.01768 0
4.41742e-15 1.01768 0
-8.15699e-15 1.01639 0
-3.53102e-15 1.01639 0
4.41742e-15 1.01768 0
4.01497e-16 1.01768 0
-2.45064e-15 1.01768 0
-4.4447e-16 1.01768 0
3.39007e-15 1.01894 0
5.45629e-16 1.01894 0
-4.4447e-16 1.01768 0
-2.40771e-15 1.01768 0
5.45629e-16 1.01894 0
3.42113e-15 1.01894 0
-3.53102e-15 1.01639 0
-1.10468e-15 1.01639 0
4.01497e-16 1.01768 0
2.25958e-15 1.01768 0
-1.10468e-15 1.01639 0
-3.85508e-15 1.01639 0
2.25958e-15 1.01768 0