# vtk DataFile Version 3.0
#This file was generated by the deal.II library on 2018/10/12 at 0:36:47
ASCII
DATASET UNSTRUCTURED_GRID

POINTS 5120 double
0 0 0
0.392699 0 0
0 0.608051 0
0.392699 0.608051 0
0.392699 0 0
0.785398 0 0
0.392699 0.608051 0
0.785398 0.608051 0
0 0.608051 0
0.392699 0.608051 0
0 1.23432 0
0.392699 1.23432 0
0.392699 0.608051 0
0.785398 0.608051 0
0.392699 1.23432 0
0.785398 1.23432 0
0.785398 0 0
1.1781 0 0
0.785398 0.608051 0
1.1781 0.608051 0
1.1781 0 0
1.5708 0 0
1.1781 0.608051 0
1.5708 0.608051 0
0.785398 0.608051 0
1.1781 0.608051 0
0.785398 1.23432 0
1.1781 1.23432 0
1.1781 0.608051 0
1.5708 0.608051 0
1.1781 1.23432 0
1.5708 1.23432 0
0 1.23432 0
0.392699 1.23432 0
0 1.85991 0
0.392699 1.85991 0
0.392699 1.23432 0
0.785398 1.23432 0
0.392699 1.85991 0
0.785398 1.85991 0
0 1.85991 0
0.392699 1.85991 0
0 2.4861 0
0.392699 2.4861 0
0.392699 1.85991 0
0.785398 1.85991 0
0.392699 2.4861 0
0.785398 2.4861 0
0.785398 1.23432 0
1.1781 1.23432 0
0.785398 1.85991 0
1.1781 1.85991 0
1.1781 1.23432 0
1.5708 1.23432 0
1.1781 1.85991 0
1.5708 1.85991 0
0.785398 1.85991 0
1.1781 1.85991 0
0.785398 2.4861 0
1.1781 2.4861 0
1.1781 1.85991 0
1.5708 1.85991 0
1.1781 2.4861 0
1.5708 2.4861 0
1.5708 0 0
1.9635 0 0
1.5708 0.608051 0
1.9635 0.608051 0
1.9635 0 0
2.35619 0 0
1.9635 0.608051 0
2.35619 0.608051 0
1.5708 0.608051 0
1.9635 0.608051 0
1.5708 1.23432 0
1.9635 1.23432 0
1.9635 0.608051 0
2.35619 0.608051 0
1.9635 1.23432 0
2.35619 1.23432 0
2.35619 0 0
2.74889 0 0
2.35619 0.608051 0
2.74889 0.608051 0
2.74889 0 0
3.14159 0 0
2.74889 0.608051 0
3.14159 0.608051 0
2.35619 0.608051 0
2.74889 0.608051 0
2.35619 1.23432 0
2.74889 1.23432 0
2.74889 0.608051 0
3.14159 0.608051 0
2.74889 1.23432 0
3.14159 1.23432 0
1.5708 1.23432 0
1.9635 1.23432 0
1.5708 1.85991 0
1.9635 1.85991 0
1.9635 1.23432 0
2.35619 1.23432 0
1.9635 1.85991 0
2.35619 1.85991 0
1.5708 1.85991 0
1.9635 1.85991 0
1.5708 2.4861 0
1.9635 2.4861 0
1.9635 1.85991 0
2.35619 1.85991 0
1.9635 2.4861 0
2.35619 2.4861 0
2.35619 1.23432 0
2.74889 1.23432 0
2.35619 1.85991 0
2.74889 1.85991 0
2.74889 1.23432 0
3.14159 1.23432 0
2.74889 1.85991 0
3.14159 1.85991 0
2.35619 1.85991 0
2.74889 1.85991 0
2.35619 2.4861 0
2.74889 2.4861 0
2.74889 1.85991 0
3.14159 1.85991 0
2.74889 2.4861 0
3.14159 2.4861 0
0 2.4861 0
0.392699 2.4861 0
0 3.11212 0
0.392699 3.11212 0
0.392699 2.4861 0
0.785398 2.4861 0
0.392699 3.11212 0
0.785398 3.11212 0
0 3.11212 0
0.392699 3.11212 0
0 3.73815 0
0.392699 3.73815 0
0.392699 3.11212 0
0.785398 3.11212 0
0.392699 3.73815 0
0.785398 3.73815 0
0.785398 2.4861 0
1.1781 2.4861 0
0.785398 3.11212 0
1.1781 3.11212 0
1.1781 2.4861 0
1.5708 2.4861 0
1.1781 3.11212 0
1.5708 3.11212 0
0.785398 3.11212 0
1.1781 3.11212 0
0.785398 3.73815 0
1.1781 3.73815 0
1.1781 3.11212 0
1.5708 3.11212 0
1.1781 3.73815 0
1.5708 3.73815 0
0 3.73815 0
0.392699 3.73815 0
0 4.36413 0
0.392699 4.36413 0
0.392699 3.73815 0
0.785398 3.73815 0
0.392699 4.36413 0
0.785398 4.36413 0
0 4.36413 0
0.392699 4.36413 0
0 4.99006 0
0.392699 4.99006 0
0.392699 4.36413 0
0.785398 4.36413 0
0.392699 4.99006 0
0.785398 4.99006 0
0.785398 3.73815 0
1.1781 3.73815 0
0.785398 4.36413 0
1.1781 4.36413 0
1.1781 3.73815 0
1.5708 3.73815 0
1.1781 4.36413 0
1.5708 4.36413 0
0.785398 4.36413 0
1.1781 4.36413 0
0.785398 4.99006 0
1.1781 4.99006 0
1.1781 4.36413 0
1.5708 4.36413 0
1.1781 4.99006 0
1.5708 4.99006 0
1.5708 2.4861 0
1.9635 2.4861 0
1.5708 3.11212 0
1.9635 3.11212 0
1.9635 2.4861 0
2.35619 2.4861 0
1.9635 3.11212 0
2.35619 3.11212 0
1.5708 3.11212 0
1.9635 3.11212 0
1.5708 3.73815 0
1.9635 3.73815 0
1.9635 3.11212 0
2.35619 3.11212 0
1.9635 3.73815 0
2.35619 3.73815 0
2.35619 2.4861 0
2.74889 2.4861 0
2.35619 3.11212 0
2.74889 3.11212 0
2.74889 2.4861 0
3.14159 2.4861 0
2.74889 3.11212 0
3.14159 3.11212 0
2.35619 3.11212 0
2.74889 3.11212 0
2.35619 3.73815 0
2.74889 3.73815 0
2.74889 3.11212 0
3.14159 3.11212 0
2.74889 3.73815 0
3.14159 3.73815 0
1.5708 3.73815 0
1.9635 3.73815 0
1.5708 4.36413 0
1.9635 4.36413 0
1.9635 3.73815 0
2.35619 3.73815 0
1.9635 4.36413 0
2.35619 4.36413 0
1.5708 4.36413 0
1.9635 4.36413 0
1.5708 4.99006 0
1.9635 4.99006 0
1.9635 4.36413 0
2.35619 4.36413 0
1.9635 4.99006 0
2.35619 4.99006 0
2.35619 3.73815 0
2.74889 3.73815 0
2.35619 4.36413 0
2.74889 4.36413 0
2.74889 3.73815 0
3.14159 3.73815 0
2.74889 4.36413 0
3.14159 4.36413 0
2.35619 4.36413 0
2.74889 4.36413 0
2.35619 4.99006 0
2.74889 4.99006 0
2.74889 4.36413 0
3.14159 4.36413 0
2.74889 4.99006 0
3.14159 4.99006 0
3.14159 0 0
3.53429 0 0
3.14159 0.608051 0
3.53429 0.608051 0
3.53429 0 0
3.92699 0 0
3.53429 0.608051 0
3.92699 0.608051 0
3.14159 0.608051 0
3.53429 0.608051 0
3.14159 1.23432 0
3.53429 1.23432 0
3.53429 0.608051 0
3.92699 0.608051 0
3.53429 1.23432 0
3.92699 1.23432 0
3.92699 0 0
4.31969 0 0
3.92699 0.608051 0
4.31969 0.608051 0
4.31969 0 0
4.71239 0 0
4.31969 0.608051 0
4.71239 0.608051 0
3.92699 0.608051 0
4.31969 0.608051 0
3.92699 1.23432 0
4.31969 1.23432 0
4.31969 0.608051 0
4.71239 0.608051 0
4.31969 1.23432 0
4.71239 1.23432 0
3.14159 1.23432 0
3.53429 1.23432 0
3.14159 1.85991 0
3.53429 1.85991 0
3.53429 1.23432 0
3.92699 1.23432 0
3.53429 1.85991 0
3.92699 1.85991 0
3.14159 1.85991 0
3.53429 1.85991 0
3.14159 2.4861 0
3.53429 2.4861 0
3.53429 1.85991 0
3.92699 1.85991 0
3.53429 2.4861 0
3.92699 2.4861 0
3.92699 1.23432 0
4.31969 1.23432 0
3.92699 1.85991 0
4.31969 1.85991 0
4.31969 1.23432 0
4.71239 1.23432 0
4.31969 1.85991 0
4.71239 1.85991 0
3.92699 1.85991 0
4.31969 1.85991 0
3.92699 2.4861 0
4.31969 2.4861 0
4.31969 1.85991 0
4.71239 1.85991 0
4.31969 2.4861 0
4.71239 2.4861 0
4.71239 0 0
5.10509 0 0
4.71239 0.608051 0
5.10509 0.608051 0
5.10509 0 0
5.49779 0 0
5.10509 0.608051 0
5.49779 0.608051 0
4.71239 0.608051 0
5.10509 0.608051 0
4.71239 1.23432 0
5.10509 1.23432 0
5.10509 0.608051 0
5.49779 0.608051 0
5.10509 1.23432 0
5.49779 1.23432 0
5.49779 0 0
5.89049 0 0
5.49779 0.608051 0
5.89049 0.608051 0
5.89049 0 0
6.28319 0 0
5.89049 0.608051 0
6.28319 0.608051 0
5.49779 0.608051 0
5.89049 0.608051 0
5.49779 1.23432 0
5.89049 1.23432 0
5.89049 0.608051 0
6.28319 0.608051 0
5.89049 1.23432 0
6.28319 1.23432 0
4.71239 1.23432 0
5.10509 1.23432 0
4.71239 1.85991 0
5.10509 1.85991 0
5.10509 1.23432 0
5.49779 1.23432 0
5.10509 1.85991 0
5.49779 1.85991 0
4.71239 1.85991 0
5.10509 1.85991 0
4.71239 2.4861 0
5.10509 2.4861 0
5.10509 1.85991 0
5.49779 1.85991 0
5.10509 2.4861 0
5.49779 2.4861 0
5.49779 1.23432 0
5.89049 1.23432 0
5.49779 1.85991 0
5.89049 1.85991 0
5.89049 1.23432 0
6.28319 1.23432 0
5.89049 1.85991 0
6.28319 1.85991 0
5.49779 1.85991 0
5.89049 1.85991 0
5.49779 2.4861 0
5.89049 2.4861 0
5.89049 1.85991 0
6.28319 1.85991 0
5.89049 2.4861 0
6.28319 2.4861 0
3.14159 2.4861 0
3.53429 2.4861 0
3.14159 3.11212 0
3.53429 3.11212 0
3.53429 2.4861 0
3.92699 2.4861 0
3.53429 3.11212 0
3.92699 3.11212 0
3.14159 3.11212 0
3.53429 3.11212 0
3.14159 3.73815 0
3.53429 3.73815 0
3.53429 3.11212 0
3.92699 3.11212 0
3.53429 3.73815 0
3.92699 3.73815 0
3.92699 2.4861 0
4.31969 2.4861 0
3.92699 3.11212 0
4.31969 3.11212 0
4.31969 2.4861 0
4.71239 2.4861 0
4.31969 3.11212 0
4.71239 3.11212 0
3.92699 3.11212 0
4.31969 3.11212 0
3.92699 3.73815 0
4.31969 3.73815 0
4.31969 3.11212 0
4.71239 3.11212 0
4.31969 3.73815 0
4.71239 3.73815 0
3.14159 3.73815 0
3.53429 3.73815 0
3.14159 4.36413 0
3.53429 4.36413 0
3.53429 3.73815 0
3.92699 3.73815 0
3.53429 4.36413 0
3.92699 4.36413 0
3.14159 4.36413 0
3.53429 4.36413 0
3.14159 4.99006 0
3.53429 4.99006 0
3.53429 4.36413 0
3.92699 4.36413 0
3.53429 4.99006 0
3.92699 4.99006 0
3.92699 3.73815 0
4.31969 3.73815 0
3.92699 4.36413 0
4.31969 4.36413 0
4.31969 3.73815 0
4.71239 3.73815 0
4.31969 4.36413 0
4.71239 4.36413 0
3.92699 4.36413 0
4.31969 4.36413 0
3.92699 4.99006 0
4.31969 4.99006 0
4.31969 4.36413 0
4.71239 4.36413 0
4.31969 4.99006 0
4.71239 4.99006 0
4.71239 2.4861 0
5.10509 2.4861 0
4.71239 3.11212 0
5.10509 3.11212 0
5.10509 2.4861 0
5.49779 2.4861 0
5.10509 3.11212 0
5.49779 3.11212 0
4.71239 3.11212 0
5.10509 3.11212 0
4.71239 3.73815 0
5.10509 3.73815 0
5.10509 3.11212 0
5.49779 3.11212 0
5.10509 3.73815 0
5.49779 3.73815 0
5.49779 2.4861 0
5.89049 2.4861 0
5.49779 3.11212 0
5.89049 3.11212 0
5.89049 2.4861 0
6.28319 2.4861 0
5.89049 3.11212 0
6.28319 3.11212 0
5.49779 3.11212 0
5.89049 3.11212 0
5.49779 3.73815 0
5.89049 3.73815 0
5.89049 3.11212 0
6.28319 3.11212 0
5.89049 3.73815 0
6.28319 3.73815 0
4.71239 3.73815 0
5.10509 3.73815 0
4.71239 4.36413 0
5.10509 4.36413 0
5.10509 3.73815 0
5.49779 3.73815 0
5.10509 4.36413 0
5.49779 4.36413 0
4.71239 4.36413 0
5.10509 4.36413 0
4.71239 4.99006 0
5.10509 4.99006 0
5.10509 4.36413 0
5.49779 4.36413 0
5.10509 4.99006 0
5.49779 4.99006 0
5.49779 3.73815 0
5.89049 3.73815 0
5.49779 4.36413 0
5.89049 4.36413 0
5.89049 3.73815 0
6.28319 3.73815 0
5.89049 4.36413 0
6.28319 4.36413 0
5.49779 4.36413 0
5.89049 4.36413 0
5.49779 4.99006 0
5.89049 4.99006 0
5.89049 4.36413 0
6.28319 4.36413 0
5.89049 4.99006 0
6.28319 4.99006 0
0 4.99006 0
0.392699 4.99006 0
0 5.61594 0
0.392699 5.61594 0
0.392699 4.99006 0
0.785398 4.99006 0
0.392699 5.61594 0
0.785398 5.61594 0
0 5.61594 0
0.392699 5.61594 0
0 6.24177 0
0.392699 6.24177 0
0.392699 5.61594 0
0.785398 5.61594 0
0.392699 6.24177 0
0.785398 6.24177 0
0.785398 4.99006 0
1.1781 4.99006 0
0.785398 5.61594 0
1.1781 5.61594 0
1.1781 4.99006 0
1.5708 4.99006 0
1.1781 5.61594 0
1.5708 5.61594 0
0.785398 5.61594 0
1.1781 5.61594 0
0.785398 6.24177 0
1.1781 6.24177 0
1.1781 5.61594 0
1.5708 5.61594 0
1.1781 6.24177 0
1.5708 6.24177 0
0 6.24177 0
0.392699 6.24177 0
0 6.86756 0
0.392699 6.86756 0
0.392699 6.24177 0
0.785398 6.24177 0
0.392699 6.86756 0
0.785398 6.86756 0
0 6.86756 0
0.392699 6.86756 0
0 7.49335 0
0.392699 7.49335 0
0.392699 6.86756 0
0.785398 6.86756 0
0.392699 7.49335 0
0.785398 7.49335 0
0.785398 6.24177 0
1.1781 6.24177 0
0.785398 6.86756 0
1.1781 6.86756 0
1.1781 6.24177 0
1.5708 6.24177 0
[...]
POINT_DATA 5120
VECTORS velocity double
0 0 0
0 0 0
0 -0.0022167 0
-8.06125e-15 -0.0022167 0
0 0 0
0 0 0
-8.06125e-15 -0.0022167 0
-7.30244e-16 -0.0022167 0
0 -0.0022167 0
-8.06125e-15 -0.0022167 0
0 -0.00205566 0
-4.16017e-15 -0.00205566 0
-8.06125e-15 -0.0022167 0
-7.30244e-16 -0.0022167 0
-4.16017e-15 -0.00205566 0
9.40346e-16 -0.00205566 0
0 0 0
0 0 0
-7.30244e-16 -0.0022167 0
1.51156e-14 -0.0022167 0
0 0 0
0 0 0
1.51156e-14 -0.0022167 0
1.61079e-14 -0.0022167 0
-7.30244e-16 -0.0022167 0
1.51156e-14 -0.0022167 0
9.40346e-16 -0.00205566 0
-7.08167e-15 -0.00205566 0
1.51156e-14 -0.0022167 0
1.61079e-14 -0.0022167 0
-7.08167e-15 -0.00205566 0
-3.54084e-15 -0.00205566 0
0 -0.00205566 0
-4.16017e-15 -0.00205566 0
0 -0.00196838 0
-4.51735e-15 -0.00196838 0
-4.16017e-15 -0.00205566 0
9.40346e-16 -0.00205566 0
-4.51735e-15 -0.00196838 0
7.95276e-16 -0.00196838 0
0 -0.00196838 0
-4.51735e-15 -0.00196838 0
0 -0.0017974 0
1.53713e-15 -0.0017974 0
-4.51735e-15 -0.00196838 0
7.95276e-16 -0.00196838 0
1.53713e-15 -0.0017974 0
1.64363e-14 -0.0017974 0
9.40346e-16 -0.00205566 0
-7.08167e-15 -0.00205566 0
7.95276e-16 -0.00196838 0
2.69028e-15 -0.00196838 0
-7.08167e-15 -0.00205566 0
-3.54084e-15 -0.00205566 0
2.69028e-15 -0.00196838 0
8.53419e-16 -0.00196838 0
7.95276e-16 -0.00196838 0
2.69028e-15 -0.00196838 0
1.64363e-14 -0.0017974 0
1.13822e-14 -0.0017974 0
2.69028e-15 -0.00196838 0
8.53419e-16 -0.00196838 0
1.13822e-14 -0.0017974 0
-7.59862e-16 -0.0017974 0
0 0 0
0 0 0
1.61079e-14 -0.0022167 0
-3.9181e-15 -0.0022167 0
0 0 0
0 0 0
-3.9181e-15 -0.0022167 0
-7.19068e-15 -0.0022167 0
1.61079e-14 -0.0022167 0
-3.9181e-15 -0.0022167 0
-3.54084e-15 -0.00205566 0
4.78326e-15 -0.00205566 0
-3.9181e-15 -0.0022167 0
-7.19068e-15 -0.0022167 0
4.78326e-15 -0.00205566 0
7.41416e-15 -0.00205566 0
0 0 0
0 0 0
-7.19068e-15 -0.0022167 0
3.61852e-15 -0.0022167 0
0 0 0
0 0 0
3.61852e-15 -0.0022167 0
-7.85292e-15 -0.0022167 0
-7.19068e-15 -0.0022167 0
3.61852e-15 -0.0022167 0
7.41416e-15 -0.00205566 0
3.48892e-15 -0.00205566 0
3.61852e-15 -0.0022167 0
-7.85292e-15 -0.0022167 0
3.48892e-15 -0.00205566 0
3.48297e-15 -0.00205566 0
-3.54084e-15 -0.00205566 0
4.78326e-15 -0.00205566 0
8.53419e-16 -0.00196838 0
1.49042e-14 -0.00196838 0
4.78326e-15 -0.00205566 0
7.41416e-15 -0.00205566 0
1.49042e-14 -0.00196838 0
1.346e-14 -0.00196838 0
8.53419e-16 -0.00196838 0
1.49042e-14 -0.00196838 0
-7.59862e-16 -0.0017974 0
1.17704e-14 -0.0017974 0
1.49042e-14 -0.00196838 0
1.346e-14 -0.00196838 0
1.17704e-14 -0.0017974 0
-3.9525e-15 -0.0017974 0
7.41416e-15 -0.00205566 0
3.48892e-15 -0.00205566 0
1.346e-14 -0.00196838 0
5.9906e-16 -0.00196838 0
3.48892e-15 -0.00205566 0
3.48297e-15 -0.00205566 0
5.9906e-16 -0.00196838 0
6.20184e-15 -0.00196838 0
1.346e-14 -0.00196838 0
5.9906e-16 -0.00196838 0
-3.9525e-15 -0.0017974 0
1.9617e-15 -0.0017974 0
5.9906e-16 -0.00196838 0
6.20184e-15 -0.00196838 0
1.9617e-15 -0.0017974 0
8.99167e-15 -0.0017974 0
0 -0.0017974 0
1.53713e-15 -0.0017974 0
0 -0.00164921 0
-8.51849e-15 -0.00164921 0
1.53713e-15 -0.0017974 0
1.64363e-14 -0.0017974 0
-8.51849e-15 -0.00164921 0
5.35506e-15 -0.00164921 0
0 -0.00164921 0
-8.51849e-15 -0.00164921 0
0 -0.00149886 0
2.65605e-15 -0.00149886 0
-8.51849e-15 -0.00164921 0
5.35506e-15 -0.00164921 0
2.65605e-15 -0.00149886 0
1.62621e-14 -0.00149886 0
1.64363e-14 -0.0017974 0
1.13822e-14 -0.0017974 0
5.35506e-15 -0.00164921 0
5.95e-15 -0.00164921 0
1.13822e-14 -0.0017974 0
-7.59862e-16 -0.0017974 0
5.95e-15 -0.00164921 0
6.14796e-15 -0.00164921 0
5.35506e-15 -0.00164921 0
5.95e-15 -0.00164921 0
1.62621e-14 -0.00149886 0
-5.04668e-16 -0.00149886 0
5.95e-15 -0.00164921 0
6.14796e-15 -0.00164921 0
-5.04668e-16 -0.00149886 0
-1.84739e-15 -0.00149886 0
0 -0.00149886 0
2.65605e-15 -0.00149886 0
0 -0.00135528 0
-3.45343e-16 -0.00135528 0
2.65605e-15 -0.00149886 0
1.62621e-14 -0.00149886 0
-3.45343e-16 -0.00135528 0
-8.19885e-15 -0.00135528 0
0 -0.00135528 0
-3.45343e-16 -0.00135528 0
0 -0.0012169 0
-4.84473e-15 -0.0012169 0
-3.45343e-16 -0.00135528 0
-8.19885e-15 -0.00135528 0
-4.84473e-15 -0.0012169 0
5.98566e-17 -0.0012169 0
1.62621e-14 -0.00149886 0
-5.04668e-16 -0.00149886 0
-8.19885e-15 -0.00135528 0
1.04247e-15 -0.00135528 0
-5.04668e-16 -0.00149886 0
-1.84739e-15 -0.00149886 0
1.04247e-15 -0.00135528 0
5.53087e-15 -0.00135528 0
-8.19885e-15 -0.00135528 0
1.04247e-15 -0.00135528 0
5.98566e-17 -0.0012169 0
-9.50191e-15 -0.0012169 0
1.04247e-15 -0.00135528 0
5.53087e-15 -0.00135528 0
-9.50191e-15 -0.0012169 0
-1.28964e-14 -0.0012169 0
-7.59862e-16 -0.0017974 0
1.17704e-14 -0.0017974 0
6.14796e-15 -0.00164921 0
8.70106e-15 -0.00164921 0
1.17704e-14 -0.0017974 0
-3.9525e-15 -0.0017974 0
8.70106e-15 -0.00164921 0
1.05126e-14 -0.00164921 0
6.14796e-15 -0.00164921 0
8.70106e-15 -0.00164921 0
-1.84739e-15 -0.00149886 0
1.3367e-14 -0.00149886 0
8.70106e-15 -0.00164921 0
1.05126e-14 -0.00164921 0
1.3367e-14 -0.00149886 0
1.51277e-14 -0.00149886 0
-3.9525e-15 -0.0017974 0
1.9617e-15 -0.0017974 0
1.05126e-14 -0.00164921 0
5.72509e-15 -0.00164921 0
1.9617e-15 -0.0017974 0
8.99167e-15 -0.0017974 0
5.72509e-15 -0.00164921 0
3.44796e-15 -0.00164921 0
1.05126e-14 -0.00164921 0
5.72509e-15 -0.00164921 0
1.51277e-14 -0.00149886 0
2.28749e-15 -0.00149886 0
5.72509e-15 -0.00164921 0
3.44796e-15 -0.00164921 0
2.28749e-15 -0.00149886 0
1.36495e-14 -0.00149886 0
-1.84739e-15 -0.00149886 0
1.3367e-14 -0.00149886 0
5.53087e-15 -0.00135528 0
3.9739e-15 -0.00135528 0
1.3367e-14 -0.00149886 0
1.51277e-14 -0.00149886 0
3.9739e-15 -0.00135528 0
-3.76545e-15 -0.00135528 0
5.53087e-15 -0.00135528 0
3.9739e-15 -0.00135528 0
-1.28964e-14 -0.0012169 0
-6.36362e-16 -0.0012169 0
3.9739e-15 -0.00135528 0
-3.76545e-15 -0.00135528 0
-6.36362e-16 -0.0012169 0
-5.17887e-15 -0.0012169 0
1.51277e-14 -0.00149886 0
2.28749e-15 -0.00149886 0
-3.76545e-15 -0.00135528 0
-3.43391e-15 -0.00135528 0
2.28749e-15 -0.00149886 0
1.36495e-14 -0.00149886 0
-3.43391e-15 -0.00135528 0
1.52709e-14 -0.00135528 0
-3.76545e-15 -0.00135528 0
-3.43391e-15 -0.00135528 0
-5.17887e-15 -0.0012169 0
9.82442e-15 -0.0012169 0
-3.43391e-15 -0.00135528 0
1.52709e-14 -0.00135528 0
9.82442e-15 -0.0012169 0
3.9533e-16 -0.0012169 0
0 0 0
0 0 0
-7.85292e-15 -0.0022167 0
-1.098e-14 -0.0022167 0
0 0 0
0 0 0
-1.098e-14 -0.0022167 0
9.11405e-15 -0.0022167 0
-7.85292e-15 -0.0022167 0
-1.098e-14 -0.0022167 0
3.48297e-15 -0.00205566 0
1.29854e-14 -0.00205566 0
-1.098e-14 -0.0022167 0
9.11405e-15 -0.0022167 0
1.29854e-14 -0.00205566 0
5.29411e-15 -0.00205566 0
0 0 0
0 0 0
9.11405e-15 -0.0022167 0
1.0973e-14 -0.0022167 0
0 0 0
0 0 0
1.0973e-14 -0.0022167 0
-1.56625e-15 -0.0022167 0
9.11405e-15 -0.0022167 0
1.0973e-14 -0.0022167 0
5.29411e-15 -0.00205566 0
-8.44144e-15 -0.00205566 0
1.0973e-14 -0.0022167 0
-1.56625e-15 -0.0022167 0
-8.44144e-15 -0.00205566 0
-1.08503e-14 -0.00205566 0
3.48297e-15 -0.00205566 0
1.29854e-14 -0.00205566 0
6.20184e-15 -0.00196838 0
-6.71008e-15 -0.00196838 0
1.29854e-14 -0.00205566 0
5.29411e-15 -0.00205566 0
-6.71008e-15 -0.00196838 0
1.18441e-14 -0.00196838 0
6.20184e-15 -0.00196838 0
-6.71008e-15 -0.00196838 0
8.99167e-15 -0.0017974 0
-8.7076e-15 -0.0017974 0
-6.71008e-15 -0.00196838 0
1.18441e-14 -0.00196838 0
-8.7076e-15 -0.0017974 0
7.57856e-15 -0.0017974 0
5.29411e-15 -0.00205566 0
-8.44144e-15 -0.00205566 0
1.18441e-14 -0.00196838 0
1.71379e-14 -0.00196838 0
-8.44144e-15 -0.00205566 0
-1.08503e-14 -0.00205566 0
1.71379e-14 -0.00196838 0
-9.15499e-15 -0.00196838 0
1.18441e-14 -0.00196838 0
1.71379e-14 -0.00196838 0
7.57856e-15 -0.0017974 0
-8.6825e-15 -0.0017974 0
1.71379e-14 -0.00196838 0
-9.15499e-15 -0.00196838 0
-8.6825e-15 -0.0017974 0
9.3757e-15 -0.0017974 0
0 0 0
0 0 0
-1.56625e-15 -0.0022167 0
-7.62577e-17 -0.0022167 0
0 0 0
0 0 0
-7.62577e-17 -0.0022167 0
8.58496e-15 -0.0022167 0
-1.56625e-15 -0.0022167 0
-7.62577e-17 -0.0022167 0
-1.08503e-14 -0.00205566 0
7.69038e-15 -0.00205566 0
-7.62577e-17 -0.0022167 0
8.58496e-15 -0.0022167 0
7.69038e-15 -0.00205566 0
-1.24339e-14 -0.00205566 0
0 0 0
0 0 0
8.58496e-15 -0.0022167 0
1.6681e-15 -0.0022167 0
0 0 0
0 0 0
1.6681e-15 -0.0022167 0
7.32127e-15 -0.0022167 0
8.58496e-15 -0.0022167 0
1.6681e-15 -0.0022167 0
-1.24339e-14 -0.00205566 0
-1.03769e-15 -0.00205566 0
1.6681e-15 -0.0022167 0
7.32127e-15 -0.0022167 0
-1.03769e-15 -0.00205566 0
2.30394e-15 -0.00205566 0
-1.08503e-14 -0.00205566 0
7.69038e-15 -0.00205566 0
-9.15499e-15 -0.00196838 0
-2.85695e-15 -0.00196838 0
7.69038e-15 -0.00205566 0
-1.24339e-14 -0.00205566 0
-2.85695e-15 -0.00196838 0
-2.40183e-15 -0.00196838 0
-9.15499e-15 -0.00196838 0
-2.85695e-15 -0.00196838 0
9.3757e-15 -0.0017974 0
9.96087e-15 -0.0017974 0
-2.85695e-15 -0.00196838 0
-2.40183e-15 -0.00196838 0
9.96087e-15 -0.0017974 0
1.39318e-14 -0.0017974 0
-1.24339e-14 -0.00205566 0
-1.03769e-15 -0.00205566 0
-2.40183e-15 -0.00196838 0
-6.03243e-15 -0.00196838 0
-1.03769e-15 -0.00205566 0
2.30394e-15 -0.00205566 0
-6.03243e-15 -0.00196838 0
4.01551e-15 -0.00196838 0
-2.40183e-15 -0.00196838 0
-6.03243e-15 -0.00196838 0
1.39318e-14 -0.0017974 0
-2.34944e-15 -0.0017974 0
-6.03243e-15 -0.00196838 0
4.01551e-15 -0.00196838 0
-2.34944e-15 -0.0017974 0
-1.33853e-14 -0.0017974 0
8.99167e-15 -0.0017974 0
-8.7076e-15 -0.0017974 0
3.44796e-15 -0.00164921 0
1.72832e-14 -0.00164921 0
-8.7076e-15 -0.0017974 0
7.57856e-15 -0.0017974 0
1.72832e-14 -0.00164921 0
9.49863e-15 -0.00164921 0
3.44796e-15 -0.00164921 0
1.72832e-14 -0.00164921 0
1.36495e-14 -0.00149886 0
7.72437e-15 -0.00149886 0
1.72832e-14 -0.00164921 0
9.49863e-15 -0.00164921 0
7.72437e-15 -0.00149886 0
-5.60763e-16 -0.00149886 0
7.57856e-15 -0.0017974 0
-8.6825e-15 -0.0017974 0
9.49863e-15 -0.00164921 0
-1.8454e-16 -0.00164921 0
-8.6825e-15 -0.0017974 0
9.3757e-15 -0.0017974 0
-1.8454e-16 -0.00164921 0
1.24881e-14 -0.00164921 0
9.49863e-15 -0.00164921 0
-1.8454e-16 -0.00164921 0
-5.60763e-16 -0.00149886 0
1.4613e-14 -0.00149886 0
-1.8454e-16 -0.00164921 0
1.24881e-14 -0.00164921 0
1.4613e-14 -0.00149886 0
8.73198e-15 -0.00149886 0
1.36495e-14 -0.00149886 0
7.72437e-15 -0.00149886 0
1.52709e-14 -0.00135528 0
2.67188e-15 -0.00135528 0
7.72437e-15 -0.00149886 0
-5.60763e-16 -0.00149886 0
2.67188e-15 -0.00135528 0
3.07861e-15 -0.00135528 0
1.52709e-14 -0.00135528 0
2.67188e-15 -0.00135528 0
3.9533e-16 -0.0012169 0
-7.0663e-15 -0.0012169 0
2.67188e-15 -0.00135528 0
3.07861e-15 -0.00135528 0
-7.0663e-15 -0.0012169 0
8.28109e-15 -0.0012169 0
-5.60763e-16 -0.00149886 0
1.4613e-14 -0.00149886 0
3.07861e-15 -0.00135528 0
2.10523e-15 -0.00135528 0
1.4613e-14 -0.00149886 0
8.73198e-15 -0.00149886 0
2.10523e-15 -0.00135528 0
2.21194e-14 -0.00135528 0
3.07861e-15 -0.00135528 0
2.10523e-15 -0.00135528 0
8.28109e-15 -0.0012169 0
-2.18908e-15 -0.0012169 0
2.10523e-15 -0.00135528 0
2.21194e-14 -0.00135528 0
-2.18908e-15 -0.0012169 0
-2.50335e-15 -0.0012169 0
9.3757e-15 -0.0017974 0
9.96087e-15 -0.0017974 0
1.24881e-14 -0.00164921 0
3.57485e-15 -0.00164921 0
9.96087e-15 -0.0017974 0
1.39318e-14 -0.0017974 0
3.57485e-15 -0.00164921 0
1.99841e-15 -0.00164921 0
1.24881e-14 -0.00164921 0
3.57485e-15 -0.00164921 0
8.73198e-15 -0.00149886 0
6.39716e-15 -0.00149886 0
3.57485e-15 -0.00164921 0
1.99841e-15 -0.00164921 0
6.39716e-15 -0.00149886 0
1.57741e-14 -0.00149886 0
1.39318e-14 -0.0017974 0
-2.34944e-15 -0.0017974 0
1.99841e-15 -0.00164921 0
9.6669e-15 -0.00164921 0
-2.34944e-15 -0.0017974 0
-1.33853e-14 -0.0017974 0
9.6669e-15 -0.00164921 0
3.49148e-15 -0.00164921 0
1.99841e-15 -0.00164921 0
9.6669e-15 -0.00164921 0
1.57741e-14 -0.00149886 0
5.414e-15 -0.00149886 0
9.6669e-15 -0.00164921 0
3.49148e-15 -0.00164921 0
5.414e-15 -0.00149886 0
1.2154e-14 -0.00149886 0
8.73198e-15 -0.00149886 0
6.39716e-15 -0.00149886 0
2.21194e-14 -0.00135528 0
1.51093e-14 -0.00135528 0
6.39716e-15 -0.00149886 0
1.57741e-14 -0.00149886 0
1.51093e-14 -0.00135528 0
4.46164e-15 -0.00135528 0
2.21194e-14 -0.00135528 0
1.51093e-14 -0.00135528 0
-2.50335e-15 -0.0012169 0
-5.92215e-15 -0.0012169 0
1.51093e-14 -0.00135528 0
4.46164e-15 -0.00135528 0
-5.92215e-15 -0.0012169 0
-4.41303e-15 -0.0012169 0
1.57741e-14 -0.00149886 0
5.414e-15 -0.00149886 0
4.46164e-15 -0.00135528 0
1.65319e-14 -0.00135528 0
5.414e-15 -0.00149886 0
1.2154e-14 -0.00149886 0
1.65319e-14 -0.00135528 0
9.68051e-15 -0.00135528 0
4.46164e-15 -0.00135528 0
1.65319e-14 -0.00135528 0
-4.41303e-15 -0.0012169 0
1.13285e-14 -0.0012169 0
1.65319e-14 -0.00135528 0
9.68051e-15 -0.00135528 0
1.13285e-14 -0.0012169 0
-7.02188e-15 -0.0012169 0
0 -0.0012169 0
-4.84473e-15 -0.0012169 0
0 -0.00108513 0
-2.75427e-15 -0.00108513 0
-4.84473e-15 -0.0012169 0
5.98566e-17 -0.0012169 0
-2.75427e-15 -0.00108513 0
-8.39026e-15 -0.00108513 0
0 -0.00108513 0
-2.75427e-15 -0.00108513 0
0 -0.000959599 0
-5.07921e-15 -0.000959599 0
-2.75427e-15 -0.00108513 0
-8.39026e-15 -0.00108513 0
-5.07921e-15 -0.000959599 0
1.03348e-15 -0.000959599 0
5.98566e-17 -0.0012169 0
-9.50191e-15 -0.0012169 0
-8.39026e-15 -0.00108513 0
-2.29247e-15 -0.00108513 0
-9.50191e-15 -0.0012169 0
-1.28964e-14 -0.0012169 0
-2.29247e-15 -0.00108513 0
2.85652e-16 -0.00108513 0
-8.39026e-15 -0.00108513 0
-2.29247e-15 -0.00108513 0
1.03348e-15 -0.000959599 0
-6.66585e-15 -0.000959599 0
-2.29247e-15 -0.00108513 0
2.85652e-16 -0.00108513 0
-6.66585e-15 -0.000959599 0
-1.07833e-14 -0.000959599 0
0 -0.000959599 0
-5.07921e-15 -0.000959599 0
0 -0.000838254 0
8.28038e-16 -0.000838254 0
-5.07921e-15 -0.000959599 0
1.03348e-15 -0.000959599 0
8.28038e-16 -0.000838254 0
-4.5047e-15 -0.000838254 0
0 -0.000838254 0
8.28038e-16 -0.000838254 0
0 -0.000716153 0
-4.56907e-15 -0.000716153 0
8.28038e-16 -0.000838254 0
-4.5047e-15 -0.000838254 0
-4.56907e-15 -0.000716153 0
-8.87265e-15 -0.000716153 0
1.03348e-15 -0.000959599 0
-6.66585e-15 -0.000959599 0
-4.5047e-15 -0.000838254 0
-3.02844e-15 -0.000838254 0
-6.66585e-15 -0.000959599 0
-1.07833e-14 -0.000959599 0
-3.02844e-15 -0.000838254 0
2.92982e-15 -0.000838254 0
-4.5047e-15 -0.000838254 0
-3.02844e-15 -0.000838254 0
-8.87265e-15 -0.000716153 0
-7.30886e-15 -0.000716153 0
-3.02844e-15 -0.000838254 0
2.92982e-15 -0.000838254 0
-7.30886e-15 -0.000716153 0
1.7615e-15 -0.000716153 0
-1.28964e-14 -0.0012169 0
-6.36362e-16 -0.0012169 0
2.85652e-16 -0.00108513 0
-8.08626e-15 -0.00108513 0
-6.36362e-16 -0.0012169 0
-5.17887e-15 -0.0012169 0
-8.08626e-15 -0.00108513 0
-5.08989e-15 -0.00108513 0
2.85652e-16 -0.00108513 0
-8.08626e-15 -0.00108513 0
-1.07833e-14 -0.000959599 0
-8.27761e-15 -0.000959599 0
-8.08626e-15 -0.00108513 0
-5.08989e-15 -0.00108513 0
-8.27761e-15 -0.000959599 0
-7.684e-15 -0.000959599 0
-5.17887e-15 -0.0012169 0
9.82442e-15 -0.0012169 0
-5.08989e-15 -0.00108513 0
-1.77975e-15 -0.00108513 0
9.82442e-15 -0.0012169 0
3.9533e-16 -0.0012169 0
-1.77975e-15 -0.00108513 0
-1.08571e-14 -0.00108513 0
-5.08989e-15 -0.00108513 0
-1.77975e-15 -0.00108513 0
-7.684e-15 -0.000959599 0
-8.16234e-15 -0.000959599 0
-1.77975e-15 -0.00108513 0
-1.08571e-14 -0.00108513 0
-8.16234e-15 -0.000959599 0
-2.80044e-15 -0.000959599 0
-1.07833e-14 -0.000959599 0
-8.27761e-15 -0.000959599 0
2.92982e-15 -0.000838254 0
7.65109e-15 -0.000838254 0
-8.27761e-15 -0.000959599 0
-7.684e-15 -0.000959599 0
7.65109e-15 -0.000838254 0
-5.72949e-15 -0.000838254 0
2.92982e-15 -0.000838254 0
7.65109e-15 -0.000838254 0
1.7615e-15 -0.000716153 0
3.42837e-15 -0.000716153 0
7.65109e-15 -0.000838254 0
-5.72949e-15 -0.000838254 0
3.42837e-15 -0.000716153 0
-8.24791e-16 -0.000716153 0
-7.684e-15 -0.000959599 0
-8.16234e-15 -0.000959599 0
-5.72949e-15 -0.000838254 0
-3.61283e-15 -0.000838254 0
-8.16234e-15 -0.000959599 0
-2.80044e-15 -0.000959599 0
-3.61283e-15 -0.000838254 0
-3.61442e-15 -0.000838254 0
-5.72949e-15 -0.000838254 0
-3.61283e-15 -0.000838254 0
-8.24791e-16 -0.000716153 0
-5.97729e-16 -0.000716153 0
-3.61283e-15 -0.000838254 0
-3.61442e-15 -0.000838254 0
-5.97729e-16 -0.000716153 0
-5.34587e-15 -0.000716153 0
0 -0.000716153 0
-4.56907e-15 -0.000716153 0
0 -0.000582213 0
-2.59428e-15 -0.000582213 0
-4.56907e-15 -0.000716153 0
-8.87265e-15 -0.000716153 0
-2.59428e-15 -0.000582213 0
3.60568e-15 -0.000582213 0
0 -0.000582213 0
-2.59428e-15 -0.000582213 0
0 -0.000428077 0
-4.60213e-15 -0.000428077 0
-2.59428e-15 -0.000582213 0
3.60568e-15 -0.000582213 0
-4.60213e-15 -0.000428077 0
4.32343e-15 -0.000428077 0
-8.87265e-15 -0.000716153 0
-7.30886e-15 -0.000716153 0
3.60568e-15 -0.000582213 0
-1.07123e-14 -0.000582213 0
-7.30886e-15 -0.000716153 0
1.7615e-15 -0.000716153 0
-1.07123e-14 -0.000582213 0
-1.01706e-14 -0.000582213 0
3.60568e-15 -0.000582213 0
-1.07123e-14 -0.000582213 0
4.32343e-15 -0.000428077 0
-5.9391e-17 -0.000428077 0
-1.07123e-14 -0.000582213 0
-1.01706e-14 -0.000582213 0
-5.9391e-17 -0.000428077 0
-2.16156e-15 -0.000428077 0
0 -0.000428077 0
-4.60213e-15 -0.000428077 0
0 -0.00024904 0
-1.298e-15 -0.00024904 0
-4.60213e-15 -0.000428077 0
4.32343e-15 -0.000428077 0
-1.298e-15 -0.00024904 0
-2.74814e-15 -0.00024904 0
0 -0.00024904 0
-1.298e-15 -0.00024904 0
0 -0.000135669 0
2.23167e-16 -0.000135669 0
-1.298e-15 -0.00024904 0
-2.74814e-15 -0.00024904 0
2.23167e-16 -0.000135669 0
-8.5923e-16 -0.000135669 0
4.32343e-15 -0.000428077 0
-5.9391e-17 -0.000428077 0
-2.74814e-15 -0.00024904 0
-8.77382e-16 -0.00024904 0
-5.9391e-17 -0.000428077 0
-2.16156e-15 -0.000428077 0
-8.77382e-16 -0.00024904 0
-2.59332e-15 -0.00024904 0
-2.74814e-15 -0.00024904 0
-8.77382e-16 -0.00024904 0
-8.5923e-16 -0.000135669 0
2.66122e-15 -0.000135669 0
-8.77382e-16 -0.00024904 0
-2.59332e-15 -0.00024904 0
2.66122e-15 -0.000135669 0
2.12764e-15 -0.000135669 0
1.7615e-15 -0.000716153 0
3.42837e-15 -0.000716153 0
-1.01706e-14 -0.000582213 0
-8.71995e-15 -0.000582213 0
3.42837e-15 -0.000716153 0
-8.24791e-16 -0.000716153 0
-8.71995e-15 -0.000582213 0
2.88325e-15 -0.000582213 0
-1.01706e-14 -0.000582213 0
-8.71995e-15 -0.000582213 0
-2.16156e-15 -0.000428077 0
-2.58765e-15 -0.000428077 0
-8.71995e-15 -0.000582213 0
2.88325e-15 -0.000582213 0
-2.58765e-15 -0.000428077 0
-4.92828e-15 -0.000428077 0
-8.24791e-16 -0.000716153 0
-5.97729e-16 -0.000716153 0
2.88325e-15 -0.000582213 0
-5.28584e-15 -0.000582213 0
-5.97729e-16 -0.000716153 0
-5.34587e-15 -0.000716153 0
-5.28584e-15 -0.000582213 0
-2.45328e-15 -0.000582213 0
2.88325e-15 -0.000582213 0
-5.28584e-15 -0.000582213 0
-4.92828e-15 -0.000428077 0
-1.20223e-14 -0.000428077 0
-5.28584e-15 -0.000582213 0
-2.45328e-15 -0.000582213 0
-1.20223e-14 -0.000428077 0
-8.89417e-15 -0.000428077 0
-2.16156e-15 -0.000428077 0
-2.58765e-15 -0.000428077 0
-2.59332e-15 -0.00024904 0
-2.48377e-15 -0.00024904 0
-2.58765e-15 -0.000428077 0
-4.92828e-15 -0.000428077 0
-2.48377e-15 -0.00024904 0
-9.01499e-16 -0.00024904 0
-2.59332e-15 -0.00024904 0
-2.48377e-15 -0.00024904 0
2.12764e-15 -0.000135669 0
-2.28899e-15 -0.000135669 0
-2.48377e-15 -0.00024904 0
-9.01499e-16 -0.00024904 0
-2.28899e-15 -0.000135669 0
-1.00263e-15 -0.000135669 0
-4.92828e-15 -0.000428077 0
-1.20223e-14 -0.000428077 0
-9.01499e-16 -0.00024904 0
-7.19503e-15 -0.00024904 0
-1.20223e-14 -0.000428077 0
-8.89417e-15 -0.000428077 0
-7.19503e-15 -0.00024904 0
-6.31345e-15 -0.00024904 0
-9.01499e-16 -0.00024904 0
-7.19503e-15 -0.00024904 0
-1.00263e-15 -0.000135669 0
-1.4605e-15 -0.000135669 0
-7.19503e-15 -0.00024904 0
-6.31345e-15 -0.00024904 0
-1.4605e-15 -0.000135669 0
-2.78264e-15 -0.000135669 0
3.9533e-16 -0.0012169 0
-7.0663e-15 -0.0012169 0
-1.08571e-14 -0.00108513 0
4.19399e-15 -0.00108513 0
-7.0663e-15 -0.0012169 0
8.28109e-15 -0.0012169 0
4.19399e-15 -0.00108513 0
-5.67708e-15 -0.00108513 0
-1.08571e-14 -0.00108513 0
4.19399e-15 -0.00108513 0
-2.80044e-15 -0.000959599 0
-4.71712e-15 -0.000959599 0
4.19399e-15 -0.00108513 0
-5.67708e-15 -0.00108513 0
-4.71712e-15 -0.000959599 0
-4.23788e-15 -0.000959599 0
8.28109e-15 -0.0012169 0
-2.18908e-15 -0.0012169 0
-5.67708e-15 -0.00108513 0
-4.52609e-15 -0.00108513 0
-2.18908e-15 -0.0012169 0
-2.50335e-15 -0.0012169 0
-4.52609e-15 -0.00108513 0
4.55105e-15 -0.00108513 0
-5.67708e-15 -0.00108513 0
-4.52609e-15 -0.00108513 0
-4.23788e-15 -0.000959599 0