# vtk DataFile Version 3.0
#This file was generated by the deal.II library on 2018/10/11 at 23:49:26
ASCII
DATASET UNSTRUCTURED_GRID

POINTS 5120 double
0 0 0
0.392699 0 0
0 0.619791 0
0.392699 0.619791 0
0.392699 0 0
0.785398 0 0
0.392699 0.619791 0
0.785398 0.619791 0
0 0.619791 0
0.392699 0.619791 0
0 1.24516 0
0.392699 1.24516 0
0.392699 0.619791 0
0.785398 0.619791 0
0.392699 1.24516 0
0.785398 1.24516 0
0.785398 0 0
1.1781 0 0
0.785398 0.619791 0
1.1781 0.619791 0
1.1781 0 0
1.5708 0 0
1.1781 0.619791 0
1.5708 0.619791 0
0.785398 0.619791 0
1.1781 0.619791 0
0.785398 1.24516 0
1.1781 1.24516 0
1.1781 0.619791 0
1.5708 0.619791 0
1.1781 1.24516 0
1.5708 1.24516 0
0 1.24516 0
0.392699 1.24516 0
0 1.87029 0
0.392699 1.87029 0
0.392699 1.24516 0
0.785398 1.24516 0
0.392699 1.87029 0
0.785398 1.87029 0
0 1.87029 0
0.392699 1.87029 0
0 2.4956 0
0.392699 2.4956 0
0.392699 1.87029 0
0.785398 1.87029 0
0.392699 2.4956 0
0.785398 2.4956 0
0.785398 1.24516 0
1.1781 1.24516 0
0.785398 1.87029 0
1.1781 1.87029 0
1.1781 1.24516 0
1.5708 1.24516 0
1.1781 1.87029 0
1.5708 1.87029 0
0.785398 1.87029 0
1.1781 1.87029 0
0.785398 2.4956 0
1.1781 2.4956 0
1.1781 1.87029 0
1.5708 1.87029 0
1.1781 2.4956 0
1.5708 2.4956 0
1.5708 0 0
1.9635 0 0
1.5708 0.619791 0
1.9635 0.619791 0
1.9635 0 0
2.35619 0 0
1.9635 0.619791 0
2.35619 0.619791 0
1.5708 0.619791 0
1.9635 0.619791 0
1.5708 1.24516 0
1.9635 1.24516 0
1.9635 0.619791 0
2.35619 0.619791 0
1.9635 1.24516 0
2.35619 1.24516 0
2.35619 0 0
2.74889 0 0
2.35619 0.619791 0
2.74889 0.619791 0
2.74889 0 0
3.14159 0 0
2.74889 0.619791 0
3.14159 0.619791 0
2.35619 0.619791 0
2.74889 0.619791 0
2.35619 1.24516 0
2.74889 1.24516 0
2.74889 0.619791 0
3.14159 0.619791 0
2.74889 1.24516 0
3.14159 1.24516 0
1.5708 1.24516 0
1.9635 1.24516 0
1.5708 1.87029 0
1.9635 1.87029 0
1.9635 1.24516 0
2.35619 1.24516 0
1.9635 1.87029 0
2.35619 1.87029 0
1.5708 1.87029 0
1.9635 1.87029 0
1.5708 2.4956 0
1.9635 2.4956 0
1.9635 1.87029 0
2.35619 1.87029 0
1.9635 2.4956 0
2.35619 2.4956 0
2.35619 1.24516 0
2.74889 1.24516 0
2.35619 1.87029 0
2.74889 1.87029 0
2.74889 1.24516 0
3.14159 1.24516 0
2.74889 1.87029 0
3.14159 1.87029 0
2.35619 1.87029 0
2.74889 1.87029 0
2.35619 2.4956 0
2.74889 2.4956 0
2.74889 1.87029 0
3.14159 1.87029 0
2.74889 2.4956 0
3.14159 2.4956 0
0 2.4956 0
0.392699 2.4956 0
0 3.12085 0
0.392699 3.12085 0
0.392699 2.4956 0
0.785398 2.4956 0
0.392699 3.12085 0
0.785398 3.12085 0
0 3.12085 0
0.392699 3.12085 0
0 3.74611 0
0.392699 3.74611 0
0.392699 3.12085 0
0.785398 3.12085 0
0.392699 3.74611 0
0.785398 3.74611 0
0.785398 2.4956 0
1.1781 2.4956 0
0.785398 3.12085 0
1.1781 3.12085 0
1.1781 2.4956 0
1.5708 2.4956 0
1.1781 3.12085 0
1.5708 3.12085 0
0.785398 3.12085 0
1.1781 3.12085 0
0.785398 3.74611 0
1.1781 3.74611 0
1.1781 3.12085 0
1.5708 3.12085 0
1.1781 3.74611 0
1.5708 3.74611 0
0 3.74611 0
0.392699 3.74611 0
0 4.37135 0
0.392699 4.37135 0
0.392699 3.74611 0
0.785398 3.74611 0
0.392699 4.37135 0
0.785398 4.37135 0
0 4.37135 0
0.392699 4.37135 0
0 4.99658 0
0.392699 4.99658 0
0.392699 4.37135 0
0.785398 4.37135 0
0.392699 4.99658 0
0.785398 4.99658 0
0.785398 3.74611 0
1.1781 3.74611 0
0.785398 4.37135 0
1.1781 4.37135 0
1.1781 3.74611 0
1.5708 3.74611 0
1.1781 4.37135 0
1.5708 4.37135 0
0.785398 4.37135 0
1.1781 4.37135 0
0.785398 4.99658 0
1.1781 4.99658 0
1.1781 4.37135 0
1.5708 4.37135 0
1.1781 4.99658 0
1.5708 4.99658 0
1.5708 2.4956 0
1.9635 2.4956 0
1.5708 3.12085 0
1.9635 3.12085 0
1.9635 2.4956 0
2.35619 2.4956 0
1.9635 3.12085 0
2.35619 3.12085 0
1.5708 3.12085 0
1.9635 3.12085 0
1.5708 3.74611 0
1.9635 3.74611 0
1.9635 3.12085 0
2.35619 3.12085 0
1.9635 3.74611 0
2.35619 3.74611 0
2.35619 2.4956 0
2.74889 2.4956 0
2.35619 3.12085 0
2.74889 3.12085 0
2.74889 2.4956 0
3.14159 2.4956 0
2.74889 3.12085 0
3.14159 3.12085 0
2.35619 3.12085 0
2.74889 3.12085 0
2.35619 3.74611 0
2.74889 3.74611 0
2.74889 3.12085 0
3.14159 3.12085 0
2.74889 3.74611 0
3.14159 3.74611 0
1.5708 3.74611 0
1.9635 3.74611 0
1.5708 4.37135 0
1.9635 4.37135 0
1.9635 3.74611 0
2.35619 3.74611 0
1.9635 4.37135 0
2.35619 4.37135 0
1.5708 4.37135 0
1.9635 4.37135 0
1.5708 4.99658 0
1.9635 4.99658 0
1.9635 4.37135 0
2.35619 4.37135 0
1.9635 4.99658 0
2.35619 4.99658 0
2.35619 3.74611 0
2.74889 3.74611 0
2.35619 4.37135 0
2.74889 4.37135 0
2.74889 3.74611 0
3.14159 3.74611 0
2.74889 4.37135 0
3.14159 4.37135 0
2.35619 4.37135 0
2.74889 4.37135 0
2.35619 4.99658 0
2.74889 4.99658 0
2.74889 4.37135 0
3.14159 4.37135 0
2.74889 4.99658 0
3.14159 4.99658 0
3.14159 0 0
3.53429 0 0
3.14159 0.619791 0
3.53429 0.619791 0
3.53429 0 0
3.92699 0 0
3.53429 0.619791 0
3.92699 0.619791 0
3.14159 0.619791 0
3.53429 0.619791 0
3.14159 1.24516 0
3.53429 1.24516 0
3.53429 0.619791 0
3.92699 0.619791 0
3.53429 1.24516 0
3.92699 1.24516 0
3.92699 0 0
4.31969 0 0
3.92699 0.619791 0
4.31969 0.619791 0
4.31969 0 0
4.71239 0 0
4.31969 0.619791 0
4.71239 0.619791 0
3.92699 0.619791 0
4.31969 0.619791 0
3.92699 1.24516 0
4.31969 1.24516 0
4.31969 0.619791 0
4.71239 0.619791 0
4.31969 1.24516 0
4.71239 1.24516 0
3.14159 1.24516 0
3.53429 1.24516 0
3.14159 1.87029 0
3.53429 1.87029 0
3.53429 1.24516 0
3.92699 1.24516 0
3.53429 1.87029 0
3.92699 1.87029 0
3.14159 1.87029 0
3.53429 1.87029 0
3.14159 2.4956 0
3.53429 2.4956 0
3.53429 1.87029 0
3.92699 1.87029 0
3.53429 2.4956 0
3.92699 2.4956 0
3.92699 1.24516 0
4.31969 1.24516 0
3.92699 1.87029 0
4.31969 1.87029 0
4.31969 1.24516 0
4.71239 1.24516 0
4.31969 1.87029 0
4.71239 1.87029 0
3.92699 1.87029 0
4.31969 1.87029 0
3.92699 2.4956 0
4.31969 2.4956 0
4.31969 1.87029 0
4.71239 1.87029 0
4.31969 2.4956 0
4.71239 2.4956 0
4.71239 0 0
5.10509 0 0
4.71239 0.619791 0
5.10509 0.619791 0
5.10509 0 0
5.49779 0 0
5.10509 0.619791 0
5.49779 0.619791 0
4.71239 0.619791 0
5.10509 0.619791 0
4.71239 1.24516 0
5.10509 1.24516 0
5.10509 0.619791 0
5.49779 0.619791 0
5.10509 1.24516 0
5.49779 1.24516 0
5.49779 0 0
5.89049 0 0
5.49779 0.619791 0
5.89049 0.619791 0
5.89049 0 0
6.28319 0 0
5.89049 0.619791 0
6.28319 0.619791 0
5.49779 0.619791 0
5.89049 0.619791 0
5.49779 1.24516 0
5.89049 1.24516 0
5.89049 0.619791 0
6.28319 0.619791 0
5.89049 1.24516 0
6.28319 1.24516 0
4.71239 1.24516 0
5.10509 1.24516 0
4.71239 1.87029 0
5.10509 1.87029 0
5.10509 1.24516 0
5.49779 1.24516 0
5.10509 1.87029 0
5.49779 1.87029 0
4.71239 1.87029 0
5.10509 1.87029 0
4.71239 2.4956 0
5.10509 2.4956 0
5.10509 1.87029 0
5.49779 1.87029 0
5.10509 2.4956 0
5.49779 2.4956 0
5.49779 1.24516 0
5.89049 1.24516 0
5.49779 1.87029 0
5.89049 1.87029 0
5.89049 1.24516 0
6.28319 1.24516 0
5.89049 1.87029 0
6.28319 1.87029 0
5.49779 1.87029 0
5.89049 1.87029 0
5.49779 2.4956 0
5.89049 2.4956 0
5.89049 1.87029 0
6.28319 1.87029 0
5.89049 2.4956 0
6.28319 2.4956 0
3.14159 2.4956 0
3.53429 2.4956 0
3.14159 3.12085 0
3.53429 3.12085 0
3.53429 2.4956 0
3.92699 2.4956 0
3.53429 3.12085 0
3.92699 3.12085 0
3.14159 3.12085 0
3.53429 3.12085 0
3.14159 3.74611 0
3.53429 3.74611 0
3.53429 3.12085 0
3.92699 3.12085 0
3.53429 3.74611 0
3.92699 3.74611 0
3.92699 2.4956 0
4.31969 2.4956 0
3.92699 3.12085 0
4.31969 3.12085 0
4.31969 2.4956 0
4.71239 2.4956 0
4.31969 3.12085 0
4.71239 3.12085 0
3.92699 3.12085 0
4.31969 3.12085 0
3.92699 3.74611 0
4.31969 3.74611 0
4.31969 3.12085 0
4.71239 3.12085 0
4.31969 3.74611 0
4.71239 3.74611 0
3.14159 3.74611 0
3.53429 3.74611 0
3.14159 4.37135 0
3.53429 4.37135 0
3.53429 3.74611 0
3.92699 3.74611 0
3.53429 4.37135 0
3.92699 4.37135 0
3.14159 4.37135 0
3.53429 4.37135 0
3.14159 4.99658 0
3.53429 4.99658 0
3.53429 4.37135 0
3.92699 4.37135 0
3.53429 4.99658 0
3.92699 4.99658 0
3.92699 3.74611 0
4.31969 3.74611 0
3.92699 4.37135 0
4.31969 4.37135 0
4.31969 3.74611 0
4.71239 3.74611 0
4.31969 4.37135 0
4.71239 4.37135 0
3.92699 4.37135 0
4.31969 4.37135 0
3.92699 4.99658 0
4.31969 4.99658 0
4.31969 4.37135 0
4.71239 4.37135 0
4.31969 4.99658 0
4.71239 4.99658 0
4.71239 2.4956 0
5.10509 2.4956 0
4.71239 3.12085 0
5.10509 3.12085 0
5.10509 2.4956 0
5.49779 2.4956 0
5.10509 3.12085 0
5.49779 3.12085 0
4.71239 3.12085 0
5.10509 3.12085 0
4.71239 3.74611 0
5.10509 3.74611 0
5.10509 3.12085 0
5.49779 3.12085 0
5.10509 3.74611 0
5.49779 3.74611 0
5.49779 2.4956 0
5.89049 2.4956 0
5.49779 3.12085 0
5.89049 3.12085 0
5.89049 2.4956 0
6.28319 2.4956 0
5.89049 3.12085 0
6.28319 3.12085 0
5.49779 3.12085 0
5.89049 3.12085 0
5.49779 3.74611 0
5.89049 3.74611 0
5.89049 3.12085 0
6.28319 3.12085 0
5.89049 3.74611 0
6.28319 3.74611 0
4.71239 3.74611 0
5.10509 3.74611 0
4.71239 4.37135 0
5.10509 4.37135 0
5.10509 3.74611 0
5.49779 3.74611 0
5.10509 4.37135 0
5.49779 4.37135 0
4.71239 4.37135 0
5.10509 4.37135 0
4.71239 4.99658 0
5.10509 4.99658 0
5.10509 4.37135 0
5.49779 4.37135 0
5.10509 4.99658 0
5.49779 4.99658 0
5.49779 3.74611 0
5.89049 3.74611 0
5.49779 4.37135 0
5.89049 4.37135 0
5.89049 3.74611 0
6.28319 3.74611 0
5.89049 4.37135 0
6.28319 4.37135 0
5.49779 4.37135 0
5.89049 4.37135 0
5.49779 4.99658 0
5.89049 4.99658 0
5.89049 4.37135 0
6.28319 4.37135 0
5.89049 4.99658 0
6.28319 4.99658 0
0 4.99658 0
0.392699 4.99658 0
0 5.62178 0
0.392699 5.62178 0
0.392699 4.99658 0
0.785398 4.99658 0
0.392699 5.62178 0
0.785398 5.62178 0
0 5.62178 0
0.392699 5.62178 0
0 6.24697 0
0.392699 6.24697 0
0.392699 5.62178 0
0.785398 5.62178 0
0.392699 6.24697 0
0.785398 6.24697 0
0.785398 4.99658 0
1.1781 4.99658 0
0.785398 5.62178 0
1.1781 5.62178 0
1.1781 4.99658 0
1.5708 4.99658 0
1.1781 5.62178 0
1.5708 5.62178 0
0.785398 5.62178 0
1.1781 5.62178 0
0.785398 6.24697 0
1.1781 6.24697 0
1.1781 5.62178 0
1.5708 5.62178 0
1.1781 6.24697 0
1.5708 6.24697 0
0 6.24697 0
0.392699 6.24697 0
0 6.87214 0
0.392699 6.87214 0
0.392699 6.24697 0
0.785398 6.24697 0
0.392699 6.87214 0
0.785398 6.87214 0
0 6.87214 0
0.392699 6.87214 0
0 7.49731 0
0.392699 7.49731 0
0.392699 6.87214 0
0.785398 6.87214 0
0.392699 7.49731 0
0.785398 7.49731 0
0.785398 6.24697 0
1.1781 6.24697 0
0.785398 6.87214 0
1.1781 6.87214 0
1.1781 6.24697 0
1.5708 6.24697 0
[...]
POINT_DATA 5120
VECTORS uf double
0 1 0
-1.37419e-14 1 0
0 1.0019 0
-5.55583e-15 1.0019 0
-1.37419e-14 1 0
-9.09849e-15 1 0
-5.55583e-15 1.0019 0
2.01869e-14 1.0019 0
0 1.0019 0
4.02084e-16 1.0019 0
0 1.00289 0
1.02502e-14 1.00289 0
4.02084e-16 1.0019 0
-1.34419e-14 1.0019 0
1.02502e-14 1.00289 0
5.52669e-15 1.00289 0
-9.09849e-15 1 0
1.59266e-15 1 0
2.01869e-14 1.0019 0
3.08203e-14 1.0019 0
1.59266e-15 1 0
-1.47681e-14 1 0
3.08203e-14 1.0019 0
2.25863e-14 1.0019 0
-1.34419e-14 1.0019 0
-3.04973e-14 1.0019 0
5.52669e-15 1.00289 0
3.13399e-15 1.00289 0
-3.04973e-14 1.0019 0
-1.59753e-14 1.0019 0
3.13399e-15 1.00289 0
8.73954e-15 1.00289 0
0 1.00289 0
-3.06979e-15 1.00289 0
0 1.00409 0
9.69305e-15 1.00409 0
-3.06979e-15 1.00289 0
-8.06657e-15 1.00289 0
9.69305e-15 1.00409 0
-3.19272e-15 1.00409 0
0 1.00409 0
-3.86624e-15 1.00409 0
0 1.00521 0
-2.91111e-15 1.00521 0
-3.86624e-15 1.00409 0
3.42212e-15 1.00409 0
-2.91111e-15 1.00521 0
1.75519e-14 1.00521 0
-8.06657e-15 1.00289 0
-1.53047e-14 1.00289 0
-3.19272e-15 1.00409 0
1.25135e-14 1.00409 0
-1.53047e-14 1.00289 0
-9.47396e-15 1.00289 0
1.25135e-14 1.00409 0
1.4102e-14 1.00409 0
3.42212e-15 1.00409 0
-5.7864e-15 1.00409 0
1.75519e-14 1.00521 0
4.93759e-15 1.00521 0
-5.7864e-15 1.00409 0
-1.42886e-14 1.00409 0
4.93759e-15 1.00521 0
1.62314e-16 1.00521 0
-1.47681e-14 1 0
-1.20137e-14 1 0
2.25863e-14 1.0019 0
1.48494e-14 1.0019 0
-1.20137e-14 1 0
-1.67071e-14 1 0
1.48494e-14 1.0019 0
1.73875e-14 1.0019 0
-1.59753e-14 1.0019 0
-1.23315e-14 1.0019 0
8.73954e-15 1.00289 0
8.65929e-15 1.00289 0
-1.23315e-14 1.0019 0
-1.43916e-14 1.0019 0
8.65929e-15 1.00289 0
1.39235e-14 1.00289 0
-1.67071e-14 1 0
-9.14852e-15 1 0
1.73875e-14 1.0019 0
1.31229e-14 1.0019 0
-9.14852e-15 1 0
-5.04055e-15 1 0
1.31229e-14 1.0019 0
7.21304e-15 1.0019 0
-1.43916e-14 1.0019 0
-1.60273e-14 1.0019 0
1.39235e-14 1.00289 0
1.49581e-14 1.00289 0
-1.60273e-14 1.0019 0
-1.09711e-14 1.0019 0
1.49581e-14 1.00289 0
1.30962e-14 1.00289 0
-9.47396e-15 1.00289 0
-1.74993e-15 1.00289 0
1.4102e-14 1.00409 0
1.14172e-14 1.00409 0
-1.74993e-15 1.00289 0
-2.66322e-15 1.00289 0
1.14172e-14 1.00409 0
8.93678e-15 1.00409 0
-1.42886e-14 1.00409 0
-1.30983e-14 1.00409 0
1.62314e-16 1.00521 0
4.74527e-15 1.00521 0
-1.30983e-14 1.00409 0
-7.4842e-15 1.00409 0
4.74527e-15 1.00521 0
8.48294e-15 1.00521 0
-2.66322e-15 1.00289 0
-1.11293e-14 1.00289 0
8.93678e-15 1.00409 0
1.72089e-14 1.00409 0
-1.11293e-14 1.00289 0
-1.11231e-14 1.00289 0
1.72089e-14 1.00409 0
1.62172e-14 1.00409 0
-7.4842e-15 1.00409 0
-1.00758e-14 1.00409 0
8.48294e-15 1.00521 0
8.02925e-15 1.00521 0
-1.00758e-14 1.00409 0
-7.22958e-15 1.00409 0
8.02925e-15 1.00521 0
7.03776e-15 1.00521 0
0 1.00521 0
6.92445e-15 1.00521 0
0 1.00633 0
6.16734e-16 1.00633 0
6.92445e-15 1.00521 0
-1.48989e-14 1.00521 0
6.16734e-16 1.00633 0
-1.30411e-14 1.00633 0
0 1.00633 0
-1.75214e-15 1.00633 0
0 1.00743 0
-4.15907e-15 1.00743 0
-1.75214e-15 1.00633 0
1.41367e-14 1.00633 0
-4.15907e-15 1.00743 0
3.03889e-14 1.00743 0
-1.48989e-14 1.00521 0
-1.57584e-14 1.00521 0
-1.30411e-14 1.00633 0
1.60561e-14 1.00633 0
-1.57584e-14 1.00521 0
9.54755e-15 1.00521 0
1.60561e-14 1.00633 0
4.8975e-15 1.00633 0
1.41367e-14 1.00633 0
-1.23678e-14 1.00633 0
3.03889e-14 1.00743 0
2.01007e-14 1.00743 0
-1.23678e-14 1.00633 0
-1.92045e-14 1.00633 0
2.01007e-14 1.00743 0
-5.11546e-15 1.00743 0
0 1.00743 0
9.92664e-15 1.00743 0
0 1.00852 0
3.40026e-15 1.00852 0
9.92664e-15 1.00743 0
-2.96005e-14 1.00743 0
3.40026e-15 1.00852 0
-1.96512e-14 1.00852 0
0 1.00852 0
-9.7415e-16 1.00852 0
0 1.0096 0
5.79576e-16 1.0096 0
-9.7415e-16 1.00852 0
1.24626e-14 1.00852 0
5.79576e-16 1.0096 0
3.06665e-14 1.0096 0
-2.96005e-14 1.00743 0
-1.30709e-14 1.00743 0
-1.96512e-14 1.00852 0
-3.02461e-15 1.00852 0
-1.30709e-14 1.00743 0
8.92885e-15 1.00743 0
-3.02461e-15 1.00852 0
2.37868e-14 1.00852 0
1.24626e-14 1.00852 0
4.74488e-15 1.00852 0
3.06665e-14 1.0096 0
9.6193e-15 1.0096 0
4.74488e-15 1.00852 0
-1.22126e-14 1.00852 0
9.6193e-15 1.0096 0
-4.14744e-15 1.0096 0
9.54755e-15 1.00521 0
-1.06045e-14 1.00521 0
4.8975e-15 1.00633 0
1.33333e-14 1.00633 0
-1.06045e-14 1.00521 0
-1.3755e-14 1.00521 0
1.33333e-14 1.00633 0
1.56534e-14 1.00633 0
-1.92045e-14 1.00633 0
-1.45426e-14 1.00633 0
-5.11546e-15 1.00743 0
3.43833e-15 1.00743 0
-1.45426e-14 1.00633 0
-1.07456e-14 1.00633 0
3.43833e-15 1.00743 0
1.36153e-14 1.00743 0
-1.3755e-14 1.00521 0
-8.3461e-15 1.00521 0
1.56534e-14 1.00633 0
7.7343e-15 1.00633 0
-8.3461e-15 1.00521 0
-1.82732e-14 1.00521 0
7.7343e-15 1.00633 0
1.99836e-14 1.00633 0
-1.07456e-14 1.00633 0
-2.53749e-15 1.00633 0
1.36153e-14 1.00743 0
3.50776e-15 1.00743 0
-2.53749e-15 1.00633 0
-1.78352e-14 1.00633 0
3.50776e-15 1.00743 0
2.14588e-14 1.00743 0
8.92885e-15 1.00743 0
4.17155e-15 1.00743 0
2.37868e-14 1.00852 0
2.07074e-14 1.00852 0
4.17155e-15 1.00743 0
-1.84795e-14 1.00743 0
2.07074e-14 1.00852 0
1.64373e-14 1.00852 0
-1.22126e-14 1.00852 0
-1.0432e-14 1.00852 0
-4.14744e-15 1.0096 0
-1.50594e-15 1.0096 0
-1.0432e-14 1.00852 0
-9.84221e-15 1.00852 0
-1.50594e-15 1.0096 0
1.28329e-14 1.0096 0
-1.84795e-14 1.00743 0
-2.74123e-15 1.00743 0
1.64373e-14 1.00852 0
8.95673e-15 1.00852 0
-2.74123e-15 1.00743 0
-1.34486e-14 1.00743 0
8.95673e-15 1.00852 0
1.02554e-14 1.00852 0
-9.84221e-15 1.00852 0
-1.20535e-14 1.00852 0
1.28329e-14 1.0096 0
1.27559e-14 1.0096 0
-1.20535e-14 1.00852 0
-1.01758e-14 1.00852 0
1.27559e-14 1.0096 0
1.23649e-14 1.0096 0
-5.04055e-15 1 0
-1.40758e-14 1 0
7.21304e-15 1.0019 0
1.99221e-14 1.0019 0
-1.40758e-14 1 0
-1.69464e-15 1 0
1.99221e-14 1.0019 0
7.24385e-15 1.0019 0
-1.09711e-14 1.0019 0
-8.9286e-15 1.0019 0
1.30962e-14 1.00289 0
9.14093e-15 1.00289 0
-8.9286e-15 1.0019 0
-2.5332e-15 1.0019 0
9.14093e-15 1.00289 0
3.17891e-15 1.00289 0
-1.69464e-15 1 0
-9.06918e-15 1 0
7.24385e-15 1.0019 0
1.69435e-14 1.0019 0
-9.06918e-15 1 0
-1.44349e-14 1 0
1.69435e-14 1.0019 0
2.46508e-14 1.0019 0
-2.5332e-15 1.0019 0
-1.23879e-14 1.0019 0
3.17891e-15 1.00289 0
8.49593e-15 1.00289 0
-1.23879e-14 1.0019 0
-1.10125e-14 1.0019 0
8.49593e-15 1.00289 0
8.05254e-15 1.00289 0
-1.11231e-14 1.00289 0
-9.82987e-15 1.00289 0
1.62172e-14 1.00409 0
1.48614e-14 1.00409 0
-9.82987e-15 1.00289 0
-5.33967e-15 1.00289 0
1.48614e-14 1.00409 0
7.444e-15 1.00409 0
-7.22958e-15 1.00409 0
-1.22029e-14 1.00409 0
7.03776e-15 1.00521 0
1.42457e-14 1.00521 0
-1.22029e-14 1.00409 0
-8.89345e-15 1.00409 0
1.42457e-14 1.00521 0
8.60053e-15 1.00521 0
-5.33967e-15 1.00289 0
-2.83088e-15 1.00289 0
7.444e-15 1.00409 0
8.51504e-15 1.00409 0
-2.83088e-15 1.00289 0
-6.76859e-15 1.00289 0
8.51504e-15 1.00409 0
1.59421e-14 1.00409 0
-8.89345e-15 1.00409 0
-1.35567e-14 1.00409 0
8.60053e-15 1.00521 0
1.45966e-14 1.00521 0
-1.35567e-14 1.00409 0
-1.41389e-14 1.00409 0
1.45966e-14 1.00521 0
1.33893e-14 1.00521 0
-1.44349e-14 1 0
-1.08908e-14 1 0
2.46508e-14 1.0019 0
2.42565e-14 1.0019 0
-1.08908e-14 1 0
-1.14345e-14 1 0
2.42565e-14 1.0019 0
2.49786e-14 1.0019 0
-1.10125e-14 1.0019 0
-1.60508e-14 1.0019 0
8.05254e-15 1.00289 0
1.33611e-14 1.00289 0
-1.60508e-14 1.0019 0
-2.46086e-14 1.0019 0
1.33611e-14 1.00289 0
2.07673e-14 1.00289 0
-1.14345e-14 1 0
-5.22978e-15 1 0
2.49786e-14 1.0019 0
1.46733e-14 1.0019 0
-5.22978e-15 1 0
-8.68707e-15 1 0
1.46733e-14 1.0019 0
2.00663e-14 1.0019 0
-2.46086e-14 1.0019 0
-1.01994e-14 1.0019 0
2.07673e-14 1.00289 0
1.0051e-14 1.00289 0
-1.01994e-14 1.0019 0
-8.23455e-15 1.0019 0
1.0051e-14 1.00289 0
1.05321e-14 1.00289 0
-6.76859e-15 1.00289 0
-9.49694e-15 1.00289 0
1.59421e-14 1.00409 0
1.06777e-14 1.00409 0
-9.49694e-15 1.00289 0
-7.62017e-15 1.00289 0
1.06777e-14 1.00409 0
1.41991e-14 1.00409 0
-1.41389e-14 1.00409 0
-2.94412e-15 1.00409 0
1.33893e-14 1.00521 0
6.99663e-15 1.00521 0
-2.94412e-15 1.00409 0
-1.23388e-14 1.00409 0
6.99663e-15 1.00521 0
8.19949e-15 1.00521 0
-7.62017e-15 1.00289 0
-1.16964e-14 1.00289 0
1.41991e-14 1.00409 0
1.48243e-14 1.00409 0
-1.16964e-14 1.00289 0
-1.06373e-14 1.00289 0
1.48243e-14 1.00409 0
7.93241e-15 1.00409 0
-1.23388e-14 1.00409 0
-4.75772e-15 1.00409 0
8.19949e-15 1.00521 0
1.14023e-14 1.00521 0
-4.75772e-15 1.00409 0
1.5573e-15 1.00409 0
1.14023e-14 1.00521 0
6.78487e-15 1.00521 0
-1.82732e-14 1.00521 0
-1.67619e-14 1.00521 0
1.99836e-14 1.00633 0
1.70451e-14 1.00633 0
-1.67619e-14 1.00521 0
-4.3544e-15 1.00521 0
1.70451e-14 1.00633 0
1.02917e-14 1.00633 0
-1.78352e-14 1.00633 0
-9.17068e-15 1.00633 0
2.14588e-14 1.00743 0
1.17252e-14 1.00743 0
-9.17068e-15 1.00633 0
-6.16516e-15 1.00633 0
1.17252e-14 1.00743 0
9.6156e-15 1.00743 0
-4.3544e-15 1.00521 0
-1.10739e-14 1.00521 0
1.02917e-14 1.00633 0
1.83689e-14 1.00633 0
-1.10739e-14 1.00521 0
-1.29261e-14 1.00521 0
1.83689e-14 1.00633 0
1.54645e-14 1.00633 0
-6.16516e-15 1.00633 0
-1.07803e-14 1.00633 0
9.6156e-15 1.00743 0
8.93252e-15 1.00743 0
-1.07803e-14 1.00633 0
-7.04787e-15 1.00633 0
8.93252e-15 1.00743 0
1.14002e-14 1.00743 0
-1.34486e-14 1.00743 0
-7.4425e-15 1.00743 0
1.02554e-14 1.00852 0
7.17003e-15 1.00852 0
-7.4425e-15 1.00743 0
-8.7918e-15 1.00743 0
7.17003e-15 1.00852 0
7.2991e-15 1.00852 0
-1.01758e-14 1.00852 0
-7.57167e-15 1.00852 0
1.23649e-14 1.0096 0
1.31835e-14 1.0096 0
-7.57167e-15 1.00852 0
-8.09858e-15 1.00852 0
1.31835e-14 1.0096 0
9.44336e-15 1.0096 0
-8.7918e-15 1.00743 0
-1.09192e-14 1.00743 0
7.2991e-15 1.00852 0
8.60838e-15 1.00852 0
-1.09192e-14 1.00743 0
-1.18475e-14 1.00743 0
8.60838e-15 1.00852 0
1.27826e-14 1.00852 0
-8.09858e-15 1.00852 0
-2.24184e-15 1.00852 0
9.44336e-15 1.0096 0
1.12448e-14 1.0096 0
-2.24184e-15 1.00852 0
-6.24181e-15 1.00852 0
1.12448e-14 1.0096 0
8.85679e-15 1.0096 0
-1.29261e-14 1.00521 0
-8.351e-15 1.00521 0
1.54645e-14 1.00633 0
1.34613e-14 1.00633 0
-8.351e-15 1.00521 0
-8.2807e-17 1.00521 0
1.34613e-14 1.00633 0
8.18126e-15 1.00633 0
-7.04787e-15 1.00633 0
-3.08897e-15 1.00633 0
1.14002e-14 1.00743 0
6.61744e-15 1.00743 0
-3.08897e-15 1.00633 0
-6.13447e-15 1.00633 0
6.61744e-15 1.00743 0
6.0194e-15 1.00743 0
-8.2807e-17 1.00521 0
-5.93643e-15 1.00521 0
8.18126e-15 1.00633 0
6.93399e-15 1.00633 0
-5.93643e-15 1.00521 0
8.75529e-16 1.00521 0
6.93399e-15 1.00633 0
6.30845e-15 1.00633 0
-6.13447e-15 1.00633 0
-7.45232e-15 1.00633 0
6.0194e-15 1.00743 0
1.17131e-14 1.00743 0
-7.45232e-15 1.00633 0
-1.19257e-14 1.00633 0
1.17131e-14 1.00743 0
1.59936e-14 1.00743 0
-1.18475e-14 1.00743 0
-7.1754e-15 1.00743 0
1.27826e-14 1.00852 0
3.95521e-15 1.00852 0
-7.1754e-15 1.00743 0
-7.55027e-15 1.00743 0
3.95521e-15 1.00852 0
8.93816e-15 1.00852 0
-6.24181e-15 1.00852 0
-3.10983e-15 1.00852 0
8.85679e-15 1.0096 0
6.51351e-15 1.0096 0
-3.10983e-15 1.00852 0
-8.71721e-15 1.00852 0
6.51351e-15 1.0096 0
1.22253e-14 1.0096 0
-7.55027e-15 1.00743 0
-5.70086e-15 1.00743 0
8.93816e-15 1.00852 0
9.11336e-15 1.00852 0
-5.70086e-15 1.00743 0
-1.05891e-14 1.00743 0
9.11336e-15 1.00852 0
9.63199e-15 1.00852 0
-8.71721e-15 1.00852 0
-7.27455e-15 1.00852 0
1.22253e-14 1.0096 0
8.93916e-15 1.0096 0
-7.27455e-15 1.00852 0
-5.38623e-15 1.00852 0
8.93916e-15 1.0096 0
1.05514e-14 1.0096 0
0 1.0096 0
-6.973e-15 1.0096 0
0 1.01067 0
4.99073e-15 1.01067 0
-6.973e-15 1.0096 0
-2.27862e-14 1.0096 0
4.99073e-15 1.01067 0
-2.98081e-15 1.01067 0
0 1.01067 0
-7.8144e-15 1.01067 0
0 1.01175 0
1.12751e-15 1.01175 0
-7.8144e-15 1.01067 0
-1.01504e-15 1.01067 0
1.12751e-15 1.01175 0
1.13284e-14 1.01175 0
-2.27862e-14 1.0096 0
-2.77767e-15 1.0096 0
-2.98081e-15 1.01067 0
1.16817e-15 1.01067 0
-2.77767e-15 1.0096 0
3.68196e-15 1.0096 0
1.16817e-15 1.01067 0
1.33164e-14 1.01067 0
-1.01504e-15 1.01067 0
-1.09947e-14 1.01067 0
1.13284e-14 1.01175 0
8.74666e-15 1.01175 0
-1.09947e-14 1.01067 0
-6.15318e-15 1.01067 0
8.74666e-15 1.01175 0
6.76279e-15 1.01175 0
0 1.01175 0
-2.6644e-15 1.01175 0
0 1.01285 0
2.73678e-15 1.01285 0
-2.6644e-15 1.01175 0
-3.47073e-15 1.01175 0
2.73678e-15 1.01285 0
9.4567e-16 1.01285 0
0 1.01285 0
-7.69661e-16 1.01285 0
0 1.01396 0
2.20546e-15 1.01396 0
-7.69661e-16 1.01285 0
7.86228e-16 1.01285 0
2.20546e-15 1.01396 0
3.44068e-15 1.01396 0
-3.47073e-15 1.01175 0
-5.37937e-15 1.01175 0
9.4567e-16 1.01285 0
7.00831e-15 1.01285 0
-5.37937e-15 1.01175 0
-6.64072e-15 1.01175 0
7.00831e-15 1.01285 0
4.63713e-15 1.01285 0
7.86228e-16 1.01285 0
-7.4005e-15 1.01285 0
3.44068e-15 1.01396 0
5.56209e-15 1.01396 0
-7.4005e-15 1.01285 0
-4.65209e-15 1.01285 0
5.56209e-15 1.01396 0
6.16506e-15 1.01396 0
3.68196e-15 1.0096 0
-1.11079e-14 1.0096 0
1.33164e-14 1.01067 0
2.46756e-15 1.01067 0
-1.11079e-14 1.0096 0
-9.48756e-15 1.0096 0
2.46756e-15 1.01067 0
1.07074e-14 1.01067 0
-6.15318e-15 1.01067 0
-1.83965e-15 1.01067 0
6.76279e-15 1.01175 0
1.64835e-14 1.01175 0
-1.83965e-15 1.01067 0
-8.58693e-15 1.01067 0
1.64835e-14 1.01175 0
9.51356e-15 1.01175 0
-9.48756e-15 1.0096 0
-8.91734e-15 1.0096 0
1.07074e-14 1.01067 0
1.09509e-14 1.01067 0
-8.91734e-15 1.0096 0
-7.63655e-15 1.0096 0
1.09509e-14 1.01067 0
9.2016e-15 1.01067 0
-8.58693e-15 1.01067 0
-1.17945e-14 1.01067 0
9.51356e-15 1.01175 0
1.24503e-14 1.01175 0
-1.17945e-14 1.01067 0
-1.19496e-14 1.01067 0
1.24503e-14 1.01175 0
1.19375e-14 1.01175 0
-6.64072e-15 1.01175 0
-7.72237e-15 1.01175 0
4.63713e-15 1.01285 0
6.33699e-15 1.01285 0
-7.72237e-15 1.01175 0
-1.179e-14 1.01175 0
6.33699e-15 1.01285 0
9.95689e-15 1.01285 0
-4.65209e-15 1.01285 0
-9.72094e-15 1.01285 0
6.16506e-15 1.01396 0
9.33384e-15 1.01396 0
-9.72094e-15 1.01285 0
-9.10315e-15 1.01285 0
9.33384e-15 1.01396 0
9.26431e-15 1.01396 0
-1.179e-14 1.01175 0
-1.10554e-14 1.01175 0
9.95689e-15 1.01285 0
1.26433e-14 1.01285 0
-1.10554e-14 1.01175 0
-9.80072e-15 1.01175 0
1.26433e-14 1.01285 0
1.21674e-14 1.01285 0
-9.10315e-15 1.01285 0
-1.09262e-14 1.01285 0
9.26431e-15 1.01396 0
8.58373e-15 1.01396 0
-1.09262e-14 1.01285 0
-1.36382e-14 1.01285 0
8.58373e-15 1.01396 0
1.17349e-14 1.01396 0
0 1.01396 0
5.83145e-15 1.01396 0
0 1.0151 0
7.27672e-15 1.0151 0
5.83145e-15 1.01396 0
1.30251e-15 1.01396 0
7.27672e-15 1.0151 0
2.58203e-15 1.0151 0
0 1.0151 0
-6.90554e-15 1.0151 0
0 1.01622 0
-3.71076e-15 1.01622 0
-6.90554e-15 1.0151 0
-1.92903e-15 1.0151 0
-3.71076e-15 1.01622 0
9.05178e-16 1.01622 0
1.30251e-15 1.01396 0
-6.30393e-15 1.01396 0
2.58203e-15 1.0151 0
5.60966e-15 1.0151 0
-6.30393e-15 1.01396 0
-8.948e-15 1.01396 0
5.60966e-15 1.0151 0
8.02005e-15 1.0151 0
-1.92903e-15 1.0151 0
-2.9416e-15 1.0151 0
9.05178e-16 1.01622 0
4.55561e-15 1.01622 0
-2.9416e-15 1.0151 0
-4.16276e-15 1.0151 0
4.55561e-15 1.01622 0
4.35781e-15 1.01622 0
0 1.01622 0
1.04941e-15 1.01622 0
0 1.01717 0
3.31665e-15 1.01717 0
1.04941e-15 1.01622 0
-4.33793e-15 1.01622 0
3.31665e-15 1.01717 0
-8.44547e-16 1.01717 0
0 1.01717 0
-7.02342e-16 1.01717 0
0 1.01748 0
-3.39288e-16 1.01748 0
-7.02342e-16 1.01717 0
-1.63346e-15 1.01717 0
-3.39288e-16 1.01748 0
4.14759e-15 1.01748 0
-4.33793e-15 1.01622 0
-3.11145e-15 1.01622 0
-8.44547e-16 1.01717 0
3.7955e-16 1.01717 0
-3.11145e-15 1.01622 0
-2.57089e-15 1.01622 0
3.7955e-16 1.01717 0
3.64899e-16 1.01717 0
-1.63346e-15 1.01717 0
-5.19396e-15 1.01717 0
4.14759e-15 1.01748 0
1.05484e-16 1.01748 0
-5.19396e-15 1.01717 0
-5.66058e-15 1.01717 0
1.05484e-16 1.01748 0
1.9516e-15 1.01748 0
-8.948e-15 1.01396 0
-8.31544e-15 1.01396 0
8.02005e-15 1.0151 0
9.1368e-15 1.0151 0
-8.31544e-15 1.01396 0
-5.82134e-15 1.01396 0
9.1368e-15 1.0151 0
6.57212e-15 1.0151 0
-4.16276e-15 1.0151 0
-3.94755e-15 1.0151 0
4.35781e-15 1.01622 0
2.25889e-15 1.01622 0
-3.94755e-15 1.0151 0
-8.0612e-15 1.0151 0
2.25889e-15 1.01622 0
7.60341e-15 1.01622 0
-5.82134e-15 1.01396 0
-5.34918e-15 1.01396 0
6.57212e-15 1.0151 0
5.71933e-15 1.0151 0
-5.34918e-15 1.01396 0
-6.29829e-15 1.01396 0
5.71933e-15 1.0151 0
6.7705e-15 1.0151 0
-8.0612e-15 1.0151 0
-7.60353e-15 1.0151 0
7.60341e-15 1.01622 0
5.81141e-15 1.01622 0
-7.60353e-15 1.0151 0
-4.51317e-15 1.0151 0
5.81141e-15 1.01622 0
5.14868e-15 1.01622 0
-2.57089e-15 1.01622 0
-6.21035e-15 1.01622 0
3.64899e-16 1.01717 0
8.19611e-16 1.01717 0
-6.21035e-15 1.01622 0
-7.02777e-15 1.01622 0
8.19611e-16 1.01717 0
4.21662e-15 1.01717 0
-5.66058e-15 1.01717 0
-5.13167e-15 1.01717 0
1.9516e-15 1.01748 0
6.21731e-15 1.01748 0
-5.13167e-15 1.01717 0
-5.04962e-15 1.01717 0
6.21731e-15 1.01748 0
5.42452e-15 1.01748 0
-7.02777e-15 1.01622 0
-5.26405e-15 1.01622 0
4.21662e-15 1.01717 0
3.35432e-15 1.01717 0
-5.26405e-15 1.01622 0
-5.38654e-15 1.01622 0
3.35432e-15 1.01717 0
3.10236e-15 1.01717 0
-5.04962e-15 1.01717 0
-3.15984e-15 1.01717 0
5.42452e-15 1.01748 0
3.3148e-15 1.01748 0
-3.15984e-15 1.01717 0
-2.68243e-15 1.01717 0
3.3148e-15 1.01748 0
-6.66299e-16 1.01748 0
-7.63655e-15 1.0096 0
-1.14889e-14 1.0096 0
9.2016e-15 1.01067 0
1.37027e-14 1.01067 0
-1.14889e-14 1.0096 0
-5.71934e-15 1.0096 0
1.37027e-14 1.01067 0
9.86591e-15 1.01067 0
-1.19496e-14 1.01067 0
-1.30193e-14 1.01067 0
1.19375e-14 1.01175 0
1.61197e-14 1.01175 0
-1.30193e-14 1.01067 0
-8.32906e-15 1.01067 0
1.61197e-14 1.01175 0
7.8798e-15 1.01175 0
-5.71934e-15 1.0096 0
-1.0651e-14 1.0096 0
9.86591e-15 1.01067 0
8.09545e-15 1.01067 0
-1.0651e-14 1.0096 0
-9.32138e-15 1.0096 0
8.09545e-15 1.01067 0
9.86625e-15 1.01067 0
-8.32906e-15 1.01067 0
-6.20661e-15 1.01067 0
7.8798e-15 1.01175 0
9.47806e-15 1.01175 0
-6.20661e-15 1.01067 0
-4.37644e-15 1.01067 0
9.47806e-15 1.01175 0
7.2785e-15 1.01175 0
-9.80072e-15 1.01175 0
-1.59055e-14 1.01175 0
1.21674e-14 1.01285 0
1.59591e-14 1.01285 0
-1.59055e-14 1.01175 0
-7.1599e-15 1.01175 0
1.59591e-14 1.01285 0
9.57364e-15 1.01285 0
-1.36382e-14 1.01285 0
-1.32313e-14 1.01285 0
1.17349e-14 1.01396 0
1.06287e-14 1.01396 0
-1.32313e-14 1.01285 0
-4.89548e-15 1.01285 0
1.06287e-14 1.01396 0
4.80894e-15 1.01396 0
-7.1599e-15 1.01175 0
-1.1601e-14 1.01175 0
9.57364e-15 1.01285 0
1.51932e-14 1.01285 0
-1.1601e-14 1.01175 0
-7.68691e-15 1.01175 0
1.51932e-14 1.01285 0
6.49922e-15 1.01285 0
-4.89548e-15 1.01285 0
-1.126e-14 1.01285 0
4.80894e-15 1.01396 0
8.38365e-15 1.01396 0
-1.126e-14 1.01285 0
-2.48821e-15 1.01285 0
8.38365e-15 1.01396 0
4.66103e-15 1.01396 0
-9.32138e-15 1.0096 0
-4.68628e-15 1.0096 0
9.86625e-15 1.01067 0
7.72565e-15 1.01067 0
-4.68628e-15 1.0096 0
-8.07496e-15 1.0096 0
7.72565e-15 1.01067 0
1.34493e-14 1.01067 0
-4.37644e-15 1.01067 0
-5.83283e-15 1.01067 0
7.2785e-15 1.01175 0
1.00104e-14 1.01175 0
-5.83283e-15 1.01067 0
-1.73316e-15 1.01067 0
1.00104e-14 1.01175 0
3.87969e-15 1.01175 0
-8.07496e-15 1.0096 0
-5.55556e-15 1.0096 0
1.34493e-14 1.01067 0
8.18086e-15 1.01067 0
-5.55556e-15 1.0096 0
-4.87376e-15 1.0096 0
8.18086e-15 1.01067 0
9.21975e-15 1.01067 0
-1.73316e-15 1.01067 0
-1.16849e-15 1.01067 0
3.87969e-15 1.01175 0
4.66443e-15 1.01175 0
-1.16849e-15 1.01067 0
-7.76246e-15 1.01067 0
4.66443e-15 1.01175 0
6.76434e-15 1.01175 0
-7.68691e-15 1.01175 0
-8.30867e-15 1.01175 0
6.49922e-15 1.01285 0
6.26977e-15 1.01285 0
-8.30867e-15 1.01175 0
-5.19491e-15 1.01175 0
6.26977e-15 1.01285 0
4.90775e-15 1.01285 0
-2.48821e-15 1.01285 0
-4.93906e-15 1.01285 0
4.66103e-15 1.01396 0
6.47495e-15 1.01396 0
-4.93906e-15 1.01285 0
-1.19549e-14 1.01285 0
6.47495e-15 1.01396 0
9.75476e-15 1.01396 0
-5.19491e-15 1.01175 0
-8.55503e-15 1.01175 0
4.90775e-15 1.01285 0
7.66835e-15 1.01285 0
-8.55503e-15 1.01175 0
-7.68578e-15 1.01175 0
7.66835e-15 1.01285 0
6.67674e-15 1.01285 0
-1.19549e-14 1.01285 0
-5.21288e-15 1.01285 0
9.75476e-15 1.01396 0
2.50232e-15 1.01396 0
-5.21288e-15 1.01285 0
-6.90535e-16 1.01285 0
2.50232e-15 1.01396 0
2.12587e-15 1.01396 0
-6.29829e-15 1.01396 0
-9.42458e-15 1.01396 0
6.7705e-15 1.0151 0
1.01121e-14 1.0151 0
-9.42458e-15 1.01396 0
-4.8164e-15 1.01396 0
1.01121e-14 1.0151 0
3.22564e-15 1.0151 0
-4.51317e-15 1.0151 0
-7.07397e-15 1.0151 0
5.14868e-15 1.01622 0
6.83553e-15 1.01622 0
-7.07397e-15 1.0151 0
-4.06385e-15 1.0151 0
6.83553e-15 1.01622 0
3.46294e-15 1.01622 0
-4.8164e-15 1.01396 0
-2.77312e-15 1.01396 0
3.22564e-15 1.0151 0
2.21109e-15 1.0151 0
-2.77312e-15 1.01396 0
-7.86953e-15 1.01396 0
2.21109e-15 1.0151 0
7.77582e-15 1.0151 0
-4.06385e-15 1.0151 0
-4.23425e-15 1.0151 0
3.46294e-15 1.01622 0