# vtk DataFile Version 3.0
#This file was generated by the deal.II library on 2018/10/12 at 1:46:47
ASCII
DATASET UNSTRUCTURED_GRID

POINTS 5120 double
0 0 0
0.392699 0 0
0 0.588627 0
0.392699 0.588627 0
0.392699 0 0
0.785398 0 0
0.392699 0.588627 0
0.785398 0.588627 0
0 0.588627 0
0.392699 0.588627 0
0 1.21615 0
0.392699 1.21615 0
0.392699 0.588627 0
0.785398 0.588627 0
0.392699 1.21615 0
0.785398 1.21615 0
0.785398 0 0
1.1781 0 0
0.785398 0.588627 0
1.1781 0.588627 0
1.1781 0 0
1.5708 0 0
1.1781 0.588627 0
1.5708 0.588627 0
0.785398 0.588627 0
1.1781 0.588627 0
0.785398 1.21615 0
1.1781 1.21615 0
1.1781 0.588627 0
1.5708 0.588627 0
1.1781 1.21615 0
1.5708 1.21615 0
0 1.21615 0
0.392699 1.21615 0
0 1.8425 0
0.392699 1.8425 0
0.392699 1.21615 0
0.785398 1.21615 0
0.392699 1.8425 0
0.785398 1.8425 0
0 1.8425 0
0.392699 1.8425 0
0 2.47022 0
0.392699 2.47022 0
0.392699 1.8425 0
0.785398 1.8425 0
0.392699 2.47022 0
0.785398 2.47022 0
0.785398 1.21615 0
1.1781 1.21615 0
0.785398 1.8425 0
1.1781 1.8425 0
1.1781 1.21615 0
1.5708 1.21615 0
1.1781 1.8425 0
1.5708 1.8425 0
0.785398 1.8425 0
1.1781 1.8425 0
0.785398 2.47022 0
1.1781 2.47022 0
1.1781 1.8425 0
1.5708 1.8425 0
1.1781 2.47022 0
1.5708 2.47022 0
1.5708 0 0
1.9635 0 0
1.5708 0.588627 0
1.9635 0.588627 0
1.9635 0 0
2.35619 0 0
1.9635 0.588627 0
2.35619 0.588627 0
1.5708 0.588627 0
1.9635 0.588627 0
1.5708 1.21615 0
1.9635 1.21615 0
1.9635 0.588627 0
2.35619 0.588627 0
1.9635 1.21615 0
2.35619 1.21615 0
2.35619 0 0
2.74889 0 0
2.35619 0.588627 0
2.74889 0.588627 0
2.74889 0 0
3.14159 0 0
2.74889 0.588627 0
3.14159 0.588627 0
2.35619 0.588627 0
2.74889 0.588627 0
2.35619 1.21615 0
2.74889 1.21615 0
2.74889 0.588627 0
3.14159 0.588627 0
2.74889 1.21615 0
3.14159 1.21615 0
1.5708 1.21615 0
1.9635 1.21615 0
1.5708 1.8425 0
1.9635 1.8425 0
1.9635 1.21615 0
2.35619 1.21615 0
1.9635 1.8425 0
2.35619 1.8425 0
1.5708 1.8425 0
1.9635 1.8425 0
1.5708 2.47022 0
1.9635 2.47022 0
1.9635 1.8425 0
2.35619 1.8425 0
1.9635 2.47022 0
2.35619 2.47022 0
2.35619 1.21615 0
2.74889 1.21615 0
2.35619 1.8425 0
2.74889 1.8425 0
2.74889 1.21615 0
3.14159 1.21615 0
2.74889 1.8425 0
3.14159 1.8425 0
2.35619 1.8425 0
2.74889 1.8425 0
2.35619 2.47022 0
2.74889 2.47022 0
2.74889 1.8425 0
3.14159 1.8425 0
2.74889 2.47022 0
3.14159 2.47022 0
0 2.47022 0
0.392699 2.47022 0
0 3.09757 0
0.392699 3.09757 0
0.392699 2.47022 0
0.785398 2.47022 0
0.392699 3.09757 0
0.785398 3.09757 0
0 3.09757 0
0.392699 3.09757 0
0 3.72495 0
0.392699 3.72495 0
0.392699 3.09757 0
0.785398 3.09757 0
0.392699 3.72495 0
0.785398 3.72495 0
0.785398 2.47022 0
1.1781 2.47022 0
0.785398 3.09757 0
1.1781 3.09757 0
1.1781 2.47022 0
1.5708 2.47022 0
1.1781 3.09757 0
1.5708 3.09757 0
0.785398 3.09757 0
1.1781 3.09757 0
0.785398 3.72495 0
1.1781 3.72495 0
1.1781 3.09757 0
1.5708 3.09757 0
1.1781 3.72495 0
1.5708 3.72495 0
0 3.72495 0
0.392699 3.72495 0
0 4.35222 0
0.392699 4.35222 0
0.392699 3.72495 0
0.785398 3.72495 0
0.392699 4.35222 0
0.785398 4.35222 0
0 4.35222 0
0.392699 4.35222 0
0 4.97939 0
0.392699 4.97939 0
0.392699 4.35222 0
0.785398 4.35222 0
0.392699 4.97939 0
0.785398 4.97939 0
0.785398 3.72495 0
1.1781 3.72495 0
0.785398 4.35222 0
1.1781 4.35222 0
1.1781 3.72495 0
1.5708 3.72495 0
1.1781 4.35222 0
1.5708 4.35222 0
0.785398 4.35222 0
1.1781 4.35222 0
0.785398 4.97939 0
1.1781 4.97939 0
1.1781 4.35222 0
1.5708 4.35222 0
1.1781 4.97939 0
1.5708 4.97939 0
1.5708 2.47022 0
1.9635 2.47022 0
1.5708 3.09757 0
1.9635 3.09757 0
1.9635 2.47022 0
2.35619 2.47022 0
1.9635 3.09757 0
2.35619 3.09757 0
1.5708 3.09757 0
1.9635 3.09757 0
1.5708 3.72495 0
1.9635 3.72495 0
1.9635 3.09757 0
2.35619 3.09757 0
1.9635 3.72495 0
2.35619 3.72495 0
2.35619 2.47022 0
2.74889 2.47022 0
2.35619 3.09757 0
2.74889 3.09757 0
2.74889 2.47022 0
3.14159 2.47022 0
2.74889 3.09757 0
3.14159 3.09757 0
2.35619 3.09757 0
2.74889 3.09757 0
2.35619 3.72495 0
2.74889 3.72495 0
2.74889 3.09757 0
3.14159 3.09757 0
2.74889 3.72495 0
3.14159 3.72495 0
1.5708 3.72495 0
1.9635 3.72495 0
1.5708 4.35222 0
1.9635 4.35222 0
1.9635 3.72495 0
2.35619 3.72495 0
1.9635 4.35222 0
2.35619 4.35222 0
1.5708 4.35222 0
1.9635 4.35222 0
1.5708 4.97939 0
1.9635 4.97939 0
1.9635 4.35222 0
2.35619 4.35222 0
1.9635 4.97939 0
2.35619 4.97939 0
2.35619 3.72495 0
2.74889 3.72495 0
2.35619 4.35222 0
2.74889 4.35222 0
2.74889 3.72495 0
3.14159 3.72495 0
2.74889 4.35222 0
3.14159 4.35222 0
2.35619 4.35222 0
2.74889 4.35222 0
2.35619 4.97939 0
2.74889 4.97939 0
2.74889 4.35222 0
3.14159 4.35222 0
2.74889 4.97939 0
3.14159 4.97939 0
3.14159 0 0
3.53429 0 0
3.14159 0.588627 0
3.53429 0.588627 0
3.53429 0 0
3.92699 0 0
3.53429 0.588627 0
3.92699 0.588627 0
3.14159 0.588627 0
3.53429 0.588627 0
3.14159 1.21615 0
3.53429 1.21615 0
3.53429 0.588627 0
3.92699 0.588627 0
3.53429 1.21615 0
3.92699 1.21615 0
3.92699 0 0
4.31969 0 0
3.92699 0.588627 0
4.31969 0.588627 0
4.31969 0 0
4.71239 0 0
4.31969 0.588627 0
4.71239 0.588627 0
3.92699 0.588627 0
4.31969 0.588627 0
3.92699 1.21615 0
4.31969 1.21615 0
4.31969 0.588627 0
4.71239 0.588627 0
4.31969 1.21615 0
4.71239 1.21615 0
3.14159 1.21615 0
3.53429 1.21615 0
3.14159 1.8425 0
3.53429 1.8425 0
3.53429 1.21615 0
3.92699 1.21615 0
3.53429 1.8425 0
3.92699 1.8425 0
3.14159 1.8425 0
3.53429 1.8425 0
3.14159 2.47022 0
3.53429 2.47022 0
3.53429 1.8425 0
3.92699 1.8425 0
3.53429 2.47022 0
3.92699 2.47022 0
3.92699 1.21615 0
4.31969 1.21615 0
3.92699 1.8425 0
4.31969 1.8425 0
4.31969 1.21615 0
4.71239 1.21615 0
4.31969 1.8425 0
4.71239 1.8425 0
3.92699 1.8425 0
4.31969 1.8425 0
3.92699 2.47022 0
4.31969 2.47022 0
4.31969 1.8425 0
4.71239 1.8425 0
4.31969 2.47022 0
4.71239 2.47022 0
4.71239 0 0
5.10509 0 0
4.71239 0.588627 0
5.10509 0.588627 0
5.10509 0 0
5.49779 0 0
5.10509 0.588627 0
5.49779 0.588627 0
4.71239 0.588627 0
5.10509 0.588627 0
4.71239 1.21615 0
5.10509 1.21615 0
5.10509 0.588627 0
5.49779 0.588627 0
5.10509 1.21615 0
5.49779 1.21615 0
5.49779 0 0
5.89049 0 0
5.49779 0.588627 0
5.89049 0.588627 0
5.89049 0 0
6.28319 0 0
5.89049 0.588627 0
6.28319 0.588627 0
5.49779 0.588627 0
5.89049 0.588627 0
5.49779 1.21615 0
5.89049 1.21615 0
5.89049 0.588627 0
6.28319 0.588627 0
5.89049 1.21615 0
6.28319 1.21615 0
4.71239 1.21615 0
5.10509 1.21615 0
4.71239 1.8425 0
5.10509 1.8425 0
5.10509 1.21615 0
5.49779 1.21615 0
5.10509 1.8425 0
5.49779 1.8425 0
4.71239 1.8425 0
5.10509 1.8425 0
4.71239 2.47022 0
5.10509 2.47022 0
5.10509 1.8425 0
5.49779 1.8425 0
5.10509 2.47022 0
5.49779 2.47022 0
5.49779 1.21615 0
5.89049 1.21615 0
5.49779 1.8425 0
5.89049 1.8425 0
5.89049 1.21615 0
6.28319 1.21615 0
5.89049 1.8425 0
6.28319 1.8425 0
5.49779 1.8425 0
5.89049 1.8425 0
5.49779 2.47022 0
5.89049 2.47022 0
5.89049 1.8425 0
6.28319 1.8425 0
5.89049 2.47022 0
6.28319 2.47022 0
3.14159 2.47022 0
3.53429 2.47022 0
3.14159 3.09757 0
3.53429 3.09757 0
3.53429 2.47022 0
3.92699 2.47022 0
3.53429 3.09757 0
3.92699 3.09757 0
3.14159 3.09757 0
3.53429 3.09757 0
3.14159 3.72495 0
3.53429 3.72495 0
3.53429 3.09757 0
3.92699 3.09757 0
3.53429 3.72495 0
3.92699 3.72495 0
3.92699 2.47022 0
4.31969 2.47022 0
3.92699 3.09757 0
4.31969 3.09757 0
4.31969 2.47022 0
4.71239 2.47022 0
4.31969 3.09757 0
4.71239 3.09757 0
3.92699 3.09757 0
4.31969 3.09757 0
3.92699 3.72495 0
4.31969 3.72495 0
4.31969 3.09757 0
4.71239 3.09757 0
4.31969 3.72495 0
4.71239 3.72495 0
3.14159 3.72495 0
3.53429 3.72495 0
3.14159 4.35222 0
3.53429 4.35222 0
3.53429 3.72495 0
3.92699 3.72495 0
3.53429 4.35222 0
3.92699 4.35222 0
3.14159 4.35222 0
3.53429 4.35222 0
3.14159 4.97939 0
3.53429 4.97939 0
3.53429 4.35222 0
3.92699 4.35222 0
3.53429 4.97939 0
3.92699 4.97939 0
3.92699 3.72495 0
4.31969 3.72495 0
3.92699 4.35222 0
4.31969 4.35222 0
4.31969 3.72495 0
4.71239 3.72495 0
4.31969 4.35222 0
4.71239 4.35222 0
3.92699 4.35222 0
4.31969 4.35222 0
3.92699 4.97939 0
4.31969 4.97939 0
4.31969 4.35222 0
4.71239 4.35222 0
4.31969 4.97939 0
4.71239 4.97939 0
4.71239 2.47022 0
5.10509 2.47022 0
4.71239 3.09757 0
5.10509 3.09757 0
5.10509 2.47022 0
5.49779 2.47022 0
5.10509 3.09757 0
5.49779 3.09757 0
4.71239 3.09757 0
5.10509 3.09757 0
4.71239 3.72495 0
5.10509 3.72495 0
5.10509 3.09757 0
5.49779 3.09757 0
5.10509 3.72495 0
5.49779 3.72495 0
5.49779 2.47022 0
5.89049 2.47022 0
5.49779 3.09757 0
5.89049 3.09757 0
5.89049 2.47022 0
6.28319 2.47022 0
5.89049 3.09757 0
6.28319 3.09757 0
5.49779 3.09757 0
5.89049 3.09757 0
5.49779 3.72495 0
5.89049 3.72495 0
5.89049 3.09757 0
6.28319 3.09757 0
5.89049 3.72495 0
6.28319 3.72495 0
4.71239 3.72495 0
5.10509 3.72495 0
4.71239 4.35222 0
5.10509 4.35222 0
5.10509 3.72495 0
5.49779 3.72495 0
5.10509 4.35222 0
5.49779 4.35222 0
4.71239 4.35222 0
5.10509 4.35222 0
4.71239 4.97939 0
5.10509 4.97939 0
5.10509 4.35222 0
5.49779 4.35222 0
5.10509 4.97939 0
5.49779 4.97939 0
5.49779 3.72495 0
5.89049 3.72495 0
5.49779 4.35222 0
5.89049 4.35222 0
5.89049 3.72495 0
6.28319 3.72495 0
5.89049 4.35222 0
6.28319 4.35222 0
5.49779 4.35222 0
5.89049 4.35222 0
5.49779 4.97939 0
5.89049 4.97939 0
5.89049 4.35222 0
6.28319 4.35222 0
5.89049 4.97939 0
6.28319 4.97939 0
0 4.97939 0
0.392699 4.97939 0
0 5.60646 0
0.392699 5.60646 0
0.392699 4.97939 0
0.785398 4.97939 0
0.392699 5.60646 0
0.785398 5.60646 0
0 5.60646 0
0.392699 5.60646 0
0 6.23342 0
0.392699 6.23342 0
0.392699 5.60646 0
0.785398 5.60646 0
0.392699 6.23342 0
0.785398 6.23342 0
0.785398 4.97939 0
1.1781 4.97939 0
0.785398 5.60646 0
1.1781 5.60646 0
1.1781 4.97939 0
1.5708 4.97939 0
1.1781 5.60646 0
1.5708 5.60646 0
0.785398 5.60646 0
1.1781 5.60646 0
0.785398 6.23342 0
1.1781 6.23342 0
1.1781 5.60646 0
1.5708 5.60646 0
1.1781 6.23342 0
1.5708 6.23342 0
0 6.23342 0
0.392699 6.23342 0
0 6.8603 0
0.392699 6.8603 0
0.392699 6.23342 0
0.785398 6.23342 0
0.392699 6.8603 0
0.785398 6.8603 0
0 6.8603 0
0.392699 6.8603 0
0 7.48719 0
0.392699 7.48719 0
0.392699 6.8603 0
0.785398 6.8603 0
0.392699 7.48719 0
0.785398 7.48719 0
0.785398 6.23342 0
1.1781 6.23342 0
0.785398 6.8603 0
1.1781 6.8603 0
1.1781 6.23342 0
1.5708 6.23342 0
1.1781 6.8603 0
[...]
POINT_DATA 5120
VECTORS uf double
0 1 0
-2.01615e-13 1 0
0 1.00261 0
-1.89529e-13 1.00261 0
-2.01615e-13 1 0
1.38711e-14 1 0
-1.89529e-13 1.00261 0
1.04107e-14 1.00261 0
0 1.00261 0
1.76788e-13 1.00261 0
0 1.00395 0
1.64944e-13 1.00395 0
1.76788e-13 1.00261 0
-5.39835e-14 1.00261 0
1.64944e-13 1.00395 0
-5.67481e-14 1.00395 0
1.38711e-14 1 0
3.04558e-13 1 0
1.04107e-14 1.00261 0
2.89394e-13 1.00261 0
3.04558e-13 1 0
4.56305e-14 1 0
2.89394e-13 1.00261 0
3.93522e-14 1.00261 0
-5.39835e-14 1.00261 0
-2.96705e-13 1.00261 0
-5.67481e-14 1.00395 0
-2.75108e-13 1.00395 0
-2.96705e-13 1.00261 0
-4.52411e-14 1.00261 0
-2.75108e-13 1.00395 0
-3.5443e-14 1.00395 0
0 1.00395 0
-1.98556e-14 1.00395 0
0 1.00558 0
-2.08064e-14 1.00558 0
-1.98556e-14 1.00395 0
1.24575e-13 1.00395 0
-2.08064e-14 1.00558 0
1.31396e-13 1.00558 0
0 1.00558 0
4.52283e-14 1.00558 0
0 1.00708 0
4.01983e-14 1.00708 0
4.52283e-14 1.00558 0
-6.49402e-14 1.00558 0
4.01983e-14 1.00708 0
-6.41574e-14 1.00708 0
1.24575e-13 1.00395 0
-1.33074e-14 1.00395 0
1.31396e-13 1.00558 0
4.60378e-15 1.00558 0
-1.33074e-14 1.00395 0
-7.38678e-15 1.00395 0
4.60378e-15 1.00558 0
-7.69356e-17 1.00558 0
-6.49402e-14 1.00558 0
7.01463e-14 1.00558 0
-6.41574e-14 1.00708 0
6.87787e-14 1.00708 0
7.01463e-14 1.00558 0
-3.51091e-14 1.00558 0
6.87787e-14 1.00708 0
-3.06374e-14 1.00708 0
4.56305e-14 1 0
-3.2372e-14 1 0
3.93522e-14 1.00261 0
-1.16946e-14 1.00261 0
-3.2372e-14 1 0
-5.87596e-15 1 0
-1.16946e-14 1.00261 0
1.7008e-15 1.00261 0
-4.52411e-14 1.00261 0
1.55983e-14 1.00261 0
-3.5443e-14 1.00395 0
3.06283e-14 1.00395 0
1.55983e-14 1.00261 0
1.14788e-15 1.00261 0
3.06283e-14 1.00395 0
-8.63138e-16 1.00395 0
-5.87596e-15 1 0
1.40108e-15 1 0
1.7008e-15 1.00261 0
-1.16967e-15 1.00261 0
1.40108e-15 1 0
-3.44743e-15 1 0
-1.16967e-15 1.00261 0
6.1461e-15 1.00261 0
1.14788e-15 1.00261 0
-8.42057e-16 1.00261 0
-8.63138e-16 1.00395 0
2.37075e-15 1.00395 0
-8.42057e-16 1.00261 0
-5.89537e-15 1.00261 0
2.37075e-15 1.00395 0
1.03759e-14 1.00395 0
-7.38678e-15 1.00395 0
6.43627e-14 1.00395 0
-7.69356e-17 1.00558 0
7.02731e-14 1.00558 0
6.43627e-14 1.00395 0
7.9594e-15 1.00395 0
7.02731e-14 1.00558 0
9.4251e-16 1.00558 0
-3.51091e-14 1.00558 0
-4.61194e-14 1.00558 0
-3.06374e-14 1.00708 0
-4.49233e-14 1.00708 0
-4.61194e-14 1.00558 0
-4.13676e-15 1.00558 0
-4.49233e-14 1.00708 0
3.61848e-15 1.00708 0
7.9594e-15 1.00395 0
-2.23615e-15 1.00395 0
9.4251e-16 1.00558 0
4.63931e-15 1.00558 0
-2.23615e-15 1.00395 0
6.29611e-15 1.00395 0
4.63931e-15 1.00558 0
-1.05669e-15 1.00558 0
-4.13676e-15 1.00558 0
1.21155e-16 1.00558 0
3.61848e-15 1.00708 0
9.50437e-16 1.00708 0
1.21155e-16 1.00558 0
-1.43771e-15 1.00558 0
9.50437e-16 1.00708 0
2.2562e-15 1.00708 0
0 1.00708 0
-1.08227e-13 1.00708 0
0 1.00859 0
-1.01417e-13 1.00859 0
-1.08227e-13 1.00708 0
-1.06478e-14 1.00708 0
-1.01417e-13 1.00859 0
-8.90927e-15 1.00859 0
0 1.00859 0
1.1436e-13 1.00859 0
0 1.01005 0
1.1663e-13 1.01005 0
1.1436e-13 1.00859 0
6.62738e-14 1.00859 0
1.1663e-13 1.01005 0
6.62633e-14 1.01005 0
-1.06478e-14 1.00708 0
-7.94072e-14 1.00708 0
-8.90927e-15 1.00859 0
-7.16233e-14 1.00859 0
-7.94072e-14 1.00708 0
4.61891e-14 1.00708 0
-7.16233e-14 1.00859 0
4.38397e-14 1.00859 0
6.62738e-14 1.00859 0
8.00425e-14 1.00859 0
6.62633e-14 1.01005 0
7.53259e-14 1.01005 0
8.00425e-14 1.00859 0
-6.56244e-14 1.00859 0
7.53259e-14 1.01005 0
-6.09626e-14 1.01005 0
0 1.01005 0
3.72295e-15 1.01005 0
0 1.0115 0
2.41315e-16 1.0115 0
3.72295e-15 1.01005 0
-2.18269e-13 1.01005 0
2.41315e-16 1.0115 0
-2.17899e-13 1.0115 0
0 1.0115 0
6.9081e-15 1.0115 0
0 1.01292 0
3.50865e-15 1.01292 0
6.9081e-15 1.0115 0
2.10849e-13 1.0115 0
3.50865e-15 1.01292 0
2.01128e-13 1.01292 0
-2.18269e-13 1.01005 0
-7.57154e-14 1.01005 0
-2.17899e-13 1.0115 0
-7.0937e-14 1.0115 0
-7.57154e-14 1.01005 0
1.47661e-13 1.01005 0
-7.0937e-14 1.0115 0
1.43086e-13 1.0115 0
2.10849e-13 1.0115 0
3.68534e-14 1.0115 0
2.01128e-13 1.01292 0
2.41419e-14 1.01292 0
3.68534e-14 1.0115 0
-1.57664e-13 1.0115 0
2.41419e-14 1.01292 0
-1.53206e-13 1.01292 0
4.61891e-14 1.00708 0
2.29673e-14 1.00708 0
4.38397e-14 1.00859 0
2.153e-14 1.00859 0
2.29673e-14 1.00708 0
-7.14844e-15 1.00708 0
2.153e-14 1.00859 0
6.09603e-15 1.00859 0
-6.56244e-14 1.00859 0
-3.41634e-14 1.00859 0
-6.09626e-14 1.01005 0
-3.83894e-14 1.01005 0
-3.41634e-14 1.00859 0
-2.15454e-14 1.00859 0
-3.83894e-14 1.01005 0
-1.41391e-14 1.01005 0
-7.14844e-15 1.00708 0
-2.26887e-15 1.00708 0
6.09603e-15 1.00859 0
1.93077e-15 1.00859 0
-2.26887e-15 1.00708 0
-7.70846e-15 1.00708 0
1.93077e-15 1.00859 0
4.47909e-15 1.00859 0
-2.15454e-14 1.00859 0
-2.40872e-15 1.00859 0
-1.41391e-14 1.01005 0
3.95465e-15 1.01005 0
-2.40872e-15 1.00859 0
3.99872e-14 1.00859 0
3.95465e-15 1.01005 0
3.13406e-14 1.01005 0
1.47661e-13 1.01005 0
-1.94875e-14 1.01005 0
1.43086e-13 1.0115 0
-2.3699e-14 1.0115 0
-1.94875e-14 1.01005 0
1.80775e-14 1.01005 0
-2.3699e-14 1.0115 0
2.34316e-14 1.0115 0
-1.57664e-13 1.0115 0
-4.56741e-14 1.0115 0
-1.53206e-13 1.01292 0
-4.4562e-14 1.01292 0
-4.56741e-14 1.0115 0
-1.2643e-14 1.0115 0
-4.4562e-14 1.01292 0
-1.28857e-15 1.01292 0
1.80775e-14 1.01005 0
-5.23431e-15 1.01005 0
2.34316e-14 1.0115 0
-7.49823e-15 1.0115 0
-5.23431e-15 1.01005 0
-3.54882e-14 1.01005 0
-7.49823e-15 1.0115 0
-2.87879e-14 1.0115 0
-1.2643e-14 1.0115 0
1.94749e-14 1.0115 0
-1.28857e-15 1.01292 0
1.79776e-14 1.01292 0
1.94749e-14 1.0115 0
-7.51719e-15 1.0115 0
1.79776e-14 1.01292 0
-1.49497e-15 1.01292 0
-3.44743e-15 1 0
-6.20756e-15 1 0
6.1461e-15 1.00261 0
1.31511e-14 1.00261 0
-6.20756e-15 1 0
6.5436e-15 1 0
1.31511e-14 1.00261 0
-2.26709e-15 1.00261 0
-5.89537e-15 1.00261 0
-6.69424e-17 1.00261 0
1.03759e-14 1.00395 0
7.88586e-15 1.00395 0
-6.69424e-17 1.00261 0
-8.59906e-16 1.00261 0
7.88586e-15 1.00395 0
5.76856e-16 1.00395 0
6.5436e-15 1 0
2.52596e-15 1 0
-2.26709e-15 1.00261 0
2.68578e-15 1.00261 0
2.52596e-15 1 0
-3.19342e-15 1 0
2.68578e-15 1.00261 0
9.95314e-15 1.00261 0
-8.59906e-16 1.00261 0
-1.58007e-15 1.00261 0
5.76856e-16 1.00395 0
-3.60543e-16 1.00395 0
-1.58007e-15 1.00261 0
-3.50559e-15 1.00261 0
-3.60543e-16 1.00395 0
7.46966e-15 1.00395 0
6.29611e-15 1.00395 0
-6.22494e-16 1.00395 0
-1.05669e-15 1.00558 0
8.1056e-15 1.00558 0
-6.22494e-16 1.00395 0
-6.24213e-16 1.00395 0
8.1056e-15 1.00558 0
1.05722e-14 1.00558 0
-1.43771e-15 1.00558 0
-4.06227e-16 1.00558 0
2.2562e-15 1.00708 0
5.1746e-15 1.00708 0
-4.06227e-16 1.00558 0
7.51763e-15 1.00558 0
5.1746e-15 1.00708 0
5.38435e-15 1.00708 0
-6.24213e-16 1.00395 0
1.80365e-14 1.00395 0
1.05722e-14 1.00558 0
3.35725e-16 1.00558 0
1.80365e-14 1.00395 0
2.75381e-15 1.00395 0
3.35725e-16 1.00558 0
9.56447e-15 1.00558 0
7.51763e-15 1.00558 0
-1.21216e-14 1.00558 0
5.38435e-15 1.00708 0
9.03894e-15 1.00708 0
-1.21216e-14 1.00558 0
6.62774e-15 1.00558 0
9.03894e-15 1.00708 0
6.54811e-15 1.00708 0
-3.19342e-15 1 0
-2.42739e-15 1 0
9.95314e-15 1.00261 0
9.64384e-15 1.00261 0
-2.42739e-15 1 0
-6.14497e-15 1 0
9.64384e-15 1.00261 0
1.36115e-14 1.00261 0
-3.50559e-15 1.00261 0
3.00435e-15 1.00261 0
7.46966e-15 1.00395 0
3.8656e-15 1.00395 0
3.00435e-15 1.00261 0
-6.54874e-15 1.00261 0
3.8656e-15 1.00395 0
1.17357e-14 1.00395 0
-6.14497e-15 1 0
1.42387e-15 1 0
1.36115e-14 1.00261 0
1.0269e-14 1.00261 0
1.42387e-15 1 0
8.2915e-15 1 0
1.0269e-14 1.00261 0
-1.35964e-15 1.00261 0
-6.54874e-15 1.00261 0
-8.68308e-16 1.00261 0
1.17357e-14 1.00395 0
6.36275e-15 1.00395 0
-8.68308e-16 1.00261 0
-5.52103e-16 1.00261 0
6.36275e-15 1.00395 0
5.51733e-15 1.00395 0
2.75381e-15 1.00395 0
-1.35388e-14 1.00395 0
9.56447e-15 1.00558 0
1.10075e-14 1.00558 0
-1.35388e-14 1.00395 0
9.68796e-15 1.00395 0
1.10075e-14 1.00558 0
6.51366e-15 1.00558 0
6.62774e-15 1.00558 0
3.9275e-15 1.00558 0
6.54811e-15 1.00708 0
6.00232e-15 1.00708 0
3.9275e-15 1.00558 0
-5.21989e-15 1.00558 0
6.00232e-15 1.00708 0
2.33624e-16 1.00708 0
9.68796e-15 1.00395 0
-8.60399e-16 1.00395 0
6.51366e-15 1.00558 0
6.85944e-15 1.00558 0
-8.60399e-16 1.00395 0
-6.57958e-15 1.00395 0
6.85944e-15 1.00558 0
9.73204e-15 1.00558 0
-5.21989e-15 1.00558 0
4.48405e-16 1.00558 0
2.33624e-16 1.00708 0
3.22583e-15 1.00708 0
4.48405e-16 1.00558 0
-6.63678e-15 1.00558 0
3.22583e-15 1.00708 0
2.18056e-15 1.00708 0
-7.70846e-15 1.00708 0
-5.2414e-15 1.00708 0
4.47909e-15 1.00859 0
4.92896e-15 1.00859 0
-5.2414e-15 1.00708 0
-1.60324e-14 1.00708 0
4.92896e-15 1.00859 0
-6.67516e-17 1.00859 0
3.99872e-14 1.00859 0
-1.29151e-14 1.00859 0
3.13406e-14 1.01005 0
-1.80853e-15 1.01005 0
-1.29151e-14 1.00859 0
4.94865e-15 1.00859 0
-1.80853e-15 1.01005 0
3.3371e-16 1.01005 0
-1.60324e-14 1.00708 0
3.83414e-15 1.00708 0
-6.67516e-17 1.00859 0
-9.46018e-16 1.00859 0
3.83414e-15 1.00708 0
-1.05953e-14 1.00708 0
-9.46018e-16 1.00859 0
9.98787e-15 1.00859 0
4.94865e-15 1.00859 0
3.1178e-15 1.00859 0
3.3371e-16 1.01005 0
3.12588e-15 1.01005 0
3.1178e-15 1.00859 0
-5.14518e-15 1.00859 0
3.12588e-15 1.01005 0
3.60824e-15 1.01005 0
-3.54882e-14 1.01005 0
1.29864e-14 1.01005 0
-2.87879e-14 1.0115 0
1.40705e-14 1.0115 0
1.29864e-14 1.01005 0
-4.27894e-15 1.01005 0
1.40705e-14 1.0115 0
-6.0698e-15 1.0115 0
-7.51719e-15 1.0115 0
-1.05851e-14 1.0115 0
-1.49497e-15 1.01292 0
-3.78893e-15 1.01292 0
-1.05851e-14 1.0115 0
3.16428e-14 1.0115 0
-3.78893e-15 1.01292 0
3.20859e-14 1.01292 0
-4.27894e-15 1.01005 0
-6.80866e-15 1.01005 0
-6.0698e-15 1.0115 0
4.58902e-15 1.0115 0
-6.80866e-15 1.01005 0
-1.33703e-15 1.01005 0
4.58902e-15 1.0115 0
1.107e-15 1.0115 0
3.16428e-14 1.0115 0
6.52708e-15 1.0115 0
3.20859e-14 1.01292 0
4.74443e-16 1.01292 0
6.52708e-15 1.0115 0
-4.56669e-15 1.0115 0
4.74443e-16 1.01292 0
4.77969e-15 1.01292 0
-1.05953e-14 1.00708 0
-3.09547e-15 1.00708 0
9.98787e-15 1.00859 0
3.82048e-15 1.00859 0
-3.09547e-15 1.00708 0
-1.08418e-15 1.00708 0
3.82048e-15 1.00859 0
1.78707e-15 1.00859 0
-5.14518e-15 1.00859 0
-2.2559e-15 1.00859 0
3.60824e-15 1.01005 0
7.42619e-16 1.01005 0
-2.2559e-15 1.00859 0
9.13271e-15 1.00859 0
7.42619e-16 1.01005 0
-7.82714e-15 1.01005 0
-1.08418e-15 1.00708 0
6.50586e-15 1.00708 0
1.78707e-15 1.00859 0
-3.77797e-16 1.00859 0
6.50586e-15 1.00708 0
6.04871e-15 1.00708 0
-3.77797e-16 1.00859 0
4.16311e-15 1.00859 0
9.13271e-15 1.00859 0
-4.88068e-15 1.00859 0
-7.82714e-15 1.01005 0
6.79342e-15 1.01005 0
-4.88068e-15 1.00859 0
-7.74586e-15 1.00859 0
6.79342e-15 1.01005 0
7.1909e-15 1.01005 0
-1.33703e-15 1.01005 0
1.92859e-15 1.01005 0
1.107e-15 1.0115 0
-1.76391e-15 1.0115 0
1.92859e-15 1.01005 0
-6.09397e-15 1.01005 0
-1.76391e-15 1.0115 0
3.65088e-15 1.0115 0
-4.56669e-15 1.0115 0
9.04398e-16 1.0115 0
4.77969e-15 1.01292 0
-1.51073e-15 1.01292 0
9.04398e-16 1.0115 0
-6.31814e-17 1.0115 0
-1.51073e-15 1.01292 0
1.9187e-15 1.01292 0
-6.09397e-15 1.01005 0
-2.39459e-15 1.01005 0
3.65088e-15 1.0115 0
2.27869e-15 1.0115 0
-2.39459e-15 1.01005 0
-4.98685e-16 1.01005 0
2.27869e-15 1.0115 0
5.34664e-15 1.0115 0
-6.31814e-17 1.0115 0
-3.59203e-15 1.0115 0
1.9187e-15 1.01292 0
-1.35602e-15 1.01292 0
-3.59203e-15 1.0115 0
-1.82888e-15 1.0115 0
-1.35602e-15 1.01292 0
-5.26098e-16 1.01292 0
0 1.01292 0
-6.35645e-14 1.01292 0
0 1.01432 0
-5.98954e-14 1.01432 0
-6.35645e-14 1.01292 0
-1.36199e-13 1.01292 0
-5.98954e-14 1.01432 0
-1.2965e-13 1.01432 0
0 1.01432 0
6.51528e-14 1.01432 0
0 1.01572 0
6.14873e-14 1.01572 0
6.51528e-14 1.01432 0
1.26767e-13 1.01432 0
6.14873e-14 1.01572 0
1.30499e-13 1.01572 0
-1.36199e-13 1.01292 0
4.96503e-14 1.01292 0
-1.2965e-13 1.01432 0
3.91805e-14 1.01432 0
4.96503e-14 1.01292 0
9.81603e-14 1.01292 0
3.91805e-14 1.01432 0
9.54228e-14 1.01432 0
1.26767e-13 1.01432 0
-1.38321e-13 1.01432 0
1.30499e-13 1.01572 0
-1.37066e-13 1.01572 0
-1.38321e-13 1.01432 0
-5.00368e-14 1.01432 0
-1.37066e-13 1.01572 0
-5.41378e-14 1.01572 0
0 1.01572 0
-5.98522e-14 1.01572 0
0 1.01712 0
-5.79944e-14 1.01712 0
-5.98522e-14 1.01572 0
-8.98666e-14 1.01572 0
-5.79944e-14 1.01712 0
-8.87937e-14 1.01712 0
0 1.01712 0
4.06025e-14 1.01712 0
0 1.01853 0
4.51835e-14 1.01853 0
4.06025e-14 1.01712 0
5.52228e-14 1.01712 0
4.51835e-14 1.01853 0
5.58751e-14 1.01853 0
-8.98666e-14 1.01572 0
1.0039e-13 1.01572 0
-8.87937e-14 1.01712 0
1.01278e-13 1.01712 0
1.0039e-13 1.01572 0
4.61061e-14 1.01572 0
1.01278e-13 1.01712 0
5.16683e-14 1.01712 0
5.52228e-14 1.01712 0
-4.14594e-14 1.01712 0
5.58751e-14 1.01853 0
-3.8087e-14 1.01853 0
-4.14594e-14 1.01712 0
-1.28022e-14 1.01712 0
-3.8087e-14 1.01853 0
-1.59664e-14 1.01853 0
9.81603e-14 1.01292 0
7.67267e-14 1.01292 0
9.54228e-14 1.01432 0
8.17651e-14 1.01432 0
7.67267e-14 1.01292 0
4.91506e-15 1.01292 0
8.17651e-14 1.01432 0
7.827e-15 1.01432 0
-5.00368e-14 1.01432 0
-1.06408e-14 1.01432 0
-5.41378e-14 1.01572 0
-1.21079e-14 1.01572 0
-1.06408e-14 1.01432 0
-2.64465e-15 1.01432 0
-1.21079e-14 1.01572 0
-4.45938e-15 1.01572 0
4.91506e-15 1.01292 0
-1.53428e-14 1.01292 0
7.827e-15 1.01432 0
-5.51628e-15 1.01432 0
-1.53428e-14 1.01292 0
7.32623e-15 1.01292 0
-5.51628e-15 1.01432 0
1.07941e-14 1.01432 0
-2.64465e-15 1.01432 0
-5.53502e-16 1.01432 0
-4.45938e-15 1.01572 0
6.3918e-15 1.01572 0
-5.53502e-16 1.01432 0
-7.64097e-15 1.01432 0
6.3918e-15 1.01572 0
5.68443e-16 1.01572 0
4.61061e-14 1.01572 0
1.18372e-14 1.01572 0
5.16683e-14 1.01712 0
5.60947e-15 1.01712 0
1.18372e-14 1.01572 0
5.6006e-15 1.01572 0
5.60947e-15 1.01712 0
2.41642e-15 1.01712 0
-1.28022e-14 1.01712 0
-1.11908e-14 1.01712 0
-1.59664e-14 1.01853 0
-1.07415e-14 1.01853 0
-1.11908e-14 1.01712 0
-4.34744e-15 1.01712 0
-1.07415e-14 1.01853 0
1.11277e-15 1.01853 0
5.6006e-15 1.01572 0
-1.47808e-15 1.01572 0
2.41642e-15 1.01712 0
6.42177e-15 1.01712 0
-1.47808e-15 1.01572 0
-7.62563e-15 1.01572 0
6.42177e-15 1.01712 0
5.99998e-15 1.01712 0
-4.34744e-15 1.01712 0
-4.8327e-15 1.01712 0
1.11277e-15 1.01853 0
1.99571e-15 1.01853 0
-4.8327e-15 1.01712 0
-4.93071e-15 1.01712 0
1.99571e-15 1.01853 0
4.18402e-15 1.01853 0
0 1.01853 0
2.57461e-14 1.01853 0
0 1.01995 0
2.67734e-14 1.01995 0
2.57461e-14 1.01853 0
-3.75703e-14 1.01853 0
2.67734e-14 1.01995 0
-3.50687e-14 1.01995 0
0 1.01995 0
-4.07935e-14 1.01995 0
0 1.02134 0
-3.63766e-14 1.02134 0
-4.07935e-14 1.01995 0
3.60331e-14 1.01995 0
-3.63766e-14 1.02134 0
3.43012e-14 1.02134 0
-3.75703e-14 1.01853 0
8.63938e-15 1.01853 0
-3.50687e-14 1.01995 0
3.67839e-15 1.01995 0
8.63938e-15 1.01853 0
-1.62319e-14 1.01853 0
3.67839e-15 1.01995 0
-1.22222e-14 1.01995 0
3.60331e-14 1.01995 0
-3.05678e-15 1.01995 0
3.43012e-14 1.02134 0
-3.12954e-15 1.02134 0
-3.05678e-15 1.01995 0
-3.93583e-15 1.01995 0
-3.12954e-15 1.02134 0
-1.74048e-15 1.02134 0
0 1.02134 0
4.22601e-15 1.02134 0
0 1.02255 0
3.66998e-15 1.02255 0
4.22601e-15 1.02134 0
-3.55431e-14 1.02134 0
3.66998e-15 1.02255 0
-3.55553e-14 1.02255 0
0 1.02255 0
2.18367e-15 1.02255 0
0 1.0231 0
1.42189e-16 1.0231 0
2.18367e-15 1.02255 0
-7.698e-15 1.02255 0
1.42189e-16 1.0231 0
3.71097e-15 1.0231 0
-3.55431e-14 1.02134 0
3.72018e-15 1.02134 0
-3.55553e-14 1.02255 0
1.1066e-16 1.02255 0
3.72018e-15 1.02134 0
1.99413e-15 1.02134 0
1.1066e-16 1.02255 0
1.47487e-15 1.02255 0
-7.698e-15 1.02255 0
-7.61117e-15 1.02255 0
3.71097e-15 1.0231 0
-1.72856e-14 1.0231 0
-7.61117e-15 1.02255 0
-1.26811e-16 1.02255 0
-1.72856e-14 1.0231 0
1.90346e-14 1.0231 0
-1.62319e-14 1.01853 0
-1.42275e-14 1.01853 0
-1.22222e-14 1.01995 0
-9.78026e-15 1.01995 0
-1.42275e-14 1.01853 0
-2.15606e-15 1.01853 0
-9.78026e-15 1.01995 0
1.32214e-15 1.01995 0
-3.93583e-15 1.01995 0
1.16963e-14 1.01995 0
-1.74048e-15 1.02134 0
9.26824e-15 1.02134 0
1.16963e-14 1.01995 0
-3.78484e-15 1.01995 0
9.26824e-15 1.02134 0
2.38274e-15 1.02134 0
-2.15606e-15 1.01853 0
4.50815e-16 1.01853 0
1.32214e-15 1.01995 0
-8.20623e-16 1.01995 0
4.50815e-16 1.01853 0
-5.4601e-15 1.01853 0
-8.20623e-16 1.01995 0
1.19409e-15 1.01995 0
-3.78484e-15 1.01995 0
-4.79385e-15 1.01995 0
2.38274e-15 1.02134 0
2.33667e-15 1.02134 0
-4.79385e-15 1.01995 0
-2.14169e-16 1.01995 0
2.33667e-15 1.02134 0
1.49209e-15 1.02134 0
1.99413e-15 1.02134 0
-1.56506e-14 1.02134 0
1.47487e-15 1.02255 0
-1.10725e-14 1.02255 0
-1.56506e-14 1.02134 0
-1.70883e-15 1.02134 0
-1.10725e-14 1.02255 0
1.43168e-15 1.02255 0
-1.26811e-16 1.02255 0
-3.92983e-15 1.02255 0
1.90346e-14 1.0231 0
5.14706e-15 1.0231 0
-3.92983e-15 1.02255 0
-1.69293e-15 1.02255 0
5.14706e-15 1.0231 0
-9.36759e-17 1.0231 0
-1.70883e-15 1.02134 0
-2.27624e-15 1.02134 0
1.43168e-15 1.02255 0
3.03307e-15 1.02255 0
-2.27624e-15 1.02134 0
2.64757e-17 1.02134 0
3.03307e-15 1.02255 0
7.80342e-16 1.02255 0
-1.69293e-15 1.02255 0
-1.26424e-15 1.02255 0
-9.36759e-17 1.0231 0
7.64462e-15 1.0231 0
-1.26424e-15 1.02255 0
2.06543e-15 1.02255 0
7.64462e-15 1.0231 0
-2.42572e-14 1.0231 0
7.32623e-15 1.01292 0
5.29571e-15 1.01292 0
1.07941e-14 1.01432 0
1.81393e-14 1.01432 0
5.29571e-15 1.01292 0
-2.04116e-14 1.01292 0
1.81393e-14 1.01432 0
-2.60272e-14 1.01432 0
-7.64097e-15 1.01432 0
-5.64319e-15 1.01432 0
5.68443e-16 1.01572 0
2.2634e-15 1.01572 0
-5.64319e-15 1.01432 0
2.01431e-15 1.01432 0
2.2634e-15 1.01572 0
-2.68652e-17 1.01572 0
-2.04116e-14 1.01292 0
-3.92934e-15 1.01292 0
-2.60272e-14 1.01432 0
4.32967e-15 1.01432 0
-3.92934e-15 1.01292 0
-2.22018e-15 1.01292 0
4.32967e-15 1.01432 0
4.36977e-15 1.01432 0
2.01431e-15 1.01432 0
-4.81605e-15 1.01432 0
-2.68652e-17 1.01572 0
1.7114e-15 1.01572 0
-4.81605e-15 1.01432 0
-1.1441e-15 1.01432 0
1.7114e-15 1.01572 0
1.36789e-15 1.01572 0
-7.62563e-15 1.01572 0
-1.62175e-15 1.01572 0
5.99998e-15 1.01712 0
3.5382e-15 1.01712 0
-1.62175e-15 1.01572 0
-2.71939e-15 1.01572 0
3.5382e-15 1.01712 0
4.78997e-15 1.01712 0
-4.93071e-15 1.01712 0
-2.17718e-15 1.01712 0
4.18402e-15 1.01853 0
-8.43954e-16 1.01853 0
-2.17718e-15 1.01712 0
-4.23869e-16 1.01712 0
-8.43954e-16 1.01853 0
9.81253e-16 1.01853 0
-2.71939e-15 1.01572 0
-6.99202e-16 1.01572 0
4.78997e-15 1.01712 0
4.85213e-15 1.01712 0
-6.99202e-16 1.01572 0
4.16036e-16 1.01572 0
4.85213e-15 1.01712 0
2.90169e-16 1.01712 0
-4.23869e-16 1.01712 0
-6.1449e-15 1.01712 0
9.81253e-16 1.01853 0
3.34447e-15 1.01853 0
-6.1449e-15 1.01712 0
1.48165e-15 1.01712 0
3.34447e-15 1.01853 0
1.14689e-15 1.01853 0
-2.22018e-15 1.01292 0
1.40126e-15 1.01292 0
4.36977e-15 1.01432 0
2.06611e-16 1.01432 0
1.40126e-15 1.01292 0
1.15582e-15 1.01292 0
2.06611e-16 1.01432 0
5.02727e-15 1.01432 0
-1.1441e-15 1.01432 0
-6.72748e-16 1.01432 0
1.36789e-15 1.01572 0
1.44409e-15 1.01572 0
-6.72748e-16 1.01432 0
-3.376e-15 1.01432 0
1.44409e-15 1.01572 0
3.16434e-15 1.01572 0
1.15582e-15 1.01292 0
-4.37039e-15 1.01292 0
5.02727e-15 1.01432 0
4.35728e-15 1.01432 0
-4.37039e-15 1.01292 0
4.56417e-15 1.01292 0
4.35728e-15 1.01432 0
-3.96666e-16 1.01432 0
-3.376e-15 1.01432 0
3.54029e-16 1.01432 0
3.16434e-15 1.01572 0
1.17401e-15 1.01572 0
3.54029e-16 1.01432 0
-4.02446e-15 1.01432 0
1.17401e-15 1.01572 0
5.13454e-15 1.01572 0
4.16036e-16 1.01572 0
-2.43641e-15 1.01572 0
2.90169e-16 1.01712 0
1.54575e-15 1.01712 0
-2.43641e-15 1.01572 0
-3.0138e-15 1.01572 0
1.54575e-15 1.01712 0
3.15962e-15 1.01712 0
1.48165e-15 1.01712 0
-1.98662e-15 1.01712 0
1.14689e-15 1.01853 0
4.55596e-15 1.01853 0
-1.98662e-15 1.01712 0
-5.70084e-15 1.01712 0
4.55596e-15 1.01853 0
3.68995e-15 1.01853 0
-3.0138e-15 1.01572 0
1.31959e-17 1.01572 0
3.15962e-15 1.01712 0
3.98603e-15 1.01712 0
1.31959e-17 1.01572 0
-1.6419e-15 1.01572 0
3.98603e-15 1.01712 0
7.04751e-15 1.01712 0
-5.70084e-15 1.01712 0
-4.62485e-15 1.01712 0
3.68995e-15 1.01853 0
5.85306e-16 1.01853 0
-4.62485e-15 1.01712 0
5.07221e-15 1.01712 0
5.85306e-16 1.01853 0
-5.51972e-15 1.01853 0
-5.4601e-15 1.01853 0
-7.70703e-15 1.01853 0
1.19409e-15 1.01995 0
1.23529e-15 1.01995 0
-7.70703e-15 1.01853 0
-4.38919e-15 1.01853 0
1.23529e-15 1.01995 0
1.26976e-15 1.01995 0
-2.14169e-16 1.01995 0
-5.22269e-17 1.01995 0
1.49209e-15 1.02134 0
2.93527e-15 1.02134 0
-5.22269e-17 1.01995 0
-7.97789e-16 1.01995 0
2.93527e-15 1.02134 0
2.07986e-15 1.02134 0
-4.38919e-15 1.01853 0
3.23736e-15 1.01853 0
1.26976e-15 1.01995 0
7.03725e-16 1.01995 0
3.23736e-15 1.01853 0
-3.64983e-16 1.01853 0
7.03725e-16 1.01995 0
1.13143e-15 1.01995 0