# vtk DataFile Version 3.0
#This file was generated by the deal.II library on 2018/10/12 at 1:53:03
ASCII
DATASET UNSTRUCTURED_GRID

POINTS 5120 double
0 0 0
0.392699 0 0
0 0.586716 0
0.392699 0.586716 0
0.392699 0 0
0.785398 0 0
0.392699 0.586716 0
0.785398 0.586716 0
0 0.586716 0
0.392699 0.586716 0
0 1.21435 0
0.392699 1.21435 0
0.392699 0.586716 0
0.785398 0.586716 0
0.392699 1.21435 0
0.785398 1.21435 0
0.785398 0 0
1.1781 0 0
0.785398 0.586716 0
1.1781 0.586716 0
1.1781 0 0
1.5708 0 0
1.1781 0.586716 0
1.5708 0.586716 0
0.785398 0.586716 0
1.1781 0.586716 0
0.785398 1.21435 0
1.1781 1.21435 0
1.1781 0.586716 0
1.5708 0.586716 0
1.1781 1.21435 0
1.5708 1.21435 0
0 1.21435 0
0.392699 1.21435 0
0 1.84077 0
0.392699 1.84077 0
0.392699 1.21435 0
0.785398 1.21435 0
0.392699 1.84077 0
0.785398 1.84077 0
0 1.84077 0
0.392699 1.84077 0
0 2.46865 0
0.392699 2.46865 0
0.392699 1.84077 0
0.785398 1.84077 0
0.392699 2.46865 0
0.785398 2.46865 0
0.785398 1.21435 0
1.1781 1.21435 0
0.785398 1.84077 0
1.1781 1.84077 0
1.1781 1.21435 0
1.5708 1.21435 0
1.1781 1.84077 0
1.5708 1.84077 0
0.785398 1.84077 0
1.1781 1.84077 0
0.785398 2.46865 0
1.1781 2.46865 0
1.1781 1.84077 0
1.5708 1.84077 0
1.1781 2.46865 0
1.5708 2.46865 0
1.5708 0 0
1.9635 0 0
1.5708 0.586716 0
1.9635 0.586716 0
1.9635 0 0
2.35619 0 0
1.9635 0.586716 0
2.35619 0.586716 0
1.5708 0.586716 0
1.9635 0.586716 0
1.5708 1.21435 0
1.9635 1.21435 0
1.9635 0.586716 0
2.35619 0.586716 0
1.9635 1.21435 0
2.35619 1.21435 0
2.35619 0 0
2.74889 0 0
2.35619 0.586716 0
2.74889 0.586716 0
2.74889 0 0
3.14159 0 0
2.74889 0.586716 0
3.14159 0.586716 0
2.35619 0.586716 0
2.74889 0.586716 0
2.35619 1.21435 0
2.74889 1.21435 0
2.74889 0.586716 0
3.14159 0.586716 0
2.74889 1.21435 0
3.14159 1.21435 0
1.5708 1.21435 0
1.9635 1.21435 0
1.5708 1.84077 0
1.9635 1.84077 0
1.9635 1.21435 0
2.35619 1.21435 0
1.9635 1.84077 0
2.35619 1.84077 0
1.5708 1.84077 0
1.9635 1.84077 0
1.5708 2.46865 0
1.9635 2.46865 0
1.9635 1.84077 0
2.35619 1.84077 0
1.9635 2.46865 0
2.35619 2.46865 0
2.35619 1.21435 0
2.74889 1.21435 0
2.35619 1.84077 0
2.74889 1.84077 0
2.74889 1.21435 0
3.14159 1.21435 0
2.74889 1.84077 0
3.14159 1.84077 0
2.35619 1.84077 0
2.74889 1.84077 0
2.35619 2.46865 0
2.74889 2.46865 0
2.74889 1.84077 0
3.14159 1.84077 0
2.74889 2.46865 0
3.14159 2.46865 0
0 2.46865 0
0.392699 2.46865 0
0 3.09612 0
0.392699 3.09612 0
0.392699 2.46865 0
0.785398 2.46865 0
0.392699 3.09612 0
0.785398 3.09612 0
0 3.09612 0
0.392699 3.09612 0
0 3.72364 0
0.392699 3.72364 0
0.392699 3.09612 0
0.785398 3.09612 0
0.392699 3.72364 0
0.785398 3.72364 0
0.785398 2.46865 0
1.1781 2.46865 0
0.785398 3.09612 0
1.1781 3.09612 0
1.1781 2.46865 0
1.5708 2.46865 0
1.1781 3.09612 0
1.5708 3.09612 0
0.785398 3.09612 0
1.1781 3.09612 0
0.785398 3.72364 0
1.1781 3.72364 0
1.1781 3.09612 0
1.5708 3.09612 0
1.1781 3.72364 0
1.5708 3.72364 0
0 3.72364 0
0.392699 3.72364 0
0 4.35104 0
0.392699 4.35104 0
0.392699 3.72364 0
0.785398 3.72364 0
0.392699 4.35104 0
0.785398 4.35104 0
0 4.35104 0
0.392699 4.35104 0
0 4.97834 0
0.392699 4.97834 0
0.392699 4.35104 0
0.785398 4.35104 0
0.392699 4.97834 0
0.785398 4.97834 0
0.785398 3.72364 0
1.1781 3.72364 0
0.785398 4.35104 0
1.1781 4.35104 0
1.1781 3.72364 0
1.5708 3.72364 0
1.1781 4.35104 0
1.5708 4.35104 0
0.785398 4.35104 0
1.1781 4.35104 0
0.785398 4.97834 0
1.1781 4.97834 0
1.1781 4.35104 0
1.5708 4.35104 0
1.1781 4.97834 0
1.5708 4.97834 0
1.5708 2.46865 0
1.9635 2.46865 0
1.5708 3.09612 0
1.9635 3.09612 0
1.9635 2.46865 0
2.35619 2.46865 0
1.9635 3.09612 0
2.35619 3.09612 0
1.5708 3.09612 0
1.9635 3.09612 0
1.5708 3.72364 0
1.9635 3.72364 0
1.9635 3.09612 0
2.35619 3.09612 0
1.9635 3.72364 0
2.35619 3.72364 0
2.35619 2.46865 0
2.74889 2.46865 0
2.35619 3.09612 0
2.74889 3.09612 0
2.74889 2.46865 0
3.14159 2.46865 0
2.74889 3.09612 0
3.14159 3.09612 0
2.35619 3.09612 0
2.74889 3.09612 0
2.35619 3.72364 0
2.74889 3.72364 0
2.74889 3.09612 0
3.14159 3.09612 0
2.74889 3.72364 0
3.14159 3.72364 0
1.5708 3.72364 0
1.9635 3.72364 0
1.5708 4.35104 0
1.9635 4.35104 0
1.9635 3.72364 0
2.35619 3.72364 0
1.9635 4.35104 0
2.35619 4.35104 0
1.5708 4.35104 0
1.9635 4.35104 0
1.5708 4.97834 0
1.9635 4.97834 0
1.9635 4.35104 0
2.35619 4.35104 0
1.9635 4.97834 0
2.35619 4.97834 0
2.35619 3.72364 0
2.74889 3.72364 0
2.35619 4.35104 0
2.74889 4.35104 0
2.74889 3.72364 0
3.14159 3.72364 0
2.74889 4.35104 0
3.14159 4.35104 0
2.35619 4.35104 0
2.74889 4.35104 0
2.35619 4.97834 0
2.74889 4.97834 0
2.74889 4.35104 0
3.14159 4.35104 0
2.74889 4.97834 0
3.14159 4.97834 0
3.14159 0 0
3.53429 0 0
3.14159 0.586716 0
3.53429 0.586716 0
3.53429 0 0
3.92699 0 0
3.53429 0.586716 0
3.92699 0.586716 0
3.14159 0.586716 0
3.53429 0.586716 0
3.14159 1.21435 0
3.53429 1.21435 0
3.53429 0.586716 0
3.92699 0.586716 0
3.53429 1.21435 0
3.92699 1.21435 0
3.92699 0 0
4.31969 0 0
3.92699 0.586716 0
4.31969 0.586716 0
4.31969 0 0
4.71239 0 0
4.31969 0.586716 0
4.71239 0.586716 0
3.92699 0.586716 0
4.31969 0.586716 0
3.92699 1.21435 0
4.31969 1.21435 0
4.31969 0.586716 0
4.71239 0.586716 0
4.31969 1.21435 0
4.71239 1.21435 0
3.14159 1.21435 0
3.53429 1.21435 0
3.14159 1.84077 0
3.53429 1.84077 0
3.53429 1.21435 0
3.92699 1.21435 0
3.53429 1.84077 0
3.92699 1.84077 0
3.14159 1.84077 0
3.53429 1.84077 0
3.14159 2.46865 0
3.53429 2.46865 0
3.53429 1.84077 0
3.92699 1.84077 0
3.53429 2.46865 0
3.92699 2.46865 0
3.92699 1.21435 0
4.31969 1.21435 0
3.92699 1.84077 0
4.31969 1.84077 0
4.31969 1.21435 0
4.71239 1.21435 0
4.31969 1.84077 0
4.71239 1.84077 0
3.92699 1.84077 0
4.31969 1.84077 0
3.92699 2.46865 0
4.31969 2.46865 0
4.31969 1.84077 0
4.71239 1.84077 0
4.31969 2.46865 0
4.71239 2.46865 0
4.71239 0 0
5.10509 0 0
4.71239 0.586716 0
5.10509 0.586716 0
5.10509 0 0
5.49779 0 0
5.10509 0.586716 0
5.49779 0.586716 0
4.71239 0.586716 0
5.10509 0.586716 0
4.71239 1.21435 0
5.10509 1.21435 0
5.10509 0.586716 0
5.49779 0.586716 0
5.10509 1.21435 0
5.49779 1.21435 0
5.49779 0 0
5.89049 0 0
5.49779 0.586716 0
5.89049 0.586716 0
5.89049 0 0
6.28319 0 0
5.89049 0.586716 0
6.28319 0.586716 0
5.49779 0.586716 0
5.89049 0.586716 0
5.49779 1.21435 0
5.89049 1.21435 0
5.89049 0.586716 0
6.28319 0.586716 0
5.89049 1.21435 0
6.28319 1.21435 0
4.71239 1.21435 0
5.10509 1.21435 0
4.71239 1.84077 0
5.10509 1.84077 0
5.10509 1.21435 0
5.49779 1.21435 0
5.10509 1.84077 0
5.49779 1.84077 0
4.71239 1.84077 0
5.10509 1.84077 0
4.71239 2.46865 0
5.10509 2.46865 0
5.10509 1.84077 0
5.49779 1.84077 0
5.10509 2.46865 0
5.49779 2.46865 0
5.49779 1.21435 0
5.89049 1.21435 0
5.49779 1.84077 0
5.89049 1.84077 0
5.89049 1.21435 0
6.28319 1.21435 0
5.89049 1.84077 0
6.28319 1.84077 0
5.49779 1.84077 0
5.89049 1.84077 0
5.49779 2.46865 0
5.89049 2.46865 0
5.89049 1.84077 0
6.28319 1.84077 0
5.89049 2.46865 0
6.28319 2.46865 0
3.14159 2.46865 0
3.53429 2.46865 0
3.14159 3.09612 0
3.53429 3.09612 0
3.53429 2.46865 0
3.92699 2.46865 0
3.53429 3.09612 0
3.92699 3.09612 0
3.14159 3.09612 0
3.53429 3.09612 0
3.14159 3.72364 0
3.53429 3.72364 0
3.53429 3.09612 0
3.92699 3.09612 0
3.53429 3.72364 0
3.92699 3.72364 0
3.92699 2.46865 0
4.31969 2.46865 0
3.92699 3.09612 0
4.31969 3.09612 0
4.31969 2.46865 0
4.71239 2.46865 0
4.31969 3.09612 0
4.71239 3.09612 0
3.92699 3.09612 0
4.31969 3.09612 0
3.92699 3.72364 0
4.31969 3.72364 0
4.31969 3.09612 0
4.71239 3.09612 0
4.31969 3.72364 0
4.71239 3.72364 0
3.14159 3.72364 0
3.53429 3.72364 0
3.14159 4.35104 0
3.53429 4.35104 0
3.53429 3.72364 0
3.92699 3.72364 0
3.53429 4.35104 0
3.92699 4.35104 0
3.14159 4.35104 0
3.53429 4.35104 0
3.14159 4.97834 0
3.53429 4.97834 0
3.53429 4.35104 0
3.92699 4.35104 0
3.53429 4.97834 0
3.92699 4.97834 0
3.92699 3.72364 0
4.31969 3.72364 0
3.92699 4.35104 0
4.31969 4.35104 0
4.31969 3.72364 0
4.71239 3.72364 0
4.31969 4.35104 0
4.71239 4.35104 0
3.92699 4.35104 0
4.31969 4.35104 0
3.92699 4.97834 0
4.31969 4.97834 0
4.31969 4.35104 0
4.71239 4.35104 0
4.31969 4.97834 0
4.71239 4.97834 0
4.71239 2.46865 0
5.10509 2.46865 0
4.71239 3.09612 0
5.10509 3.09612 0
5.10509 2.46865 0
5.49779 2.46865 0
5.10509 3.09612 0
5.49779 3.09612 0
4.71239 3.09612 0
5.10509 3.09612 0
4.71239 3.72364 0
5.10509 3.72364 0
5.10509 3.09612 0
5.49779 3.09612 0
5.10509 3.72364 0
5.49779 3.72364 0
5.49779 2.46865 0
5.89049 2.46865 0
5.49779 3.09612 0
5.89049 3.09612 0
5.89049 2.46865 0
6.28319 2.46865 0
5.89049 3.09612 0
6.28319 3.09612 0
5.49779 3.09612 0
5.89049 3.09612 0
5.49779 3.72364 0
5.89049 3.72364 0
5.89049 3.09612 0
6.28319 3.09612 0
5.89049 3.72364 0
6.28319 3.72364 0
4.71239 3.72364 0
5.10509 3.72364 0
4.71239 4.35104 0
5.10509 4.35104 0
5.10509 3.72364 0
5.49779 3.72364 0
5.10509 4.35104 0
5.49779 4.35104 0
4.71239 4.35104 0
5.10509 4.35104 0
4.71239 4.97834 0
5.10509 4.97834 0
5.10509 4.35104 0
5.49779 4.35104 0
5.10509 4.97834 0
5.49779 4.97834 0
5.49779 3.72364 0
5.89049 3.72364 0
5.49779 4.35104 0
5.89049 4.35104 0
5.89049 3.72364 0
6.28319 3.72364 0
5.89049 4.35104 0
6.28319 4.35104 0
5.49779 4.35104 0
5.89049 4.35104 0
5.49779 4.97834 0
5.89049 4.97834 0
5.89049 4.35104 0
6.28319 4.35104 0
5.89049 4.97834 0
6.28319 4.97834 0
0 4.97834 0
0.392699 4.97834 0
0 5.60552 0
0.392699 5.60552 0
0.392699 4.97834 0
0.785398 4.97834 0
0.392699 5.60552 0
0.785398 5.60552 0
0 5.60552 0
0.392699 5.60552 0
0 6.23259 0
0.392699 6.23259 0
0.392699 5.60552 0
0.785398 5.60552 0
0.392699 6.23259 0
0.785398 6.23259 0
0.785398 4.97834 0
1.1781 4.97834 0
0.785398 5.60552 0
1.1781 5.60552 0
1.1781 4.97834 0
1.5708 4.97834 0
1.1781 5.60552 0
1.5708 5.60552 0
0.785398 5.60552 0
1.1781 5.60552 0
0.785398 6.23259 0
1.1781 6.23259 0
1.1781 5.60552 0
1.5708 5.60552 0
1.1781 6.23259 0
1.5708 6.23259 0
0 6.23259 0
0.392699 6.23259 0
0 6.85959 0
0.392699 6.85959 0
0.392699 6.23259 0
0.785398 6.23259 0
0.392699 6.85959 0
0.785398 6.85959 0
0 6.85959 0
0.392699 6.85959 0
0 7.48659 0
0.392699 7.48659 0
0.392699 6.85959 0
0.785398 6.85959 0
0.392699 7.48659 0
0.785398 7.48659 0
0.785398 6.23259 0
1.1781 6.23259 0
0.785398 6.85959 0
[...]
POINT_DATA 5120
VECTORS uf double
0 1 0
-2.09933e-13 1 0
0 1.00262 0
-2.06886e-13 1.00262 0
-2.09933e-13 1 0
1.99034e-14 1 0
-2.06886e-13 1.00262 0
2.60346e-14 1.00262 0
0 1.00262 0
1.94774e-13 1.00262 0
0 1.00398 0
1.84077e-13 1.00398 0
1.94774e-13 1.00262 0
-6.62505e-14 1.00262 0
1.84077e-13 1.00398 0
-5.97152e-14 1.00398 0
1.99034e-14 1 0
3.17638e-13 1 0
2.60346e-14 1.00262 0
3.08965e-13 1.00262 0
3.17638e-13 1 0
5.18764e-14 1 0
3.08965e-13 1.00262 0
5.6469e-14 1.00262 0
-6.62505e-14 1.00262 0
-3.04625e-13 1.00262 0
-5.97152e-14 1.00398 0
-2.8812e-13 1.00398 0
-3.04625e-13 1.00262 0
-5.15215e-14 1.00262 0
-2.8812e-13 1.00398 0
-4.66383e-14 1.00398 0
0 1.00398 0
-2.94767e-14 1.00398 0
0 1.00562 0
-2.90344e-14 1.00562 0
-2.94767e-14 1.00398 0
1.3067e-13 1.00398 0
-2.90344e-14 1.00562 0
1.35173e-13 1.00562 0
0 1.00562 0
4.63169e-14 1.00562 0
0 1.00714 0
4.19622e-14 1.00714 0
4.63169e-14 1.00562 0
-7.76165e-14 1.00562 0
4.19622e-14 1.00714 0
-6.92948e-14 1.00714 0
1.3067e-13 1.00398 0
-1.84206e-14 1.00398 0
1.35173e-13 1.00562 0
1.61919e-15 1.00562 0
-1.84206e-14 1.00398 0
-1.24613e-14 1.00398 0
1.61919e-15 1.00562 0
3.09938e-15 1.00562 0
-7.76165e-14 1.00562 0
7.86152e-14 1.00562 0
-6.92948e-14 1.00714 0
8.56954e-14 1.00714 0
7.86152e-14 1.00562 0
-4.39515e-14 1.00562 0
8.56954e-14 1.00714 0
-3.4259e-14 1.00714 0
5.18764e-14 1 0
-3.03048e-14 1 0
5.6469e-14 1.00262 0
-1.09034e-14 1.00262 0
-3.03048e-14 1 0
-6.66147e-15 1 0
-1.09034e-14 1.00262 0
1.91539e-15 1.00262 0
-5.15215e-14 1.00262 0
1.89983e-14 1.00262 0
-4.66383e-14 1.00398 0
2.59791e-14 1.00398 0
1.89983e-14 1.00262 0
-2.84164e-15 1.00262 0
2.59791e-14 1.00398 0
1.33578e-14 1.00398 0
-6.66147e-15 1 0
-6.11974e-16 1 0
1.91539e-15 1.00262 0
5.13667e-16 1.00262 0
-6.11974e-16 1 0
-1.77514e-15 1 0
5.13667e-16 1.00262 0
1.99528e-16 1.00262 0
-2.84164e-15 1.00262 0
-2.59398e-15 1.00262 0
1.33578e-14 1.00398 0
3.4576e-15 1.00398 0
-2.59398e-15 1.00262 0
2.11124e-15 1.00262 0
3.4576e-15 1.00398 0
5.9911e-15 1.00398 0
-1.24613e-14 1.00398 0
9.23787e-14 1.00398 0
3.09938e-15 1.00562 0
7.69083e-14 1.00562 0
9.23787e-14 1.00398 0
-5.89539e-15 1.00398 0
7.69083e-14 1.00562 0
3.06196e-16 1.00562 0
-4.39515e-14 1.00562 0
-6.58469e-14 1.00562 0
-3.4259e-14 1.00714 0
-7.24156e-14 1.00714 0
-6.58469e-14 1.00562 0
3.13487e-15 1.00562 0
-7.24156e-14 1.00714 0
-4.99393e-15 1.00714 0
-5.89539e-15 1.00398 0
-1.20473e-15 1.00398 0
3.06196e-16 1.00562 0
4.33319e-15 1.00562 0
-1.20473e-15 1.00398 0
1.09916e-16 1.00398 0
4.33319e-15 1.00562 0
3.38476e-15 1.00562 0
3.13487e-15 1.00562 0
-1.79973e-15 1.00562 0
-4.99393e-15 1.00714 0
9.84221e-16 1.00714 0
-1.79973e-15 1.00562 0
4.87526e-16 1.00562 0
9.84221e-16 1.00714 0
-3.97261e-15 1.00714 0
0 1.00714 0
-1.1105e-13 1.00714 0
0 1.00865 0
-1.05756e-13 1.00865 0
-1.1105e-13 1.00714 0
-5.44095e-15 1.00714 0
-1.05756e-13 1.00865 0
-3.12859e-16 1.00865 0
0 1.00865 0
1.22966e-13 1.00865 0
0 1.01013 0
1.18854e-13 1.01013 0
1.22966e-13 1.00865 0
5.59482e-14 1.00865 0
1.18854e-13 1.01013 0
5.90374e-14 1.01013 0
-5.44095e-15 1.00714 0
-1.01354e-13 1.00714 0
-3.12859e-16 1.00865 0
-8.23903e-14 1.00865 0
-1.01354e-13 1.00714 0
5.38425e-14 1.00714 0
-8.23903e-14 1.00865 0
4.02511e-14 1.00865 0
5.59482e-14 1.00865 0
7.61933e-14 1.00865 0
5.90374e-14 1.01013 0
8.63318e-14 1.01013 0
7.61933e-14 1.00865 0
-6.73411e-14 1.00865 0
8.63318e-14 1.01013 0
-6.16397e-14 1.01013 0
0 1.01013 0
1.73354e-15 1.01013 0
0 1.01158 0
-1.04204e-15 1.01158 0
1.73354e-15 1.01013 0
-2.20683e-13 1.01013 0
-1.04204e-15 1.01158 0
-2.18552e-13 1.01158 0
0 1.01158 0
1.28487e-14 1.01158 0
0 1.01301 0
5.68965e-15 1.01301 0
1.28487e-14 1.01158 0
2.12185e-13 1.01158 0
5.68965e-15 1.01301 0
2.12325e-13 1.01301 0
-2.20683e-13 1.01013 0
-7.87163e-14 1.01013 0
-2.18552e-13 1.01158 0
-7.11074e-14 1.01158 0
-7.87163e-14 1.01013 0
1.46805e-13 1.01013 0
-7.11074e-14 1.01158 0
1.46791e-13 1.01158 0
2.12185e-13 1.01158 0
3.33851e-14 1.01158 0
2.12325e-13 1.01301 0
2.71993e-14 1.01301 0
3.33851e-14 1.01158 0
-1.5647e-13 1.01158 0
2.71993e-14 1.01301 0
-1.46329e-13 1.01301 0
5.38425e-14 1.00714 0
3.32794e-14 1.00714 0
4.02511e-14 1.00865 0
3.79504e-14 1.00865 0
3.32794e-14 1.00714 0
2.55467e-15 1.00714 0
3.79504e-14 1.00865 0
-9.59483e-17 1.00865 0
-6.73411e-14 1.00865 0
-5.17637e-14 1.00865 0
-6.16397e-14 1.01013 0
-4.45903e-14 1.01013 0
-5.17637e-14 1.00865 0
-2.73066e-14 1.00865 0
-4.45903e-14 1.01013 0
-1.56052e-14 1.01013 0
2.55467e-15 1.00714 0
-1.70446e-15 1.00714 0
-9.59483e-17 1.00865 0
-2.84073e-16 1.00865 0
-1.70446e-15 1.00714 0
-3.7641e-15 1.00714 0
-2.84073e-16 1.00865 0
9.93357e-15 1.00865 0
-2.73066e-14 1.00865 0
-2.39549e-15 1.00865 0
-1.56052e-14 1.01013 0
5.91777e-15 1.01013 0
-2.39549e-15 1.00865 0
4.15383e-14 1.00865 0
5.91777e-15 1.01013 0
4.55409e-14 1.01013 0
1.46805e-13 1.01013 0
-2.18509e-14 1.01013 0
1.46791e-13 1.01158 0
-1.96761e-14 1.01158 0
-2.18509e-14 1.01013 0
1.86932e-14 1.01013 0
-1.96761e-14 1.01158 0
2.63486e-14 1.01158 0
-1.5647e-13 1.01158 0
-4.76769e-14 1.01158 0
-1.46329e-13 1.01301 0
-4.1864e-14 1.01301 0
-4.76769e-14 1.01158 0
-5.82114e-15 1.01158 0
-4.1864e-14 1.01301 0
-7.4501e-15 1.01301 0
1.86932e-14 1.01013 0
-5.54393e-15 1.01013 0
2.63486e-14 1.01158 0
-1.1325e-14 1.01158 0
-5.54393e-15 1.01013 0
-4.85282e-14 1.01013 0
-1.1325e-14 1.01158 0
-3.77975e-14 1.01158 0
-5.82114e-15 1.01158 0
2.03975e-14 1.01158 0
-7.4501e-15 1.01301 0
2.27824e-14 1.01301 0
2.03975e-14 1.01158 0
-9.70615e-15 1.01158 0
2.27824e-14 1.01301 0
6.93607e-17 1.01301 0
-1.77514e-15 1 0
-1.23391e-15 1 0
1.99528e-16 1.00262 0
2.50335e-15 1.00262 0
-1.23391e-15 1 0
5.6118e-15 1 0
2.50335e-15 1.00262 0
5.78614e-16 1.00262 0
2.11124e-15 1.00262 0
6.09252e-15 1.00262 0
5.9911e-15 1.00398 0
9.16826e-15 1.00398 0
6.09252e-15 1.00262 0
-3.56323e-15 1.00262 0
9.16826e-15 1.00398 0
3.57226e-15 1.00398 0
5.6118e-15 1 0
2.23044e-15 1 0
5.78614e-16 1.00262 0
1.62774e-15 1.00262 0
2.23044e-15 1 0
-4.49998e-15 1 0
1.62774e-15 1.00262 0
1.03879e-14 1.00262 0
-3.56323e-15 1.00262 0
5.11828e-16 1.00262 0
3.57226e-15 1.00398 0
3.48986e-15 1.00398 0
5.11828e-16 1.00262 0
1.5328e-15 1.00262 0
3.48986e-15 1.00398 0
1.26459e-15 1.00398 0
1.09916e-16 1.00398 0
-4.52171e-15 1.00398 0
3.38476e-15 1.00562 0
3.14407e-15 1.00562 0
-4.52171e-15 1.00398 0
-1.87915e-15 1.00398 0
3.14407e-15 1.00562 0
5.94566e-15 1.00562 0
4.87526e-16 1.00562 0
3.83151e-15 1.00562 0
-3.97261e-15 1.00714 0
6.72029e-15 1.00714 0
3.83151e-15 1.00562 0
1.38749e-14 1.00562 0
6.72029e-15 1.00714 0
6.69712e-15 1.00714 0
-1.87915e-15 1.00398 0
1.3733e-14 1.00398 0
5.94566e-15 1.00562 0
-7.64619e-15 1.00562 0
1.3733e-14 1.00398 0
4.33499e-17 1.00398 0
-7.64619e-15 1.00562 0
1.26218e-14 1.00562 0
1.38749e-14 1.00562 0
-1.14324e-14 1.00562 0
6.69712e-15 1.00714 0
1.36838e-14 1.00714 0
-1.14324e-14 1.00562 0
3.16207e-15 1.00562 0
1.36838e-14 1.00714 0
5.85328e-15 1.00714 0
-4.49998e-15 1 0
1.98212e-15 1 0
1.03879e-14 1.00262 0
8.40113e-15 1.00262 0
1.98212e-15 1 0
6.09419e-16 1 0
8.40113e-15 1.00262 0
1.54299e-14 1.00262 0
1.5328e-15 1.00262 0
-3.25363e-15 1.00262 0
1.26459e-15 1.00398 0
4.23199e-15 1.00398 0
-3.25363e-15 1.00262 0
-1.95225e-14 1.00262 0
4.23199e-15 1.00398 0
1.92503e-14 1.00398 0
6.09419e-16 1 0
4.29138e-15 1 0
1.54299e-14 1.00262 0
1.13885e-14 1.00262 0
4.29138e-15 1 0
2.74326e-15 1 0
1.13885e-14 1.00262 0
6.70745e-15 1.00262 0
-1.95225e-14 1.00262 0
2.70044e-15 1.00262 0
1.92503e-14 1.00398 0
-9.21941e-16 1.00398 0
2.70044e-15 1.00262 0
-5.90651e-15 1.00262 0
-9.21941e-16 1.00398 0
1.12828e-14 1.00398 0
4.33499e-17 1.00398 0
-1.21378e-14 1.00398 0
1.26218e-14 1.00562 0
7.51987e-15 1.00562 0
-1.21378e-14 1.00398 0
2.91853e-15 1.00398 0
7.51987e-15 1.00562 0
-1.79234e-15 1.00562 0
3.16207e-15 1.00562 0
3.74872e-15 1.00562 0
5.85328e-15 1.00714 0
9.41068e-15 1.00714 0
3.74872e-15 1.00562 0
2.69907e-15 1.00562 0
9.41068e-15 1.00714 0
2.69414e-15 1.00714 0
2.91853e-15 1.00398 0
-5.08462e-15 1.00398 0
-1.79234e-15 1.00562 0
3.65937e-15 1.00562 0
-5.08462e-15 1.00398 0
-1.01228e-14 1.00398 0
3.65937e-15 1.00562 0
2.75968e-15 1.00562 0
2.69907e-15 1.00562 0
9.83456e-16 1.00562 0
2.69414e-15 1.00714 0
1.08586e-14 1.00714 0
9.83456e-16 1.00562 0
-3.43549e-15 1.00562 0
1.08586e-14 1.00714 0
5.27088e-15 1.00714 0
-3.7641e-15 1.00714 0
-1.87302e-15 1.00714 0
9.93357e-15 1.00865 0
-1.06976e-15 1.00865 0
-1.87302e-15 1.00714 0
-1.34679e-14 1.00714 0
-1.06976e-15 1.00865 0
-3.80845e-15 1.00865 0
4.15383e-14 1.00865 0
-1.3418e-14 1.00865 0
4.55409e-14 1.01013 0
-1.31465e-16 1.01013 0
-1.3418e-14 1.00865 0
-1.35931e-15 1.00865 0
-1.31465e-16 1.01013 0
5.25795e-15 1.01013 0
-1.34679e-14 1.00714 0
1.26588e-15 1.00714 0
-3.80845e-15 1.00865 0
4.53883e-15 1.00865 0
1.26588e-15 1.00714 0
-8.31637e-15 1.00714 0
4.53883e-15 1.00865 0
1.1442e-14 1.00865 0
-1.35931e-15 1.00865 0
-1.3488e-15 1.00865 0
5.25795e-15 1.01013 0
5.03403e-15 1.01013 0
-1.3488e-15 1.00865 0
-7.34283e-15 1.00865 0
5.03403e-15 1.01013 0
6.84323e-15 1.01013 0
-4.85282e-14 1.01013 0
1.26413e-14 1.01013 0
-3.77975e-14 1.01158 0
1.88501e-14 1.01158 0
1.26413e-14 1.01013 0
-6.38337e-15 1.01013 0
1.88501e-14 1.01158 0
-2.89899e-15 1.01158 0
-9.70615e-15 1.01158 0
-1.64019e-14 1.01158 0
6.93607e-17 1.01301 0
-6.25174e-15 1.01301 0
-1.64019e-14 1.01158 0
3.46842e-14 1.01158 0
-6.25174e-15 1.01301 0
3.33035e-14 1.01301 0
-6.38337e-15 1.01013 0
-5.06193e-15 1.01013 0
-2.89899e-15 1.01158 0
3.66674e-15 1.01158 0
-5.06193e-15 1.01013 0
-3.22634e-15 1.01013 0
3.66674e-15 1.01158 0
2.13168e-15 1.01158 0
3.46842e-14 1.01158 0
5.41648e-15 1.01158 0
3.33035e-14 1.01301 0
2.33578e-15 1.01301 0
5.41648e-15 1.01158 0
-3.84938e-15 1.01158 0
2.33578e-15 1.01301 0
7.38437e-15 1.01301 0
-8.31637e-15 1.00714 0
-3.23563e-15 1.00714 0
1.1442e-14 1.00865 0
2.43241e-15 1.00865 0
-3.23563e-15 1.00714 0
3.97043e-17 1.00714 0
2.43241e-15 1.00865 0
5.92146e-15 1.00865 0
-7.34283e-15 1.00865 0
-3.23373e-15 1.00865 0
6.84323e-15 1.01013 0
7.70492e-16 1.01013 0
-3.23373e-15 1.00865 0
2.21734e-15 1.00865 0
7.70492e-16 1.01013 0
-6.48579e-15 1.01013 0
3.97043e-17 1.00714 0
-2.11308e-16 1.00714 0
5.92146e-15 1.00865 0
2.59857e-15 1.00865 0
-2.11308e-16 1.00714 0
8.19432e-15 1.00714 0
2.59857e-15 1.00865 0
-2.70956e-15 1.00865 0
2.21734e-15 1.00865 0
-6.19025e-15 1.00865 0
-6.48579e-15 1.01013 0
1.08842e-14 1.01013 0
-6.19025e-15 1.00865 0
-3.17429e-15 1.00865 0
1.08842e-14 1.01013 0
9.79647e-15 1.01013 0
-3.22634e-15 1.01013 0
1.89481e-15 1.01013 0
2.13168e-15 1.01158 0
4.09653e-15 1.01158 0
1.89481e-15 1.01013 0
-3.97942e-15 1.01013 0
4.09653e-15 1.01158 0
5.26672e-15 1.01158 0
-3.84938e-15 1.01158 0
-4.44448e-16 1.01158 0
7.38437e-15 1.01301 0
-1.28052e-15 1.01301 0
-4.44448e-16 1.01158 0
-3.31171e-15 1.01158 0
-1.28052e-15 1.01301 0
3.94954e-15 1.01301 0
-3.97942e-15 1.01013 0
6.9269e-16 1.01013 0
5.26672e-15 1.01158 0
4.60626e-15 1.01158 0
6.9269e-16 1.01013 0
-4.70638e-16 1.01013 0
4.60626e-15 1.01158 0
3.18693e-15 1.01158 0
-3.31171e-15 1.01158 0
-8.90546e-15 1.01158 0
3.94954e-15 1.01301 0
-1.13111e-15 1.01301 0
-8.90546e-15 1.01158 0
5.56733e-15 1.01158 0
-1.13111e-15 1.01301 0
-3.46869e-15 1.01301 0
0 1.01301 0
-7.43572e-14 1.01301 0
0 1.01443 0
-6.84101e-14 1.01443 0
-7.43572e-14 1.01301 0
-1.43781e-13 1.01301 0
-6.84101e-14 1.01443 0
-1.29682e-13 1.01443 0
0 1.01443 0
7.95512e-14 1.01443 0
0 1.01583 0
7.47545e-14 1.01583 0
7.95512e-14 1.01443 0
1.30873e-13 1.01443 0
7.47545e-14 1.01583 0
1.43594e-13 1.01583 0
-1.43781e-13 1.01301 0
5.26292e-14 1.01301 0
-1.29682e-13 1.01443 0
4.56077e-14 1.01443 0
5.26292e-14 1.01301 0
8.69897e-14 1.01301 0
4.56077e-14 1.01443 0
8.96903e-14 1.01443 0
1.30873e-13 1.01443 0
-1.43555e-13 1.01443 0
1.43594e-13 1.01583 0
-1.41155e-13 1.01583 0
-1.43555e-13 1.01443 0
-4.2781e-14 1.01443 0
-1.41155e-13 1.01583 0
-3.87422e-14 1.01583 0
0 1.01583 0
-6.96787e-14 1.01583 0
0 1.01724 0
-6.89165e-14 1.01724 0
-6.96787e-14 1.01583 0
-9.45688e-14 1.01583 0
-6.89165e-14 1.01724 0
-8.93356e-14 1.01724 0
0 1.01724 0
4.75469e-14 1.01724 0
0 1.01866 0
4.97299e-14 1.01866 0
4.75469e-14 1.01724 0
4.92913e-14 1.01724 0
4.97299e-14 1.01866 0
5.21216e-14 1.01866 0
-9.45688e-14 1.01583 0
1.12359e-13 1.01583 0
-8.93356e-14 1.01724 0
1.10697e-13 1.01724 0
1.12359e-13 1.01583 0
4.46084e-14 1.01583 0
1.10697e-13 1.01724 0
4.99113e-14 1.01724 0
4.92913e-14 1.01724 0
-4.95445e-14 1.01724 0
5.21216e-14 1.01866 0
-4.63241e-14 1.01866 0
-4.95445e-14 1.01724 0
-1.37828e-14 1.01724 0
-4.63241e-14 1.01866 0
-2.00001e-14 1.01866 0
8.69897e-14 1.01301 0
8.28629e-14 1.01301 0
8.96903e-14 1.01443 0
9.05242e-14 1.01443 0
8.28629e-14 1.01301 0
9.86829e-15 1.01301 0
9.05242e-14 1.01443 0
1.45425e-14 1.01443 0
-4.2781e-14 1.01443 0
-1.89115e-14 1.01443 0
-3.87422e-14 1.01583 0
-1.12857e-14 1.01583 0
-1.89115e-14 1.01443 0
-1.23255e-14 1.01443 0
-1.12857e-14 1.01583 0
-2.69633e-15 1.01583 0
9.86829e-15 1.01301 0
-1.42245e-14 1.01301 0
1.45425e-14 1.01443 0
-1.38235e-14 1.01443 0
-1.42245e-14 1.01301 0
8.68073e-15 1.01301 0
-1.38235e-14 1.01443 0
9.32064e-15 1.01443 0
-1.23255e-14 1.01443 0
2.41045e-15 1.01443 0
-2.69633e-15 1.01583 0
5.42674e-15 1.01583 0
2.41045e-15 1.01443 0
-8.99124e-15 1.01443 0
5.42674e-15 1.01583 0
1.57075e-15 1.01583 0
4.46084e-14 1.01583 0
6.14445e-15 1.01583 0
4.99113e-14 1.01724 0
9.02216e-15 1.01724 0
6.14445e-15 1.01583 0
4.7673e-15 1.01583 0
9.02216e-15 1.01724 0
-2.64532e-16 1.01724 0
-1.37828e-14 1.01724 0
-1.61697e-14 1.01724 0
-2.00001e-14 1.01866 0
-8.70902e-15 1.01866 0
-1.61697e-14 1.01724 0
-2.12369e-15 1.01724 0
-8.70902e-15 1.01866 0
4.28766e-16 1.01866 0
4.7673e-15 1.01583 0
8.46387e-16 1.01583 0
-2.64532e-16 1.01724 0
5.00687e-15 1.01724 0
8.46387e-16 1.01583 0
-8.27003e-15 1.01583 0
5.00687e-15 1.01724 0
8.34624e-15 1.01724 0
-2.12369e-15 1.01724 0
-4.51451e-15 1.01724 0
4.28766e-16 1.01866 0
5.06949e-15 1.01866 0
-4.51451e-15 1.01724 0
-6.19149e-15 1.01724 0
5.06949e-15 1.01866 0
5.849e-15 1.01866 0
0 1.01866 0
2.16047e-14 1.01866 0
0 1.02009 0
2.34684e-14 1.02009 0
2.16047e-14 1.01866 0
-3.65414e-14 1.01866 0
2.34684e-14 1.02009 0
-3.8364e-14 1.02009 0
0 1.02009 0
-4.11022e-14 1.02009 0
0 1.02148 0
-3.79829e-14 1.02148 0
-4.11022e-14 1.02009 0
3.56918e-14 1.02009 0
-3.79829e-14 1.02148 0
3.44437e-14 1.02148 0
-3.65414e-14 1.01866 0
2.35948e-15 1.01866 0
-3.8364e-14 1.02009 0
8.19775e-15 1.02009 0
2.35948e-15 1.01866 0
-1.68359e-14 1.01866 0
8.19775e-15 1.02009 0
-1.22295e-14 1.02009 0
3.56918e-14 1.02009 0
-1.09979e-14 1.02009 0
3.44437e-14 1.02148 0
-7.50964e-15 1.02148 0
-1.09979e-14 1.02009 0
-6.37684e-15 1.02009 0
-7.50964e-15 1.02148 0
-5.39814e-15 1.02148 0
0 1.02148 0
5.68535e-15 1.02148 0
0 1.0227 0
2.60981e-15 1.0227 0
5.68535e-15 1.02148 0
-3.48089e-14 1.02148 0
2.60981e-15 1.0227 0
-3.72155e-14 1.0227 0
0 1.0227 0
4.90698e-15 1.0227 0
0 1.02326 0
2.33516e-16 1.02326 0
4.90698e-15 1.0227 0
-8.21285e-15 1.0227 0
2.33516e-16 1.02326 0
5.41625e-15 1.02326 0
-3.48089e-14 1.02148 0
7.69948e-15 1.02148 0
-3.72155e-14 1.0227 0
7.82067e-15 1.0227 0
7.69948e-15 1.02148 0
5.27948e-15 1.02148 0
7.82067e-15 1.0227 0
3.05598e-15 1.0227 0
-8.21285e-15 1.0227 0
-9.67269e-15 1.0227 0
5.41625e-15 1.02326 0
-2.08615e-14 1.02326 0
-9.67269e-15 1.0227 0
-6.07376e-16 1.0227 0
-2.08615e-14 1.02326 0
2.12596e-14 1.02326 0
-1.68359e-14 1.01866 0
-1.72075e-14 1.01866 0
-1.22295e-14 1.02009 0
-7.90356e-15 1.02009 0
-1.72075e-14 1.01866 0
-8.39818e-17 1.01866 0
-7.90356e-15 1.02009 0
1.96873e-15 1.02009 0
-6.37684e-15 1.02009 0
1.00573e-14 1.02009 0
-5.39814e-15 1.02148 0
1.06861e-14 1.02148 0
1.00573e-14 1.02009 0
-5.6247e-15 1.02009 0
1.06861e-14 1.02148 0
3.58535e-15 1.02148 0
-8.39818e-17 1.01866 0
-1.52499e-15 1.01866 0
1.96873e-15 1.02009 0
1.84698e-15 1.02009 0
-1.52499e-15 1.01866 0
-6.35645e-15 1.01866 0
1.84698e-15 1.02009 0
2.20957e-15 1.02009 0
-5.6247e-15 1.02009 0
-6.0688e-15 1.02009 0
3.58535e-15 1.02148 0
1.76546e-15 1.02148 0
-6.0688e-15 1.02009 0
-1.82433e-15 1.02009 0
1.76546e-15 1.02148 0
2.78517e-15 1.02148 0
5.27948e-15 1.02148 0
-1.79022e-14 1.02148 0
3.05598e-15 1.0227 0
-1.42519e-14 1.0227 0
-1.79022e-14 1.02148 0
-2.81254e-15 1.02148 0
-1.42519e-14 1.0227 0
2.06688e-15 1.0227 0
-6.07376e-16 1.0227 0
-1.0776e-15 1.0227 0
2.12596e-14 1.02326 0
6.35176e-15 1.02326 0
-1.0776e-15 1.0227 0
-2.61148e-15 1.0227 0
6.35176e-15 1.02326 0
-2.76862e-16 1.02326 0
-2.81254e-15 1.02148 0
-1.99514e-15 1.02148 0
2.06688e-15 1.0227 0
1.87721e-15 1.0227 0
-1.99514e-15 1.02148 0
-5.09342e-16 1.02148 0
1.87721e-15 1.0227 0
1.65296e-15 1.0227 0
-2.61148e-15 1.0227 0
-1.08123e-15 1.0227 0
-2.76862e-16 1.02326 0
8.91827e-15 1.02326 0
-1.08123e-15 1.0227 0
-5.28101e-16 1.0227 0
8.91827e-15 1.02326 0
-2.20949e-14 1.02326 0
8.68073e-15 1.01301 0
1.2665e-14 1.01301 0
9.32064e-15 1.01443 0
2.02401e-14 1.01443 0
1.2665e-14 1.01301 0
-2.13831e-14 1.01301 0
2.02401e-14 1.01443 0
-2.15853e-14 1.01443 0
-8.99124e-15 1.01443 0
-1.06381e-14 1.01443 0
1.57075e-15 1.01583 0
3.48452e-15 1.01583 0
-1.06381e-14 1.01443 0
-3.89668e-15 1.01443 0
3.48452e-15 1.01583 0
-6.01452e-16 1.01583 0
-2.13831e-14 1.01301 0
-2.81972e-15 1.01301 0
-2.15853e-14 1.01443 0
3.34609e-15 1.01443 0
-2.81972e-15 1.01301 0
-5.30914e-15 1.01301 0
3.34609e-15 1.01443 0
7.91904e-15 1.01443 0
-3.89668e-15 1.01443 0
-3.14032e-15 1.01443 0
-6.01452e-16 1.01583 0
3.41796e-15 1.01583 0
-3.14032e-15 1.01443 0
-6.04253e-15 1.01443 0
3.41796e-15 1.01583 0
9.50446e-15 1.01583 0
-8.27003e-15 1.01583 0
-5.25324e-15 1.01583 0
8.34624e-15 1.01724 0
7.14849e-15 1.01724 0
-5.25324e-15 1.01583 0
-1.9678e-15 1.01583 0
7.14849e-15 1.01724 0
2.30468e-15 1.01724 0
-6.19149e-15 1.01724 0
-3.54703e-15 1.01724 0
5.849e-15 1.01866 0
4.08131e-15 1.01866 0
-3.54703e-15 1.01724 0
4.95124e-16 1.01724 0
4.08131e-15 1.01866 0
3.26776e-15 1.01866 0
-1.9678e-15 1.01583 0
-2.79551e-15 1.01583 0
2.30468e-15 1.01724 0
2.48966e-15 1.01724 0
-2.79551e-15 1.01583 0
-7.26634e-15 1.01583 0
2.48966e-15 1.01724 0
4.78747e-15 1.01724 0
4.95124e-16 1.01724 0
-5.2597e-15 1.01724 0
3.26776e-15 1.01866 0
6.39539e-15 1.01866 0
-5.2597e-15 1.01724 0
-1.73123e-15 1.01724 0
6.39539e-15 1.01866 0
3.89704e-15 1.01866 0
-5.30914e-15 1.01301 0
-1.2653e-15 1.01301 0
7.91904e-15 1.01443 0
4.08813e-15 1.01443 0
-1.2653e-15 1.01301 0
2.90976e-15 1.01301 0
4.08813e-15 1.01443 0
4.57632e-15 1.01443 0
-6.04253e-15 1.01443 0
-1.13992e-15 1.01443 0
9.50446e-15 1.01583 0
-7.16906e-16 1.01583 0
-1.13992e-15 1.01443 0
-2.94689e-15 1.01443 0
-7.16906e-16 1.01583 0
-8.1313e-16 1.01583 0
2.90976e-15 1.01301 0
-2.67589e-15 1.01301 0
4.57632e-15 1.01443 0
5.25432e-15 1.01443 0
-2.67589e-15 1.01301 0
-7.55972e-16 1.01301 0
5.25432e-15 1.01443 0
6.32725e-16 1.01443 0
-2.94689e-15 1.01443 0
-3.39169e-15 1.01443 0
-8.1313e-16 1.01583 0
3.73263e-15 1.01583 0
-3.39169e-15 1.01443 0
-3.40691e-15 1.01443 0
3.73263e-15 1.01583 0
8.26936e-15 1.01583 0
-7.26634e-15 1.01583 0
-7.30143e-16 1.01583 0
4.78747e-15 1.01724 0
1.1163e-15 1.01724 0
-7.30143e-16 1.01583 0
1.11093e-15 1.01583 0
1.1163e-15 1.01724 0
3.15848e-15 1.01724 0
-1.73123e-15 1.01724 0
3.13568e-16 1.01724 0
3.89704e-15 1.01866 0
2.30096e-15 1.01866 0
3.13568e-16 1.01724 0
-4.76915e-15 1.01724 0
2.30096e-15 1.01866 0
4.64986e-15 1.01866 0
1.11093e-15 1.01583 0
-1.4667e-15 1.01583 0
3.15848e-15 1.01724 0
3.60315e-15 1.01724 0
-1.4667e-15 1.01583 0
-4.99303e-15 1.01583 0
3.60315e-15 1.01724 0
7.18967e-15 1.01724 0
-4.76915e-15 1.01724 0
-2.7911e-15 1.01724 0
4.64986e-15 1.01866 0
7.03837e-16 1.01866 0
-2.7911e-15 1.01724 0
5.80836e-15 1.01724 0
7.03837e-16 1.01866 0
-3.13148e-15 1.01866 0
-6.35645e-15 1.01866 0
-1.05921e-14 1.01866 0
2.20957e-15 1.02009 0
3.02282e-15 1.02009 0
-1.05921e-14 1.01866 0
-3.35872e-15 1.01866 0
3.02282e-15 1.02009 0
-1.73171e-15 1.02009 0
-1.82433e-15 1.02009 0
-2.39079e-15 1.02009 0
2.78517e-15 1.02148 0
2.87639e-15 1.02148 0
-2.39079e-15 1.02009 0
4.96027e-16 1.02009 0
2.87639e-15 1.02148 0
9.05204e-16 1.02148 0
-3.35872e-15 1.01866 0
3.24484e-16 1.01866 0
-1.73171e-15 1.02009 0
3.38803e-15 1.02009 0