# vtk DataFile Version 3.0
#This file was generated by the deal.II library on 2018/10/11 at 23:25:43
ASCII
DATASET UNSTRUCTURED_GRID

POINTS 5120 double
0 0 0
0.392699 0 0
0 0.625 0
0.392699 0.625 0
0.392699 0 0
0.785398 0 0
0.392699 0.625 0
0.785398 0.625 0
0 0.625 0
0.392699 0.625 0
0 1.25 0
0.392699 1.25 0
0.392699 0.625 0
0.785398 0.625 0
0.392699 1.25 0
0.785398 1.25 0
0.785398 0 0
1.1781 0 0
0.785398 0.625 0
1.1781 0.625 0
1.1781 0 0
1.5708 0 0
1.1781 0.625 0
1.5708 0.625 0
0.785398 0.625 0
1.1781 0.625 0
0.785398 1.25 0
1.1781 1.25 0
1.1781 0.625 0
1.5708 0.625 0
1.1781 1.25 0
1.5708 1.25 0
0 1.25 0
0.392699 1.25 0
0 1.875 0
0.392699 1.875 0
0.392699 1.25 0
0.785398 1.25 0
0.392699 1.875 0
0.785398 1.875 0
0 1.875 0
0.392699 1.875 0
0 2.5 0
0.392699 2.5 0
0.392699 1.875 0
0.785398 1.875 0
0.392699 2.5 0
0.785398 2.5 0
0.785398 1.25 0
1.1781 1.25 0
0.785398 1.875 0
1.1781 1.875 0
1.1781 1.25 0
1.5708 1.25 0
1.1781 1.875 0
1.5708 1.875 0
0.785398 1.875 0
1.1781 1.875 0
0.785398 2.5 0
1.1781 2.5 0
1.1781 1.875 0
1.5708 1.875 0
1.1781 2.5 0
1.5708 2.5 0
1.5708 0 0
1.9635 0 0
1.5708 0.625 0
1.9635 0.625 0
1.9635 0 0
2.35619 0 0
1.9635 0.625 0
2.35619 0.625 0
1.5708 0.625 0
1.9635 0.625 0
1.5708 1.25 0
1.9635 1.25 0
1.9635 0.625 0
2.35619 0.625 0
1.9635 1.25 0
2.35619 1.25 0
2.35619 0 0
2.74889 0 0
2.35619 0.625 0
2.74889 0.625 0
2.74889 0 0
3.14159 0 0
2.74889 0.625 0
3.14159 0.625 0
2.35619 0.625 0
2.74889 0.625 0
2.35619 1.25 0
2.74889 1.25 0
2.74889 0.625 0
3.14159 0.625 0
2.74889 1.25 0
3.14159 1.25 0
1.5708 1.25 0
1.9635 1.25 0
1.5708 1.875 0
1.9635 1.875 0
1.9635 1.25 0
2.35619 1.25 0
1.9635 1.875 0
2.35619 1.875 0
1.5708 1.875 0
1.9635 1.875 0
1.5708 2.5 0
1.9635 2.5 0
1.9635 1.875 0
2.35619 1.875 0
1.9635 2.5 0
2.35619 2.5 0
2.35619 1.25 0
2.74889 1.25 0
2.35619 1.875 0
2.74889 1.875 0
2.74889 1.25 0
3.14159 1.25 0
2.74889 1.875 0
3.14159 1.875 0
2.35619 1.875 0
2.74889 1.875 0
2.35619 2.5 0
2.74889 2.5 0
2.74889 1.875 0
3.14159 1.875 0
2.74889 2.5 0
3.14159 2.5 0
0 2.5 0
0.392699 2.5 0
0 3.125 0
0.392699 3.125 0
0.392699 2.5 0
0.785398 2.5 0
0.392699 3.125 0
0.785398 3.125 0
0 3.125 0
0.392699 3.125 0
0 3.75 0
0.392699 3.75 0
0.392699 3.125 0
0.785398 3.125 0
0.392699 3.75 0
0.785398 3.75 0
0.785398 2.5 0
1.1781 2.5 0
0.785398 3.125 0
1.1781 3.125 0
1.1781 2.5 0
1.5708 2.5 0
1.1781 3.125 0
1.5708 3.125 0
0.785398 3.125 0
1.1781 3.125 0
0.785398 3.75 0
1.1781 3.75 0
1.1781 3.125 0
1.5708 3.125 0
1.1781 3.75 0
1.5708 3.75 0
0 3.75 0
0.392699 3.75 0
0 4.375 0
0.392699 4.375 0
0.392699 3.75 0
0.785398 3.75 0
0.392699 4.375 0
0.785398 4.375 0
0 4.375 0
0.392699 4.375 0
0 5 0
0.392699 5 0
0.392699 4.375 0
0.785398 4.375 0
0.392699 5 0
0.785398 5 0
0.785398 3.75 0
1.1781 3.75 0
0.785398 4.375 0
1.1781 4.375 0
1.1781 3.75 0
1.5708 3.75 0
1.1781 4.375 0
1.5708 4.375 0
0.785398 4.375 0
1.1781 4.375 0
0.785398 5 0
1.1781 5 0
1.1781 4.375 0
1.5708 4.375 0
1.1781 5 0
1.5708 5 0
1.5708 2.5 0
1.9635 2.5 0
1.5708 3.125 0
1.9635 3.125 0
1.9635 2.5 0
2.35619 2.5 0
1.9635 3.125 0
2.35619 3.125 0
1.5708 3.125 0
1.9635 3.125 0
1.5708 3.75 0
1.9635 3.75 0
1.9635 3.125 0
2.35619 3.125 0
1.9635 3.75 0
2.35619 3.75 0
2.35619 2.5 0
2.74889 2.5 0
2.35619 3.125 0
2.74889 3.125 0
2.74889 2.5 0
3.14159 2.5 0
2.74889 3.125 0
3.14159 3.125 0
2.35619 3.125 0
2.74889 3.125 0
2.35619 3.75 0
2.74889 3.75 0
2.74889 3.125 0
3.14159 3.125 0
2.74889 3.75 0
3.14159 3.75 0
1.5708 3.75 0
1.9635 3.75 0
1.5708 4.375 0
1.9635 4.375 0
1.9635 3.75 0
2.35619 3.75 0
1.9635 4.375 0
2.35619 4.375 0
1.5708 4.375 0
1.9635 4.375 0
1.5708 5 0
1.9635 5 0
1.9635 4.375 0
2.35619 4.375 0
1.9635 5 0
2.35619 5 0
2.35619 3.75 0
2.74889 3.75 0
2.35619 4.375 0
2.74889 4.375 0
2.74889 3.75 0
3.14159 3.75 0
2.74889 4.375 0
3.14159 4.375 0
2.35619 4.375 0
2.74889 4.375 0
2.35619 5 0
2.74889 5 0
2.74889 4.375 0
3.14159 4.375 0
2.74889 5 0
3.14159 5 0
3.14159 0 0
3.53429 0 0
3.14159 0.625 0
3.53429 0.625 0
3.53429 0 0
3.92699 0 0
3.53429 0.625 0
3.92699 0.625 0
3.14159 0.625 0
3.53429 0.625 0
3.14159 1.25 0
3.53429 1.25 0
3.53429 0.625 0
3.92699 0.625 0
3.53429 1.25 0
3.92699 1.25 0
3.92699 0 0
4.31969 0 0
3.92699 0.625 0
4.31969 0.625 0
4.31969 0 0
4.71239 0 0
4.31969 0.625 0
4.71239 0.625 0
3.92699 0.625 0
4.31969 0.625 0
3.92699 1.25 0
4.31969 1.25 0
4.31969 0.625 0
4.71239 0.625 0
4.31969 1.25 0
4.71239 1.25 0
3.14159 1.25 0
3.53429 1.25 0
3.14159 1.875 0
3.53429 1.875 0
3.53429 1.25 0
3.92699 1.25 0
3.53429 1.875 0
3.92699 1.875 0
3.14159 1.875 0
3.53429 1.875 0
3.14159 2.5 0
3.53429 2.5 0
3.53429 1.875 0
3.92699 1.875 0
3.53429 2.5 0
3.92699 2.5 0
3.92699 1.25 0
4.31969 1.25 0
3.92699 1.875 0
4.31969 1.875 0
4.31969 1.25 0
4.71239 1.25 0
4.31969 1.875 0
4.71239 1.875 0
3.92699 1.875 0
4.31969 1.875 0
3.92699 2.5 0
4.31969 2.5 0
4.31969 1.875 0
4.71239 1.875 0
4.31969 2.5 0
4.71239 2.5 0
4.71239 0 0
5.10509 0 0
4.71239 0.625 0
5.10509 0.625 0
5.10509 0 0
5.49779 0 0
5.10509 0.625 0
5.49779 0.625 0
4.71239 0.625 0
5.10509 0.625 0
4.71239 1.25 0
5.10509 1.25 0
5.10509 0.625 0
5.49779 0.625 0
5.10509 1.25 0
5.49779 1.25 0
5.49779 0 0
5.89049 0 0
5.49779 0.625 0
5.89049 0.625 0
5.89049 0 0
6.28319 0 0
5.89049 0.625 0
6.28319 0.625 0
5.49779 0.625 0
5.89049 0.625 0
5.49779 1.25 0
5.89049 1.25 0
5.89049 0.625 0
6.28319 0.625 0
5.89049 1.25 0
6.28319 1.25 0
4.71239 1.25 0
5.10509 1.25 0
4.71239 1.875 0
5.10509 1.875 0
5.10509 1.25 0
5.49779 1.25 0
5.10509 1.875 0
5.49779 1.875 0
4.71239 1.875 0
5.10509 1.875 0
4.71239 2.5 0
5.10509 2.5 0
5.10509 1.875 0
5.49779 1.875 0
5.10509 2.5 0
5.49779 2.5 0
5.49779 1.25 0
5.89049 1.25 0
5.49779 1.875 0
5.89049 1.875 0
5.89049 1.25 0
6.28319 1.25 0
5.89049 1.875 0
6.28319 1.875 0
5.49779 1.875 0
5.89049 1.875 0
5.49779 2.5 0
5.89049 2.5 0
5.89049 1.875 0
6.28319 1.875 0
5.89049 2.5 0
6.28319 2.5 0
3.14159 2.5 0
3.53429 2.5 0
3.14159 3.125 0
3.53429 3.125 0
3.53429 2.5 0
3.92699 2.5 0
3.53429 3.125 0
3.92699 3.125 0
3.14159 3.125 0
3.53429 3.125 0
3.14159 3.75 0
3.53429 3.75 0
3.53429 3.125 0
3.92699 3.125 0
3.53429 3.75 0
3.92699 3.75 0
3.92699 2.5 0
4.31969 2.5 0
3.92699 3.125 0
4.31969 3.125 0
4.31969 2.5 0
4.71239 2.5 0
4.31969 3.125 0
4.71239 3.125 0
3.92699 3.125 0
4.31969 3.125 0
3.92699 3.75 0
4.31969 3.75 0
4.31969 3.125 0
4.71239 3.125 0
4.31969 3.75 0
4.71239 3.75 0
3.14159 3.75 0
3.53429 3.75 0
3.14159 4.375 0
3.53429 4.375 0
3.53429 3.75 0
3.92699 3.75 0
3.53429 4.375 0
3.92699 4.375 0
3.14159 4.375 0
3.53429 4.375 0
3.14159 5 0
3.53429 5 0
3.53429 4.375 0
3.92699 4.375 0
3.53429 5 0
3.92699 5 0
3.92699 3.75 0
4.31969 3.75 0
3.92699 4.375 0
4.31969 4.375 0
4.31969 3.75 0
4.71239 3.75 0
4.31969 4.375 0
4.71239 4.375 0
3.92699 4.375 0
4.31969 4.375 0
3.92699 5 0
4.31969 5 0
4.31969 4.375 0
4.71239 4.375 0
4.31969 5 0
4.71239 5 0
4.71239 2.5 0
5.10509 2.5 0
4.71239 3.125 0
5.10509 3.125 0
5.10509 2.5 0
5.49779 2.5 0
5.10509 3.125 0
5.49779 3.125 0
4.71239 3.125 0
5.10509 3.125 0
4.71239 3.75 0
5.10509 3.75 0
5.10509 3.125 0
5.49779 3.125 0
5.10509 3.75 0
5.49779 3.75 0
5.49779 2.5 0
5.89049 2.5 0
5.49779 3.125 0
5.89049 3.125 0
5.89049 2.5 0
6.28319 2.5 0
5.89049 3.125 0
6.28319 3.125 0
5.49779 3.125 0
5.89049 3.125 0
5.49779 3.75 0
5.89049 3.75 0
5.89049 3.125 0
6.28319 3.125 0
5.89049 3.75 0
6.28319 3.75 0
4.71239 3.75 0
5.10509 3.75 0
4.71239 4.375 0
5.10509 4.375 0
5.10509 3.75 0
5.49779 3.75 0
5.10509 4.375 0
5.49779 4.375 0
4.71239 4.375 0
5.10509 4.375 0
4.71239 5 0
5.10509 5 0
5.10509 4.375 0
5.49779 4.375 0
5.10509 5 0
5.49779 5 0
5.49779 3.75 0
5.89049 3.75 0
5.49779 4.375 0
5.89049 4.375 0
5.89049 3.75 0
6.28319 3.75 0
5.89049 4.375 0
6.28319 4.375 0
5.49779 4.375 0
5.89049 4.375 0
5.49779 5 0
5.89049 5 0
5.89049 4.375 0
6.28319 4.375 0
5.89049 5 0
6.28319 5 0
0 5 0
0.392699 5 0
0 5.625 0
0.392699 5.625 0
0.392699 5 0
0.785398 5 0
0.392699 5.625 0
0.785398 5.625 0
0 5.625 0
0.392699 5.625 0
0 6.25 0
0.392699 6.25 0
0.392699 5.625 0
0.785398 5.625 0
0.392699 6.25 0
0.785398 6.25 0
0.785398 5 0
1.1781 5 0
0.785398 5.625 0
1.1781 5.625 0
1.1781 5 0
1.5708 5 0
1.1781 5.625 0
1.5708 5.625 0
0.785398 5.625 0
1.1781 5.625 0
0.785398 6.25 0
1.1781 6.25 0
1.1781 5.625 0
1.5708 5.625 0
1.1781 6.25 0
1.5708 6.25 0
0 6.25 0
0.392699 6.25 0
0 6.875 0
0.392699 6.875 0
0.392699 6.25 0
0.785398 6.25 0
0.392699 6.875 0
0.785398 6.875 0
0 6.875 0
0.392699 6.875 0
0 7.5 0
0.392699 7.5 0
0.392699 6.875 0
0.785398 6.875 0
0.392699 7.5 0
0.785398 7.5 0
0.785398 6.25 0
1.1781 6.25 0
0.785398 6.875 0
1.1781 6.875 0
1.1781 6.25 0
1.5708 6.25 0
1.1781 6.875 0
1.5708 6.875 0
0.785398 6.875 0
1.1781 6.875 0
0.785398 7.5 0
1.1781 7.5 0
1.1781 6.875 0
1.5708 6.875 0
1.1781 7.5 0
1.5708 7.5 0
1.5708 5 0
1.9635 5 0
1.5708 5.625 0
1.9635 5.625 0
1.9635 5 0
2.35619 5 0
1.9635 5.625 0
2.35619 5.625 0
1.5708 5.625 0
1.9635 5.625 0
1.5708 6.25 0
1.9635 6.25 0
1.9635 5.625 0
2.35619 5.625 0
1.9635 6.25 0
2.35619 6.25 0
2.35619 5 0
2.74889 5 0
2.35619 5.625 0
2.74889 5.625 0
2.74889 5 0
3.14159 5 0
2.74889 5.625 0
3.14159 5.625 0
2.35619 5.625 0
2.74889 5.625 0
2.35619 6.25 0
2.74889 6.25 0
2.74889 5.625 0
3.14159 5.625 0
2.74889 6.25 0
3.14159 6.25 0
1.5708 6.25 0
1.9635 6.25 0
1.5708 6.875 0
1.9635 6.875 0
1.9635 6.25 0
2.35619 6.25 0
1.9635 6.875 0
2.35619 6.875 0
1.5708 6.875 0
1.9635 6.875 0
1.5708 7.5 0
1.9635 7.5 0
1.9635 6.875 0
2.35619 6.875 0
1.9635 7.5 0
2.35619 7.5 0
2.35619 6.25 0
2.74889 6.25 0
2.35619 6.875 0
2.74889 6.875 0
2.74889 6.25 0
3.14159 6.25 0
2.74889 6.875 0
3.14159 6.875 0
2.35619 6.875 0
2.74889 6.875 0
2.35619 7.5 0
2.74889 7.5 0
2.74889 6.875 0
3.14159 6.875 0
2.74889 7.5 0
3.14159 7.5 0
0 7.5 0
0.392699 7.5 0
0 8.125 0
0.392699 8.125 0
0.392699 7.5 0
0.785398 7.5 0
0.392699 8.125 0
0.785398 8.125 0
0 8.125 0
0.392699 8.125 0
0 8.75 0
0.392699 8.75 0
0.392699 8.125 0
0.785398 8.125 0
0.392699 8.75 0
0.785398 8.75 0
0.785398 7.5 0
1.1781 7.5 0
0.785398 8.125 0
1.1781 8.125 0
1.1781 7.5 0
1.5708 7.5 0
1.1781 8.125 0
1.5708 8.125 0
0.785398 8.125 0
1.1781 8.125 0
0.785398 8.75 0
1.1781 8.75 0
1.1781 8.125 0
[...]
POINT_DATA 5120
VECTORS uf double
0 1 0
1.73088e-14 1 0
0 1 0
-2.27912e-14 1 0
1.73088e-14 1 0
1.12015e-14 1 0
-2.27912e-14 1 0
-8.40764e-15 1 0
0 1 0
2.50451e-14 1 0
0 1 0
-2.93899e-14 1 0
2.50451e-14 1 0
6.74774e-15 1 0
-2.93899e-14 1 0
-1.20668e-14 1 0
1.12015e-14 1 0
4.59299e-15 1 0
-8.40764e-15 1 0
-1.14284e-14 1 0
4.59299e-15 1 0
2.48998e-15 1 0
-1.14284e-14 1 0
-4.86037e-15 1 0
6.74774e-15 1 0
7.88939e-15 1 0
-1.20668e-14 1 0
-4.95026e-15 1 0
7.88939e-15 1 0
-1.1594e-15 1 0
-4.95026e-15 1 0
-6.74794e-15 1 0
0 1 0
2.7396e-14 1 0
0 1 0
-2.37419e-14 1 0
2.7396e-14 1 0
1.43661e-14 1 0
-2.37419e-14 1 0
-2.04368e-14 1 0
0 1 0
1.31799e-14 1 0
0 1 0
-1.09973e-14 1 0
1.31799e-14 1 0
1.80304e-14 1 0
-1.09973e-14 1 0
-1.56969e-14 1 0
1.43661e-14 1 0
-2.02832e-15 1 0
-2.04368e-14 1 0
1.02157e-14 1 0
-2.02832e-15 1 0
3.25197e-15 1 0
1.02157e-14 1 0
4.79984e-15 1 0
1.80304e-14 1 0
-1.43508e-14 1 0
-1.56969e-14 1 0
1.91456e-15 1 0
-1.43508e-14 1 0
-1.0299e-14 1 0
1.91456e-15 1 0
7.61394e-15 1 0
2.48998e-15 1 0
-4.27472e-15 1 0
-4.86037e-15 1 0
6.5831e-15 1 0
-4.27472e-15 1 0
-7.58282e-15 1 0
6.5831e-15 1 0
1.2725e-14 1 0
-1.1594e-15 1 0
-1.27867e-14 1 0
-6.74794e-15 1 0
8.46089e-15 1 0
-1.27867e-14 1 0
-2.03118e-14 1 0
8.46089e-15 1 0
1.11282e-14 1 0
-7.58282e-15 1 0
-8.38696e-15 1 0
1.2725e-14 1 0
1.25703e-14 1 0
-8.38696e-15 1 0
-1.06553e-14 1 0
1.25703e-14 1 0
1.32186e-14 1 0
-2.03118e-14 1 0
-2.14949e-14 1 0
1.11282e-14 1 0
1.48179e-14 1 0
-2.14949e-14 1 0
-2.20227e-14 1 0
1.48179e-14 1 0
1.83367e-14 1 0
3.25197e-15 1 0
-1.08372e-14 1 0
4.79984e-15 1 0
8.32949e-15 1 0
-1.08372e-14 1 0
-1.44342e-14 1 0
8.32949e-15 1 0
1.15857e-14 1 0
-1.0299e-14 1 0
-8.82806e-15 1 0
7.61394e-15 1 0
1.18635e-14 1 0
-8.82806e-15 1 0
-4.67702e-15 1 0
1.18635e-14 1 0
1.1163e-14 1 0
-1.44342e-14 1 0
-1.71055e-14 1 0
1.15857e-14 1 0
1.15416e-14 1 0
-1.71055e-14 1 0
-2.19347e-14 1 0
1.15416e-14 1 0
1.2152e-14 1 0
-4.67702e-15 1 0
-2.92726e-16 1 0
1.1163e-14 1 0
3.40564e-15 1 0
-2.92726e-16 1 0
-5.12223e-16 1 0
3.40564e-15 1 0
9.66121e-15 1 0
0 1 0
9.94881e-15 1 0
0 1 0
-1.01769e-14 1 0
9.94881e-15 1 0
3.64841e-15 1 0
-1.01769e-14 1 0
1.55654e-15 1 0
0 1 0
1.01803e-14 1 0
0 1 0
-8.53905e-15 1 0
1.01803e-14 1 0
1.28351e-15 1 0
-8.53905e-15 1 0
-8.79706e-16 1 0
3.64841e-15 1 0
7.87498e-16 1 0
1.55654e-15 1 0
9.05796e-16 1 0
7.87498e-16 1 0
-6.70594e-15 1 0
9.05796e-16 1 0
1.25309e-14 1 0
1.28351e-15 1 0
2.91548e-15 1 0
-8.79706e-16 1 0
-2.91171e-15 1 0
2.91548e-15 1 0
-1.22784e-14 1 0
-2.91171e-15 1 0
1.07555e-14 1 0
0 1 0
9.66491e-15 1 0
0 1 0
-1.05053e-14 1 0
9.66491e-15 1 0
9.5131e-16 1 0
-1.05053e-14 1 0
-1.87608e-15 1 0
0 1 0
1.04313e-14 1 0
0 1 0
-9.70729e-15 1 0
1.04313e-14 1 0
1.40207e-15 1 0
-9.70729e-15 1 0
5.41413e-16 1 0
9.5131e-16 1 0
2.54735e-15 1 0
-1.87608e-15 1 0
-5.86769e-16 1 0
2.54735e-15 1 0
-8.99947e-15 1 0
-5.86769e-16 1 0
9.33554e-15 1 0
1.40207e-15 1 0
7.1301e-16 1 0
5.41413e-16 1 0
-6.60874e-16 1 0
7.1301e-16 1 0
-6.24869e-15 1 0
-6.60874e-16 1 0
7.20694e-15 1 0
-6.70594e-15 1 0
-4.83501e-15 1 0
1.25309e-14 1 0
4.7299e-15 1 0
-4.83501e-15 1 0
6.47194e-16 1 0
4.7299e-15 1 0
-3.72428e-15 1 0
-1.22784e-14 1 0
-8.38093e-18 1 0
1.07555e-14 1 0
-3.52309e-16 1 0
-8.38093e-18 1 0
6.94808e-15 1 0
-3.52309e-16 1 0
-4.55171e-15 1 0
6.47194e-16 1 0
6.28127e-15 1 0
-3.72428e-15 1 0
-3.73409e-16 1 0
6.28127e-15 1 0
1.95603e-15 1 0
-3.73409e-16 1 0
-4.29449e-16 1 0
6.94808e-15 1 0
2.96384e-15 1 0
-4.55171e-15 1 0
-3.32595e-15 1 0
2.96384e-15 1 0
6.7763e-15 1 0
-3.32595e-15 1 0
-3.369e-15 1 0
-8.99947e-15 1 0
-1.89357e-15 1 0
9.33554e-15 1 0
2.48368e-15 1 0
-1.89357e-15 1 0
3.21867e-15 1 0
2.48368e-15 1 0
-1.88698e-15 1 0
-6.24869e-15 1 0
2.56327e-15 1 0
7.20694e-15 1 0
-3.7752e-15 1 0
2.56327e-15 1 0
3.65886e-15 1 0
-3.7752e-15 1 0
-1.55789e-15 1 0
3.21867e-15 1 0
6.60431e-15 1 0
-1.88698e-15 1 0
-4.11473e-15 1 0
6.60431e-15 1 0
4.95021e-15 1 0
-4.11473e-15 1 0
-4.17297e-15 1 0
3.65886e-15 1 0
4.15665e-15 1 0
-1.55789e-15 1 0
-3.91045e-15 1 0
4.15665e-15 1 0
5.03851e-15 1 0
-3.91045e-15 1 0
-2.67764e-15 1 0
-1.06553e-14 1 0
-9.7717e-15 1 0
1.32186e-14 1 0
9.87315e-15 1 0
-9.7717e-15 1 0
-7.05185e-15 1 0
9.87315e-15 1 0
3.36647e-15 1 0
-2.20227e-14 1 0
-1.98753e-14 1 0
1.83367e-14 1 0
1.47264e-14 1 0
-1.98753e-14 1 0
-1.1022e-14 1 0
1.47264e-14 1 0
5.65054e-15 1 0
-7.05185e-15 1 0
-1.6246e-14 1 0
3.36647e-15 1 0
1.75233e-14 1 0
-1.6246e-14 1 0
-1.16828e-14 1 0
1.75233e-14 1 0
9.7702e-15 1 0
-1.1022e-14 1 0
-2.0479e-14 1 0
5.65054e-15 1 0
7.10616e-15 1 0
-2.0479e-14 1 0
-2.03157e-14 1 0
7.10616e-15 1 0
1.61974e-14 1 0
-2.19347e-14 1 0
-1.54181e-14 1 0
1.2152e-14 1 0
1.0558e-14 1 0
-1.54181e-14 1 0
-1.2383e-14 1 0
1.0558e-14 1 0
1.3056e-14 1 0
-5.12223e-16 1 0
1.26171e-15 1 0
9.66121e-15 1 0
7.3162e-15 1 0
1.26171e-15 1 0
-1.0159e-15 1 0
7.3162e-15 1 0
1.16696e-14 1 0
-1.2383e-14 1 0
-1.28292e-14 1 0
1.3056e-14 1 0
1.42285e-14 1 0
-1.28292e-14 1 0
-1.35482e-14 1 0
1.42285e-14 1 0
1.14214e-14 1 0
-1.0159e-15 1 0
1.89607e-15 1 0
1.16696e-14 1 0
8.41145e-15 1 0
1.89607e-15 1 0
3.75403e-15 1 0
8.41145e-15 1 0
7.42736e-15 1 0
-1.16828e-14 1 0
-8.0927e-15 1 0
9.7702e-15 1 0
2.20168e-15 1 0
-8.0927e-15 1 0
-8.02423e-15 1 0
2.20168e-15 1 0
5.32441e-15 1 0
-2.03157e-14 1 0
-1.01191e-14 1 0
1.61974e-14 1 0
8.43241e-15 1 0
-1.01191e-14 1 0
-1.98665e-14 1 0
8.43241e-15 1 0
2.07631e-14 1 0
-8.02423e-15 1 0
-1.32544e-14 1 0
5.32441e-15 1 0
1.27844e-14 1 0
-1.32544e-14 1 0
-9.39726e-15 1 0
1.27844e-14 1 0
1.34279e-14 1 0
-1.98665e-14 1 0
-1.80416e-14 1 0
2.07631e-14 1 0
1.54794e-14 1 0
-1.80416e-14 1 0
-1.67899e-14 1 0
1.54794e-14 1 0
1.41994e-14 1 0
-1.35482e-14 1 0
-1.13211e-14 1 0
1.14214e-14 1 0
1.7842e-14 1 0
-1.13211e-14 1 0
-1.76997e-14 1 0
1.7842e-14 1 0
1.4346e-14 1 0
3.75403e-15 1 0
-5.04018e-15 1 0
7.42736e-15 1 0
1.17329e-14 1 0
-5.04018e-15 1 0
3.40459e-15 1 0
1.17329e-14 1 0
4.75368e-15 1 0
-1.76997e-14 1 0
-1.14739e-14 1 0
1.4346e-14 1 0
9.43852e-15 1 0
-1.14739e-14 1 0
-1.62875e-14 1 0
9.43852e-15 1 0
1.47068e-14 1 0
3.40459e-15 1 0
-2.20772e-15 1 0
4.75368e-15 1 0
1.63708e-14 1 0
-2.20772e-15 1 0
-1.86729e-16 1 0
1.63708e-14 1 0
8.95748e-15 1 0
1.95603e-15 1 0
3.47005e-15 1 0
-4.29449e-16 1 0
-1.08747e-15 1 0
3.47005e-15 1 0
-2.53472e-16 1 0
-1.08747e-15 1 0
2.2491e-15 1 0
6.7763e-15 1 0
8.22075e-15 1 0
-3.369e-15 1 0
-4.11364e-15 1 0
8.22075e-15 1 0
6.61353e-15 1 0
-4.11364e-15 1 0
-3.59238e-15 1 0
-2.53472e-16 1 0
5.40548e-15 1 0
2.2491e-15 1 0
1.17155e-15 1 0
5.40548e-15 1 0
4.44978e-15 1 0
1.17155e-15 1 0
1.43275e-15 1 0
6.61353e-15 1 0
2.72573e-15 1 0
-3.59238e-15 1 0
1.09392e-15 1 0
2.72573e-15 1 0
7.03778e-15 1 0
1.09392e-15 1 0
-5.10459e-15 1 0
4.95021e-15 1 0
4.24675e-15 1 0
-4.17297e-15 1 0
-2.05017e-15 1 0
4.24675e-15 1 0
5.78561e-15 1 0
-2.05017e-15 1 0
-3.5581e-15 1 0
5.03851e-15 1 0
3.89779e-15 1 0
-2.67764e-15 1 0
-1.83111e-15 1 0
3.89779e-15 1 0
3.01867e-15 1 0
-1.83111e-15 1 0
4.58435e-16 1 0
5.78561e-15 1 0
1.6051e-15 1 0
-3.5581e-15 1 0
1.41047e-16 1 0
1.6051e-15 1 0
5.65837e-15 1 0
1.41047e-16 1 0
-4.64396e-16 1 0
3.01867e-15 1 0
4.4166e-15 1 0
4.58435e-16 1 0
-1.68198e-15 1 0
4.4166e-15 1 0
4.76975e-15 1 0
-1.68198e-15 1 0
-2.33436e-15 1 0
4.44978e-15 1 0
2.4909e-16 1 0
1.43275e-15 1 0
1.02405e-14 1 0
2.4909e-16 1 0
7.92024e-15 1 0
1.02405e-14 1 0
2.7901e-15 1 0
7.03778e-15 1 0
-3.31577e-16 1 0
-5.10459e-15 1 0
-2.03509e-15 1 0
-3.31577e-16 1 0
8.9112e-15 1 0
-2.03509e-15 1 0
-6.108e-15 1 0
7.92024e-15 1 0
-8.31732e-16 1 0
2.7901e-15 1 0
4.24218e-15 1 0
-8.31732e-16 1 0
7.47994e-15 1 0
4.24218e-15 1 0
1.52676e-15 1 0
8.9112e-15 1 0
7.19695e-15 1 0
-6.108e-15 1 0
3.90169e-16 1 0
7.19695e-15 1 0
3.08354e-15 1 0
3.90169e-16 1 0
-9.85075e-16 1 0
5.65837e-15 1 0
6.7152e-15 1 0
-4.64396e-16 1 0
3.74818e-16 1 0
6.7152e-15 1 0
7.28233e-15 1 0
3.74818e-16 1 0
-6.26591e-15 1 0
4.76975e-15 1 0
-1.08732e-15 1 0
-2.33436e-15 1 0
6.2231e-15 1 0
-1.08732e-15 1 0
9.16299e-15 1 0
6.2231e-15 1 0
-6.47834e-15 1 0
7.28233e-15 1 0
3.75396e-16 1 0
-6.26591e-15 1 0
2.48042e-15 1 0
3.75396e-16 1 0
6.14065e-15 1 0
2.48042e-15 1 0
-3.20974e-15 1 0
9.16299e-15 1 0
2.92346e-15 1 0
-6.47834e-15 1 0
1.01716e-15 1 0
2.92346e-15 1 0
9.91103e-15 1 0
1.01716e-15 1 0
2.84683e-16 1 0
0 1 0
9.25037e-15 1 0
0 1 0
-5.77735e-15 1 0
9.25037e-15 1 0
-3.89719e-16 1 0
-5.77735e-15 1 0
2.41593e-15 1 0
0 1 0
6.42559e-15 1 0
0 1 0
-8.45034e-15 1 0
6.42559e-15 1 0
-1.54427e-15 1 0
-8.45034e-15 1 0
-1.51863e-16 1 0
-3.89719e-16 1 0
6.99749e-16 1 0
2.41593e-15 1 0
2.41998e-15 1 0
6.99749e-16 1 0
-5.84854e-15 1 0
2.41998e-15 1 0
2.02797e-15 1 0
-1.54427e-15 1 0
-1.47492e-15 1 0
-1.51863e-16 1 0
5.48281e-16 1 0
-1.47492e-15 1 0
-3.05586e-16 1 0
5.48281e-16 1 0
2.75558e-15 1 0
0 1 0
8.01716e-15 1 0
0 1 0
-6.37662e-15 1 0
8.01716e-15 1 0
-1.00673e-16 1 0
-6.37662e-15 1 0
6.76246e-16 1 0
0 1 0
5.75755e-15 1 0
0 1 0
-3.28922e-15 1 0
5.75755e-15 1 0
1.42548e-15 1 0
-3.28922e-15 1 0
2.86631e-15 1 0
-1.00673e-16 1 0
8.15195e-17 1 0
6.76246e-16 1 0
8.89327e-16 1 0
8.15195e-17 1 0
-1.81263e-15 1 0
8.89327e-16 1 0
4.63541e-15 1 0
1.42548e-15 1 0
5.47747e-16 1 0
2.86631e-15 1 0
3.7757e-15 1 0
5.47747e-16 1 0
-4.92732e-15 1 0
3.7757e-15 1 0
9.16437e-15 1 0
-5.84854e-15 1 0
2.84174e-15 1 0
2.02797e-15 1 0
-3.16087e-15 1 0
2.84174e-15 1 0
2.2491e-15 1 0
-3.16087e-15 1 0
-2.96299e-15 1 0
-3.05586e-16 1 0
5.98032e-15 1 0
2.75558e-15 1 0
-3.86146e-15 1 0
5.98032e-15 1 0
3.56462e-15 1 0
-3.86146e-15 1 0
-2.45279e-15 1 0
2.2491e-15 1 0
4.84036e-15 1 0
-2.96299e-15 1 0
6.28386e-16 1 0
4.84036e-15 1 0
5.19932e-15 1 0
6.28386e-16 1 0
-2.29344e-15 1 0
3.56462e-15 1 0
-1.31863e-15 1 0
-2.45279e-15 1 0
-1.76473e-15 1 0
-1.31863e-15 1 0
1.04935e-15 1 0
-1.76473e-15 1 0
-2.84052e-15 1 0
-1.81263e-15 1 0
4.99108e-15 1 0
4.63541e-15 1 0
-4.03052e-15 1 0
4.99108e-15 1 0
2.82781e-15 1 0
-4.03052e-15 1 0
-3.0845e-16 1 0
-4.92732e-15 1 0
3.48909e-15 1 0
9.16437e-15 1 0
2.42874e-15 1 0
3.48909e-15 1 0
2.40686e-15 1 0
2.42874e-15 1 0
9.40789e-16 1 0
2.82781e-15 1 0
4.73908e-15 1 0
-3.0845e-16 1 0
-7.84082e-16 1 0
4.73908e-15 1 0
7.26823e-15 1 0
-7.84082e-16 1 0
-8.39057e-16 1 0
2.40686e-15 1 0
1.94975e-15 1 0
9.40789e-16 1 0
1.17464e-15 1 0
1.94975e-15 1 0
1.64934e-15 1 0
1.17464e-15 1 0
6.56779e-16 1 0
0 1 0
6.38298e-15 1 0
0 1 0
-7.20357e-15 1 0
6.38298e-15 1 0
3.58058e-15 1 0
-7.20357e-15 1 0
-4.05442e-15 1 0
0 1 0
3.48361e-15 1 0
0 1 0
-1.1261e-15 1 0
3.48361e-15 1 0
1.42605e-15 1 0
-1.1261e-15 1 0
-1.62295e-17 1 0
3.58058e-15 1 0
1.58635e-16 1 0
-4.05442e-15 1 0
1.03378e-15 1 0
1.58635e-16 1 0
-5.41815e-15 1 0
1.03378e-15 1 0
5.02558e-15 1 0
1.42605e-15 1 0
-1.31027e-17 1 0
-1.62295e-17 1 0
3.92021e-16 1 0
-1.31027e-17 1 0
-1.16249e-15 1 0
3.92021e-16 1 0
2.5208e-15 1 0
0 1 0
8.14272e-16 1 0
0 1 0
6.01024e-16 1 0
8.14272e-16 1 0
3.68175e-16 1 0
6.01024e-16 1 0
1.36787e-15 1 0
0 1 0
-9.89182e-16 1 0
0 1 0
1.86755e-15 1 0
-9.89182e-16 1 0
-1.15589e-16 1 0
1.86755e-15 1 0
1.1586e-15 1 0
3.68175e-16 1 0
6.27035e-16 1 0
1.36787e-15 1 0
3.11151e-16 1 0
6.27035e-16 1 0
-1.42683e-15 1 0
3.11151e-16 1 0
3.25914e-15 1 0
-1.15589e-16 1 0
1.1501e-15 1 0
1.1586e-15 1 0
8.47331e-16 1 0
1.1501e-15 1 0
-1.05897e-15 1 0
8.47331e-16 1 0
3.36353e-15 1 0
-5.41815e-15 1 0
-2.97579e-15 1 0
5.02558e-15 1 0
3.7429e-15 1 0
-2.97579e-15 1 0
6.18548e-16 1 0
3.7429e-15 1 0
1.93203e-15 1 0
-1.16249e-15 1 0
-2.83251e-16 1 0
2.5208e-15 1 0
1.87766e-15 1 0
-2.83251e-16 1 0
-1.38978e-15 1 0
1.87766e-15 1 0
1.90621e-15 1 0
6.18548e-16 1 0
1.03247e-15 1 0
1.93203e-15 1 0
2.94481e-15 1 0
1.03247e-15 1 0
2.18965e-16 1 0
2.94481e-15 1 0
2.94407e-15 1 0
-1.38978e-15 1 0
-2.94958e-15 1 0
1.90621e-15 1 0
2.36694e-15 1 0
-2.94958e-15 1 0
-1.55007e-15 1 0
2.36694e-15 1 0
1.06615e-15 1 0
-1.42683e-15 1 0
2.69398e-16 1 0
3.25914e-15 1 0
1.72431e-15 1 0
2.69398e-16 1 0
5.77069e-16 1 0
1.72431e-15 1 0
3.04515e-15 1 0
-1.05897e-15 1 0
7.07444e-16 1 0
3.36353e-15 1 0
1.09691e-15 1 0
7.07444e-16 1 0
-6.25317e-16 1 0
1.09691e-15 1 0
1.91734e-15 1 0
5.77069e-16 1 0
-3.56376e-16 1 0
3.04515e-15 1 0
2.8372e-15 1 0
-3.56376e-16 1 0
1.22999e-15 1 0
2.8372e-15 1 0
2.62568e-15 1 0
-6.25317e-16 1 0
1.41559e-16 1 0
1.91734e-15 1 0
1.14714e-15 1 0
1.41559e-16 1 0
-4.50018e-16 1 0
1.14714e-15 1 0
3.08271e-15 1 0
5.19932e-15 1 0
5.76846e-15 1 0
-2.29344e-15 1 0
-2.2995e-15 1 0
5.76846e-15 1 0
4.74579e-15 1 0
-2.2995e-15 1 0
-6.02272e-16 1 0
1.04935e-15 1 0
2.10493e-15 1 0
-2.84052e-15 1 0
-2.25569e-15 1 0
2.10493e-15 1 0
1.93666e-15 1 0
-2.25569e-15 1 0
-2.9518e-15 1 0
4.74579e-15 1 0
5.80344e-15 1 0
-6.02272e-16 1 0
1.04034e-15 1 0
5.80344e-15 1 0
8.60965e-15 1 0
1.04034e-15 1 0
-3.40789e-15 1 0
1.93666e-15 1 0
-2.60365e-15 1 0
-2.9518e-15 1 0
1.05161e-15 1 0
-2.60365e-15 1 0
4.48267e-15 1 0
1.05161e-15 1 0
-5.74785e-15 1 0
7.26823e-15 1 0
5.78322e-15 1 0
-8.39057e-16 1 0
-1.85202e-15 1 0
5.78322e-15 1 0
5.71926e-15 1 0
-1.85202e-15 1 0
9.65028e-17 1 0
1.64934e-15 1 0
2.61179e-15 1 0
6.56779e-16 1 0
1.95416e-15 1 0
2.61179e-15 1 0
4.42215e-16 1 0
1.95416e-15 1 0
2.08909e-15 1 0
5.71926e-15 1 0
1.55957e-15 1 0
9.65028e-17 1 0
1.87483e-15 1 0
1.55957e-15 1 0
6.28687e-15 1 0
1.87483e-15 1 0
-3.16319e-15 1 0
4.42215e-16 1 0
2.23288e-15 1 0
2.08909e-15 1 0
-5.95202e-16 1 0
2.23288e-15 1 0
4.4538e-15 1 0
-5.95202e-16 1 0
6.04094e-17 1 0
8.60965e-15 1 0
5.53035e-16 1 0
-3.40789e-15 1 0
4.85474e-15 1 0
5.53035e-16 1 0
1.15825e-14 1 0
4.85474e-15 1 0
8.77733e-17 1 0
4.48267e-15 1 0
-1.37404e-16 1 0
-5.74785e-15 1 0
-2.55808e-15 1 0
-1.37404e-16 1 0
2.06856e-15 1 0
-2.55808e-15 1 0
-1.41646e-15 1 0
1.15825e-14 1 0
2.89841e-15 1 0
8.77733e-17 1 0
5.00928e-16 1 0
2.89841e-15 1 0
2.39662e-15 1 0
5.00928e-16 1 0
-2.06555e-15 1 0
2.06856e-15 1 0
2.89257e-15 1 0
-1.41646e-15 1 0
3.46329e-16 1 0
2.89257e-15 1 0
1.64446e-15 1 0
3.46329e-16 1 0
1.15389e-15 1 0
6.28687e-15 1 0
4.45036e-15 1 0
-3.16319e-15 1 0
-1.91844e-15 1 0
4.45036e-15 1 0
4.5387e-15 1 0
-1.91844e-15 1 0
-3.94478e-15 1 0
4.4538e-15 1 0
6.2028e-16 1 0
6.04094e-17 1 0
6.00607e-15 1 0
6.2028e-16 1 0
4.83269e-15 1 0
6.00607e-15 1 0
3.68275e-16 1 0
4.5387e-15 1 0
2.06135e-15 1 0
-3.94478e-15 1 0
4.97403e-15 1 0
2.06135e-15 1 0
2.81389e-15 1 0
4.97403e-15 1 0
1.0104e-15 1 0
4.83269e-15 1 0
-9.01915e-16 1 0
3.68275e-16 1 0
-4.3228e-16 1 0
-9.01915e-16 1 0
7.11761e-15 1 0
-4.3228e-16 1 0
-1.09784e-15 1 0
2.18965e-16 1 0
-1.22643e-15 1 0
2.94407e-15 1 0
2.28851e-15 1 0
-1.22643e-15 1 0
-1.7438e-15 1 0
2.28851e-15 1 0
3.8544e-15 1 0
-1.55007e-15 1 0
-1.1449e-15 1 0
1.06615e-15 1 0
1.40029e-15 1 0
-1.1449e-15 1 0
-1.78214e-15 1 0
1.40029e-15 1 0
1.22125e-15 1 0
-1.7438e-15 1 0
1.07082e-15 1 0
3.8544e-15 1 0
2.62622e-15 1 0
1.07082e-15 1 0
1.24529e-15 1 0
2.62622e-15 1 0
1.05238e-15 1 0
-1.78214e-15 1 0
-7.44052e-16 1 0
1.22125e-15 1 0
-3.2322e-17 1 0
-7.44052e-16 1 0
-1.08554e-15 1 0
-3.2322e-17 1 0
1.56442e-15 1 0
1.22999e-15 1 0
-1.3879e-16 1 0
2.62568e-15 1 0
1.85875e-15 1 0
-1.3879e-16 1 0
8.57776e-16 1 0
1.85875e-15 1 0
2.19349e-15 1 0
-4.50018e-16 1 0
4.60458e-16 1 0
3.08271e-15 1 0
3.33651e-15 1 0
4.60458e-16 1 0
1.44278e-17 1 0
3.33651e-15 1 0
2.36274e-15 1 0
8.57776e-16 1 0
1.15528e-15 1 0
2.19349e-15 1 0
1.97261e-15 1 0
1.15528e-15 1 0
1.15828e-16 1 0
1.97261e-15 1 0
2.62089e-15 1 0
1.44278e-17 1 0
-4.0018e-16 1 0
2.36274e-15 1 0
1.5574e-15 1 0
-4.0018e-16 1 0
-9.62398e-16 1 0
1.5574e-15 1 0
3.49739e-15 1 0
1.24529e-15 1 0
-2.04159e-15 1 0
1.05238e-15 1 0
3.14318e-15 1 0
-2.04159e-15 1 0
-1.45075e-15 1 0
3.14318e-15 1 0
2.75348e-15 1 0
-1.08554e-15 1 0
-2.61769e-15 1 0
1.56442e-15 1 0
2.12694e-15 1 0
-2.61769e-15 1 0
-5.13839e-16 1 0
2.12694e-15 1 0
-8.19827e-16 1 0
-1.45075e-15 1 0
-2.16533e-15 1 0
2.75348e-15 1 0
4.85169e-15 1 0
-2.16533e-15 1 0
-2.08471e-15 1 0
4.85169e-15 1 0
2.25015e-15 1 0
-5.13839e-16 1 0
-3.02975e-15 1 0
-8.19827e-16 1 0
1.92762e-15 1 0
-3.02975e-15 1 0
-4.48021e-16 1 0
1.92762e-15 1 0
1.11366e-15 1 0
1.15828e-16 1 0
-2.7701e-16 1 0
2.62089e-15 1 0
3.08343e-15 1 0
-2.7701e-16 1 0
2.10428e-15 1 0
3.08343e-15 1 0
1.04432e-15 1 0
-9.62398e-16 1 0
-7.66118e-16 1 0
3.49739e-15 1 0
2.10215e-15 1 0
-7.66118e-16 1 0
-5.87605e-16 1 0
2.10215e-15 1 0
9.74006e-16 1 0
2.10428e-15 1 0
2.13878e-16 1 0
1.04432e-15 1 0
1.27818e-15 1 0
2.13878e-16 1 0
9.88743e-16 1 0
1.27818e-15 1 0
1.25768e-15 1 0
-5.87605e-16 1 0
-4.34553e-16 1 0
9.74006e-16 1 0
3.11319e-16 1 0
-4.34553e-16 1 0
-6.45999e-16 1 0
3.11319e-16 1 0
7.9102e-16 1 0
-9.39726e-15 1 0
-3.68206e-15 1 0
1.34279e-14 1 0
2.71593e-15 1 0
-3.68206e-15 1 0
4.76818e-15 1 0
2.71593e-15 1 0
-5.72161e-15 1 0
-1.67899e-14 1 0
-9.37068e-15 1 0
1.41994e-14 1 0
8.48641e-15 1 0
-9.37068e-15 1 0
-4.26903e-15 1 0
8.48641e-15 1 0
5.70649e-15 1 0
4.76818e-15 1 0
-6.27443e-15 1 0
-5.72161e-15 1 0
1.01333e-14 1 0
-6.27443e-15 1 0
-7.47239e-15 1 0
1.01333e-14 1 0
1.80032e-14 1 0
-4.26903e-15 1 0
-1.02341e-14 1 0
5.70649e-15 1 0
1.31282e-14 1 0
-1.02341e-14 1 0
-1.81658e-14 1 0
1.31282e-14 1 0
2.33552e-14 1 0
-1.62875e-14 1 0
-1.23904e-14 1 0
1.47068e-14 1 0
1.16011e-14 1 0
-1.23904e-14 1 0
-1.43685e-14 1 0
1.16011e-14 1 0
1.09929e-14 1 0
-1.86729e-16 1 0
3.47194e-15 1 0
8.95748e-15 1 0
8.51404e-15 1 0
3.47194e-15 1 0
6.44156e-15 1 0
8.51404e-15 1 0
5.49166e-15 1 0
-1.43685e-14 1 0
-1.26128e-14 1 0
1.09929e-14 1 0
7.57032e-15 1 0
-1.26128e-14 1 0
-1.79783e-14 1 0
7.57032e-15 1 0
1.50199e-14 1 0
6.44156e-15 1 0
2.01251e-15 1 0
5.49166e-15 1 0
1.32656e-14 1 0
2.01251e-15 1 0
-3.03197e-15 1 0
1.32656e-14 1 0
8.91855e-15 1 0
-7.47239e-15 1 0
1.44856e-15 1 0
1.80032e-14 1 0
-4.46657e-16 1 0
1.44856e-15 1 0
1.21412e-14 1 0
-4.46657e-16 1 0
3.00739e-16 1 0
-1.81658e-14 1 0
5.52672e-15 1 0
2.33552e-14 1 0
1.56892e-15 1 0
5.52672e-15 1 0
3.16291e-15 1 0
1.56892e-15 1 0
-1.27576e-15 1 0
1.21412e-14 1 0
1.2554e-14 1 0
3.00739e-16 1 0
-5.28189e-15 1 0
1.2554e-14 1 0
1.78797e-14 1 0
-5.28189e-15 1 0
-1.08577e-14 1 0
3.16291e-15 1 0
1.39786e-14 1 0
-1.27576e-15 1 0
-7.37264e-15 1 0
1.39786e-14 1 0
1.87453e-14 1 0
-7.37264e-15 1 0
-9.98999e-15 1 0
-1.79783e-14 1 0
3.89547e-15 1 0
1.50199e-14 1 0
1.1468e-15 1 0
3.89547e-15 1 0
1.28299e-14 1 0
1.1468e-15 1 0
-8.24341e-16 1 0
-3.03197e-15 1 0
5.56114e-15 1 0
8.91855e-15 1 0
3.17586e-15 1 0
5.56114e-15 1 0
-7.82992e-16 1 0
3.17586e-15 1 0
7.16139e-15 1 0
1.28299e-14 1 0
1.06954e-14 1 0
-8.24341e-16 1 0
7.47031e-15 1 0
1.06954e-14 1 0
1.0373e-14 1 0
7.47031e-15 1 0
2.99969e-15 1 0
-7.82992e-16 1 0
-1.42611e-14 1 0
7.16139e-15 1 0
1.63912e-14 1 0
-1.42611e-14 1 0
-1.01802e-14 1 0
1.63912e-14 1 0
1.35842e-14 1 0
7.47994e-15 1 0
8.33181e-15 1 0
1.52676e-15 1 0
-1.43841e-15 1 0
8.33181e-15 1 0
1.36229e-14 1 0
-1.43841e-15 1 0
-2.5728e-15 1 0
3.08354e-15 1 0
9.35425e-15 1 0
-9.85075e-16 1 0
-1.89725e-15 1 0
9.35425e-15 1 0
9.69659e-15 1 0
-1.89725e-15 1 0
-2.64931e-15 1 0
1.36229e-14 1 0
9.2599e-16 1 0
-2.5728e-15 1 0
6.27202e-15 1 0
9.2599e-16 1 0
4.54141e-16 1 0
6.27202e-15 1 0
1.23671e-14 1 0
9.69659e-15 1 0
5.59079e-15 1 0
-2.64931e-15 1 0
-1.29887e-15 1 0
5.59079e-15 1 0
-4.32287e-15 1 0
-1.29887e-15 1 0
1.23966e-14 1 0
6.14065e-15 1 0
5.07486e-15 1 0
-3.20974e-15 1 0
-1.22451e-15 1 0
5.07486e-15 1 0
6.66786e-15 1 0
-1.22451e-15 1 0
2.52338e-16 1 0
9.91103e-15 1 0
5.9146e-15 1 0
2.84683e-16 1 0
2.21339e-15 1 0
5.9146e-15 1 0
4.48574e-15 1 0
2.21339e-15 1 0
3.3233e-16 1 0
6.66786e-15 1 0
1.152e-14 1 0
2.52338e-16 1 0
-4.28399e-15 1 0
1.152e-14 1 0
-5.17045e-15 1 0
-4.28399e-15 1 0
1.2615e-14 1 0
4.48574e-15 1 0
6.8654e-15 1 0
3.3233e-16 1 0
-2.28251e-15 1 0
6.8654e-15 1 0
-8.0535e-15 1 0
-2.28251e-15 1 0
1.34504e-14 1 0
4.54141e-16 1 0
2.86587e-15 1 0
1.23671e-14 1 0
8.01893e-15 1 0
2.86587e-15 1 0
3.38218e-15 1 0
8.01893e-15 1 0
-1.11013e-15 1 0
-4.32287e-15 1 0
8.26158e-16 1 0
1.23966e-14 1 0
8.39815e-15 1 0
8.26158e-16 1 0
9.9725e-15 1 0
8.39815e-15 1 0
-3.18507e-15 1 0
3.38218e-15 1 0
4.80848e-15 1 0
-1.11013e-15 1 0
-5.56855e-15 1 0
4.80848e-15 1 0
7.75261e-15 1 0
-5.56855e-15 1 0
-7.39643e-15 1 0
9.9725e-15 1 0
1.36915e-14 1 0
-3.18507e-15 1 0
-6.66244e-15 1 0
1.36915e-14 1 0
1.42859e-14 1 0
-6.66244e-15 1 0
-8.64875e-15 1 0