# vtk DataFile Version 3.0
#This file was generated by the deal.II library on 2018/10/11 at 23:33:27
ASCII
DATASET UNSTRUCTURED_GRID

POINTS 5120 double
0 0 0
0.392699 0 0
0 0.62339 0
0.392699 0.62339 0
0.392699 0 0
0.785398 0 0
0.392699 0.62339 0
0.785398 0.62339 0
0 0.62339 0
0.392699 0.62339 0
0 1.24848 0
0.392699 1.24848 0
0.392699 0.62339 0
0.785398 0.62339 0
0.392699 1.24848 0
0.785398 1.24848 0
0.785398 0 0
1.1781 0 0
0.785398 0.62339 0
1.1781 0.62339 0
1.1781 0 0
1.5708 0 0
1.1781 0.62339 0
1.5708 0.62339 0
0.785398 0.62339 0
1.1781 0.62339 0
0.785398 1.24848 0
1.1781 1.24848 0
1.1781 0.62339 0
1.5708 0.62339 0
1.1781 1.24848 0
1.5708 1.24848 0
0 1.24848 0
0.392699 1.24848 0
0 1.87348 0
0.392699 1.87348 0
0.392699 1.24848 0
0.785398 1.24848 0
0.392699 1.87348 0
0.785398 1.87348 0
0 1.87348 0
0.392699 1.87348 0
0 2.49854 0
0.392699 2.49854 0
0.392699 1.87348 0
0.785398 1.87348 0
0.392699 2.49854 0
0.785398 2.49854 0
0.785398 1.24848 0
1.1781 1.24848 0
0.785398 1.87348 0
1.1781 1.87348 0
1.1781 1.24848 0
1.5708 1.24848 0
1.1781 1.87348 0
1.5708 1.87348 0
0.785398 1.87348 0
1.1781 1.87348 0
0.785398 2.49854 0
1.1781 2.49854 0
1.1781 1.87348 0
1.5708 1.87348 0
1.1781 2.49854 0
1.5708 2.49854 0
1.5708 0 0
1.9635 0 0
1.5708 0.62339 0
1.9635 0.62339 0
1.9635 0 0
2.35619 0 0
1.9635 0.62339 0
2.35619 0.62339 0
1.5708 0.62339 0
1.9635 0.62339 0
1.5708 1.24848 0
1.9635 1.24848 0
1.9635 0.62339 0
2.35619 0.62339 0
1.9635 1.24848 0
2.35619 1.24848 0
2.35619 0 0
2.74889 0 0
2.35619 0.62339 0
2.74889 0.62339 0
2.74889 0 0
3.14159 0 0
2.74889 0.62339 0
3.14159 0.62339 0
2.35619 0.62339 0
2.74889 0.62339 0
2.35619 1.24848 0
2.74889 1.24848 0
2.74889 0.62339 0
3.14159 0.62339 0
2.74889 1.24848 0
3.14159 1.24848 0
1.5708 1.24848 0
1.9635 1.24848 0
1.5708 1.87348 0
1.9635 1.87348 0
1.9635 1.24848 0
2.35619 1.24848 0
1.9635 1.87348 0
2.35619 1.87348 0
1.5708 1.87348 0
1.9635 1.87348 0
1.5708 2.49854 0
1.9635 2.49854 0
1.9635 1.87348 0
2.35619 1.87348 0
1.9635 2.49854 0
2.35619 2.49854 0
2.35619 1.24848 0
2.74889 1.24848 0
2.35619 1.87348 0
2.74889 1.87348 0
2.74889 1.24848 0
3.14159 1.24848 0
2.74889 1.87348 0
3.14159 1.87348 0
2.35619 1.87348 0
2.74889 1.87348 0
2.35619 2.49854 0
2.74889 2.49854 0
2.74889 1.87348 0
3.14159 1.87348 0
2.74889 2.49854 0
3.14159 2.49854 0
0 2.49854 0
0.392699 2.49854 0
0 3.12359 0
0.392699 3.12359 0
0.392699 2.49854 0
0.785398 2.49854 0
0.392699 3.12359 0
0.785398 3.12359 0
0 3.12359 0
0.392699 3.12359 0
0 3.74863 0
0.392699 3.74863 0
0.392699 3.12359 0
0.785398 3.12359 0
0.392699 3.74863 0
0.785398 3.74863 0
0.785398 2.49854 0
1.1781 2.49854 0
0.785398 3.12359 0
1.1781 3.12359 0
1.1781 2.49854 0
1.5708 2.49854 0
1.1781 3.12359 0
1.5708 3.12359 0
0.785398 3.12359 0
1.1781 3.12359 0
0.785398 3.74863 0
1.1781 3.74863 0
1.1781 3.12359 0
1.5708 3.12359 0
1.1781 3.74863 0
1.5708 3.74863 0
0 3.74863 0
0.392699 3.74863 0
0 4.37367 0
0.392699 4.37367 0
0.392699 3.74863 0
0.785398 3.74863 0
0.392699 4.37367 0
0.785398 4.37367 0
0 4.37367 0
0.392699 4.37367 0
0 4.9987 0
0.392699 4.9987 0
0.392699 4.37367 0
0.785398 4.37367 0
0.392699 4.9987 0
0.785398 4.9987 0
0.785398 3.74863 0
1.1781 3.74863 0
0.785398 4.37367 0
1.1781 4.37367 0
1.1781 3.74863 0
1.5708 3.74863 0
1.1781 4.37367 0
1.5708 4.37367 0
0.785398 4.37367 0
1.1781 4.37367 0
0.785398 4.9987 0
1.1781 4.9987 0
1.1781 4.37367 0
1.5708 4.37367 0
1.1781 4.9987 0
1.5708 4.9987 0
1.5708 2.49854 0
1.9635 2.49854 0
1.5708 3.12359 0
1.9635 3.12359 0
1.9635 2.49854 0
2.35619 2.49854 0
1.9635 3.12359 0
2.35619 3.12359 0
1.5708 3.12359 0
1.9635 3.12359 0
1.5708 3.74863 0
1.9635 3.74863 0
1.9635 3.12359 0
2.35619 3.12359 0
1.9635 3.74863 0
2.35619 3.74863 0
2.35619 2.49854 0
2.74889 2.49854 0
2.35619 3.12359 0
2.74889 3.12359 0
2.74889 2.49854 0
3.14159 2.49854 0
2.74889 3.12359 0
3.14159 3.12359 0
2.35619 3.12359 0
2.74889 3.12359 0
2.35619 3.74863 0
2.74889 3.74863 0
2.74889 3.12359 0
3.14159 3.12359 0
2.74889 3.74863 0
3.14159 3.74863 0
1.5708 3.74863 0
1.9635 3.74863 0
1.5708 4.37367 0
1.9635 4.37367 0
1.9635 3.74863 0
2.35619 3.74863 0
1.9635 4.37367 0
2.35619 4.37367 0
1.5708 4.37367 0
1.9635 4.37367 0
1.5708 4.9987 0
1.9635 4.9987 0
1.9635 4.37367 0
2.35619 4.37367 0
1.9635 4.9987 0
2.35619 4.9987 0
2.35619 3.74863 0
2.74889 3.74863 0
2.35619 4.37367 0
2.74889 4.37367 0
2.74889 3.74863 0
3.14159 3.74863 0
2.74889 4.37367 0
3.14159 4.37367 0
2.35619 4.37367 0
2.74889 4.37367 0
2.35619 4.9987 0
2.74889 4.9987 0
2.74889 4.37367 0
3.14159 4.37367 0
2.74889 4.9987 0
3.14159 4.9987 0
3.14159 0 0
3.53429 0 0
3.14159 0.62339 0
3.53429 0.62339 0
3.53429 0 0
3.92699 0 0
3.53429 0.62339 0
3.92699 0.62339 0
3.14159 0.62339 0
3.53429 0.62339 0
3.14159 1.24848 0
3.53429 1.24848 0
3.53429 0.62339 0
3.92699 0.62339 0
3.53429 1.24848 0
3.92699 1.24848 0
3.92699 0 0
4.31969 0 0
3.92699 0.62339 0
4.31969 0.62339 0
4.31969 0 0
4.71239 0 0
4.31969 0.62339 0
4.71239 0.62339 0
3.92699 0.62339 0
4.31969 0.62339 0
3.92699 1.24848 0
4.31969 1.24848 0
4.31969 0.62339 0
4.71239 0.62339 0
4.31969 1.24848 0
4.71239 1.24848 0
3.14159 1.24848 0
3.53429 1.24848 0
3.14159 1.87348 0
3.53429 1.87348 0
3.53429 1.24848 0
3.92699 1.24848 0
3.53429 1.87348 0
3.92699 1.87348 0
3.14159 1.87348 0
3.53429 1.87348 0
3.14159 2.49854 0
3.53429 2.49854 0
3.53429 1.87348 0
3.92699 1.87348 0
3.53429 2.49854 0
3.92699 2.49854 0
3.92699 1.24848 0
4.31969 1.24848 0
3.92699 1.87348 0
4.31969 1.87348 0
4.31969 1.24848 0
4.71239 1.24848 0
4.31969 1.87348 0
4.71239 1.87348 0
3.92699 1.87348 0
4.31969 1.87348 0
3.92699 2.49854 0
4.31969 2.49854 0
4.31969 1.87348 0
4.71239 1.87348 0
4.31969 2.49854 0
4.71239 2.49854 0
4.71239 0 0
5.10509 0 0
4.71239 0.62339 0
5.10509 0.62339 0
5.10509 0 0
5.49779 0 0
5.10509 0.62339 0
5.49779 0.62339 0
4.71239 0.62339 0
5.10509 0.62339 0
4.71239 1.24848 0
5.10509 1.24848 0
5.10509 0.62339 0
5.49779 0.62339 0
5.10509 1.24848 0
5.49779 1.24848 0
5.49779 0 0
5.89049 0 0
5.49779 0.62339 0
5.89049 0.62339 0
5.89049 0 0
6.28319 0 0
5.89049 0.62339 0
6.28319 0.62339 0
5.49779 0.62339 0
5.89049 0.62339 0
5.49779 1.24848 0
5.89049 1.24848 0
5.89049 0.62339 0
6.28319 0.62339 0
5.89049 1.24848 0
6.28319 1.24848 0
4.71239 1.24848 0
5.10509 1.24848 0
4.71239 1.87348 0
5.10509 1.87348 0
5.10509 1.24848 0
5.49779 1.24848 0
5.10509 1.87348 0
5.49779 1.87348 0
4.71239 1.87348 0
5.10509 1.87348 0
4.71239 2.49854 0
5.10509 2.49854 0
5.10509 1.87348 0
5.49779 1.87348 0
5.10509 2.49854 0
5.49779 2.49854 0
5.49779 1.24848 0
5.89049 1.24848 0
5.49779 1.87348 0
5.89049 1.87348 0
5.89049 1.24848 0
6.28319 1.24848 0
5.89049 1.87348 0
6.28319 1.87348 0
5.49779 1.87348 0
5.89049 1.87348 0
5.49779 2.49854 0
5.89049 2.49854 0
5.89049 1.87348 0
6.28319 1.87348 0
5.89049 2.49854 0
6.28319 2.49854 0
3.14159 2.49854 0
3.53429 2.49854 0
3.14159 3.12359 0
3.53429 3.12359 0
3.53429 2.49854 0
3.92699 2.49854 0
3.53429 3.12359 0
3.92699 3.12359 0
3.14159 3.12359 0
3.53429 3.12359 0
3.14159 3.74863 0
3.53429 3.74863 0
3.53429 3.12359 0
3.92699 3.12359 0
3.53429 3.74863 0
3.92699 3.74863 0
3.92699 2.49854 0
4.31969 2.49854 0
3.92699 3.12359 0
4.31969 3.12359 0
4.31969 2.49854 0
4.71239 2.49854 0
4.31969 3.12359 0
4.71239 3.12359 0
3.92699 3.12359 0
4.31969 3.12359 0
3.92699 3.74863 0
4.31969 3.74863 0
4.31969 3.12359 0
4.71239 3.12359 0
4.31969 3.74863 0
4.71239 3.74863 0
3.14159 3.74863 0
3.53429 3.74863 0
3.14159 4.37367 0
3.53429 4.37367 0
3.53429 3.74863 0
3.92699 3.74863 0
3.53429 4.37367 0
3.92699 4.37367 0
3.14159 4.37367 0
3.53429 4.37367 0
3.14159 4.9987 0
3.53429 4.9987 0
3.53429 4.37367 0
3.92699 4.37367 0
3.53429 4.9987 0
3.92699 4.9987 0
3.92699 3.74863 0
4.31969 3.74863 0
3.92699 4.37367 0
4.31969 4.37367 0
4.31969 3.74863 0
4.71239 3.74863 0
4.31969 4.37367 0
4.71239 4.37367 0
3.92699 4.37367 0
4.31969 4.37367 0
3.92699 4.9987 0
4.31969 4.9987 0
4.31969 4.37367 0
4.71239 4.37367 0
4.31969 4.9987 0
4.71239 4.9987 0
4.71239 2.49854 0
5.10509 2.49854 0
4.71239 3.12359 0
5.10509 3.12359 0
5.10509 2.49854 0
5.49779 2.49854 0
5.10509 3.12359 0
5.49779 3.12359 0
4.71239 3.12359 0
5.10509 3.12359 0
4.71239 3.74863 0
5.10509 3.74863 0
5.10509 3.12359 0
5.49779 3.12359 0
5.10509 3.74863 0
5.49779 3.74863 0
5.49779 2.49854 0
5.89049 2.49854 0
5.49779 3.12359 0
5.89049 3.12359 0
5.89049 2.49854 0
6.28319 2.49854 0
5.89049 3.12359 0
6.28319 3.12359 0
5.49779 3.12359 0
5.89049 3.12359 0
5.49779 3.74863 0
5.89049 3.74863 0
5.89049 3.12359 0
6.28319 3.12359 0
5.89049 3.74863 0
6.28319 3.74863 0
4.71239 3.74863 0
5.10509 3.74863 0
4.71239 4.37367 0
5.10509 4.37367 0
5.10509 3.74863 0
5.49779 3.74863 0
5.10509 4.37367 0
5.49779 4.37367 0
4.71239 4.37367 0
5.10509 4.37367 0
4.71239 4.9987 0
5.10509 4.9987 0
5.10509 4.37367 0
5.49779 4.37367 0
5.10509 4.9987 0
5.49779 4.9987 0
5.49779 3.74863 0
5.89049 3.74863 0
5.49779 4.37367 0
5.89049 4.37367 0
5.89049 3.74863 0
6.28319 3.74863 0
5.89049 4.37367 0
6.28319 4.37367 0
5.49779 4.37367 0
5.89049 4.37367 0
5.49779 4.9987 0
5.89049 4.9987 0
5.89049 4.37367 0
6.28319 4.37367 0
5.89049 4.9987 0
6.28319 4.9987 0
0 4.9987 0
0.392699 4.9987 0
0 5.62373 0
0.392699 5.62373 0
0.392699 4.9987 0
0.785398 4.9987 0
0.392699 5.62373 0
0.785398 5.62373 0
0 5.62373 0
0.392699 5.62373 0
0 6.24874 0
0.392699 6.24874 0
0.392699 5.62373 0
0.785398 5.62373 0
0.392699 6.24874 0
0.785398 6.24874 0
0.785398 4.9987 0
1.1781 4.9987 0
0.785398 5.62373 0
1.1781 5.62373 0
1.1781 4.9987 0
1.5708 4.9987 0
1.1781 5.62373 0
1.5708 5.62373 0
0.785398 5.62373 0
1.1781 5.62373 0
0.785398 6.24874 0
1.1781 6.24874 0
1.1781 5.62373 0
1.5708 5.62373 0
1.1781 6.24874 0
1.5708 6.24874 0
0 6.24874 0
0.392699 6.24874 0
0 6.87375 0
0.392699 6.87375 0
0.392699 6.24874 0
0.785398 6.24874 0
0.392699 6.87375 0
0.785398 6.87375 0
0 6.87375 0
0.392699 6.87375 0
0 7.49876 0
0.392699 7.49876 0
0.392699 6.87375 0
0.785398 6.87375 0
0.392699 7.49876 0
0.785398 7.49876 0
0.785398 6.24874 0
1.1781 6.24874 0
0.785398 6.87375 0
1.1781 6.87375 0
1.1781 6.24874 0
1.5708 6.24874 0
1.1781 6.87375 0
1.5708 6.87375 0
0.785398 6.87375 0
[...]
POINT_DATA 5120
VECTORS uf double
0 1 0
-9.22028e-15 1 0
0 1.00152 0
6.26258e-15 1.00152 0
-9.22028e-15 1 0
-1.57395e-14 1 0
6.26258e-15 1.00152 0
2.01107e-14 1.00152 0
0 1.00152 0
-8.64268e-15 1.00152 0
0 1.00233 0
1.77899e-14 1.00233 0
-8.64268e-15 1.00152 0
-1.33523e-14 1.00152 0
1.77899e-14 1.00233 0
1.46769e-14 1.00233 0
-1.57395e-14 1 0
-3.44095e-14 1 0
2.01107e-14 1.00152 0
4.52855e-14 1.00152 0
-3.44095e-14 1 0
-3.74325e-14 1 0
4.52855e-14 1.00152 0
4.75875e-14 1.00152 0
-1.33523e-14 1.00152 0
-3.67629e-14 1.00152 0
1.46769e-14 1.00233 0
3.83828e-14 1.00233 0
-3.67629e-14 1.00152 0
-4.36772e-14 1.00152 0
3.83828e-14 1.00233 0
4.2871e-14 1.00233 0
0 1.00233 0
-7.52683e-15 1.00233 0
0 1.00331 0
8.45573e-15 1.00331 0
-7.52683e-15 1.00233 0
-7.43887e-15 1.00233 0
8.45573e-15 1.00331 0
8.44107e-15 1.00331 0
0 1.00331 0
-1.36438e-14 1.00331 0
0 1.00423 0
4.83747e-15 1.00423 0
-1.36438e-14 1.00331 0
-2.29196e-14 1.00331 0
4.83747e-15 1.00423 0
2.33965e-14 1.00423 0
-7.43887e-15 1.00233 0
-4.20419e-14 1.00233 0
8.44107e-15 1.00331 0
3.87433e-14 1.00331 0
-4.20419e-14 1.00233 0
-3.98224e-14 1.00233 0
3.87433e-14 1.00331 0
3.81314e-14 1.00331 0
-2.29196e-14 1.00331 0
-6.33005e-15 1.00331 0
2.33965e-14 1.00423 0
7.66427e-15 1.00423 0
-6.33005e-15 1.00331 0
-2.4405e-14 1.00331 0
7.66427e-15 1.00423 0
2.75158e-14 1.00423 0
-3.74325e-14 1 0
-2.92427e-14 1 0
4.75875e-14 1.00152 0
2.97431e-14 1.00152 0
-2.92427e-14 1 0
-2.963e-14 1 0
2.97431e-14 1.00152 0
3.21855e-14 1.00152 0
-4.36772e-14 1.00152 0
-2.61512e-14 1.00152 0
4.2871e-14 1.00233 0
2.32549e-14 1.00233 0
-2.61512e-14 1.00152 0
-3.83262e-14 1.00152 0
2.32549e-14 1.00233 0
3.55173e-14 1.00233 0
-2.963e-14 1 0
-2.57229e-14 1 0
3.21855e-14 1.00152 0
2.93522e-14 1.00152 0
-2.57229e-14 1 0
-1.42862e-14 1 0
2.93522e-14 1.00152 0
1.43924e-14 1.00152 0
-3.83262e-14 1.00152 0
-3.64971e-14 1.00152 0
3.55173e-14 1.00233 0
4.29795e-14 1.00233 0
-3.64971e-14 1.00152 0
-2.35439e-14 1.00152 0
4.29795e-14 1.00233 0
3.42581e-14 1.00233 0
-3.98224e-14 1.00233 0
-1.50052e-14 1.00233 0
3.81314e-14 1.00331 0
2.61037e-14 1.00331 0
-1.50052e-14 1.00233 0
-1.42583e-14 1.00233 0
2.61037e-14 1.00331 0
2.42741e-14 1.00331 0
-2.4405e-14 1.00331 0
-2.83743e-14 1.00331 0
2.75158e-14 1.00423 0
2.70369e-14 1.00423 0
-2.83743e-14 1.00331 0
-2.4387e-14 1.00331 0
2.70369e-14 1.00423 0
2.64495e-14 1.00423 0
-1.42583e-14 1.00233 0
-3.5387e-14 1.00233 0
2.42741e-14 1.00331 0
3.57304e-14 1.00331 0
-3.5387e-14 1.00233 0
-3.79331e-14 1.00233 0
3.57304e-14 1.00331 0
3.81763e-14 1.00331 0
-2.4387e-14 1.00331 0
-2.75405e-14 1.00331 0
2.64495e-14 1.00423 0
2.56644e-14 1.00423 0
-2.75405e-14 1.00331 0
-1.89571e-14 1.00331 0
2.56644e-14 1.00423 0
2.03147e-14 1.00423 0
0 1.00423 0
6.16267e-15 1.00423 0
0 1.00515 0
-8.37883e-16 1.00515 0
6.16267e-15 1.00423 0
-8.3733e-15 1.00423 0
-8.37883e-16 1.00515 0
5.2593e-15 1.00515 0
0 1.00515 0
-4.03141e-15 1.00515 0
0 1.00606 0
2.43084e-15 1.00606 0
-4.03141e-15 1.00515 0
-1.10915e-14 1.00515 0
2.43084e-15 1.00606 0
1.8351e-14 1.00606 0
-8.3733e-15 1.00423 0
-2.49279e-14 1.00423 0
5.2593e-15 1.00515 0
3.39876e-14 1.00515 0
-2.49279e-14 1.00423 0
-2.03209e-14 1.00423 0
3.39876e-14 1.00515 0
2.16765e-14 1.00515 0
-1.10915e-14 1.00515 0
-4.42857e-14 1.00515 0
1.8351e-14 1.00606 0
4.23332e-14 1.00606 0
-4.42857e-14 1.00515 0
-2.3762e-14 1.00515 0
4.23332e-14 1.00606 0
2.46364e-14 1.00606 0
0 1.00606 0
1.78501e-15 1.00606 0
0 1.00697 0
-4.29282e-15 1.00697 0
1.78501e-15 1.00606 0
-1.13239e-14 1.00606 0
-4.29282e-15 1.00697 0
1.25145e-14 1.00697 0
0 1.00697 0
2.03443e-15 1.00697 0
0 1.00787 0
1.63231e-15 1.00787 0
2.03443e-15 1.00697 0
-1.8175e-14 1.00697 0
1.63231e-15 1.00787 0
1.6149e-14 1.00787 0
-1.13239e-14 1.00606 0
-2.59062e-14 1.00606 0
1.25145e-14 1.00697 0
1.39626e-14 1.00697 0
-2.59062e-14 1.00606 0
-2.80175e-14 1.00606 0
1.39626e-14 1.00697 0
2.13042e-14 1.00697 0
-1.8175e-14 1.00697 0
-4.91711e-15 1.00697 0
1.6149e-14 1.00787 0
2.41985e-15 1.00787 0
-4.91711e-15 1.00697 0
-7.10649e-15 1.00697 0
2.41985e-15 1.00787 0
7.03709e-15 1.00787 0
-2.03209e-14 1.00423 0
-2.47256e-14 1.00423 0
2.16765e-14 1.00515 0
2.54881e-14 1.00515 0
-2.47256e-14 1.00423 0
-3.6437e-14 1.00423 0
2.54881e-14 1.00515 0
3.48319e-14 1.00515 0
-2.3762e-14 1.00515 0
-2.28721e-14 1.00515 0
2.46364e-14 1.00606 0
2.1495e-14 1.00606 0
-2.28721e-14 1.00515 0
-1.83644e-14 1.00515 0
2.1495e-14 1.00606 0
2.24507e-14 1.00606 0
-3.6437e-14 1.00423 0
-2.69304e-14 1.00423 0
3.48319e-14 1.00515 0
2.99837e-14 1.00515 0
-2.69304e-14 1.00423 0
-3.92009e-14 1.00423 0
2.99837e-14 1.00515 0
4.817e-14 1.00515 0
-1.83644e-14 1.00515 0
-1.43153e-14 1.00515 0
2.24507e-14 1.00606 0
1.43915e-14 1.00606 0
-1.43153e-14 1.00515 0
-4.08723e-14 1.00515 0
1.43915e-14 1.00606 0
3.85264e-14 1.00606 0
-2.80175e-14 1.00606 0
-1.90114e-14 1.00606 0
2.13042e-14 1.00697 0
2.31579e-14 1.00697 0
-1.90114e-14 1.00606 0
-3.41115e-14 1.00606 0
2.31579e-14 1.00697 0
3.70176e-14 1.00697 0
-7.10649e-15 1.00697 0
-2.34198e-14 1.00697 0
7.03709e-15 1.00787 0
2.31233e-14 1.00787 0
-2.34198e-14 1.00697 0
-3.13491e-14 1.00697 0
2.31233e-14 1.00787 0
2.67144e-14 1.00787 0
-3.41115e-14 1.00606 0
-1.80712e-14 1.00606 0
3.70176e-14 1.00697 0
2.34117e-14 1.00697 0
-1.80712e-14 1.00606 0
-2.76809e-14 1.00606 0
2.34117e-14 1.00697 0
2.60407e-14 1.00697 0
-3.13491e-14 1.00697 0
-2.33531e-14 1.00697 0
2.67144e-14 1.00787 0
2.26846e-14 1.00787 0
-2.33531e-14 1.00697 0
-2.7481e-14 1.00697 0
2.26846e-14 1.00787 0
2.66218e-14 1.00787 0
-1.42862e-14 1 0
-3.56508e-14 1 0
1.43924e-14 1.00152 0
4.11952e-14 1.00152 0
-3.56508e-14 1 0
-2.88315e-14 1 0
4.11952e-14 1.00152 0
3.4384e-14 1.00152 0
-2.35439e-14 1.00152 0
-2.23574e-14 1.00152 0
3.42581e-14 1.00233 0
2.31264e-14 1.00233 0
-2.23574e-14 1.00152 0
-1.56829e-14 1.00152 0
2.31264e-14 1.00233 0
1.5271e-14 1.00233 0
-2.88315e-14 1 0
-2.29706e-14 1 0
3.4384e-14 1.00152 0
2.50889e-14 1.00152 0
-2.29706e-14 1 0
-3.36944e-14 1 0
2.50889e-14 1.00152 0
3.68836e-14 1.00152 0
-1.56829e-14 1.00152 0
-2.26835e-14 1.00152 0
1.5271e-14 1.00233 0
2.86358e-14 1.00233 0
-2.26835e-14 1.00152 0
-2.4221e-14 1.00152 0
2.86358e-14 1.00233 0
3.01566e-14 1.00233 0
-3.79331e-14 1.00233 0
-2.43552e-14 1.00233 0
3.81763e-14 1.00331 0
2.94249e-14 1.00331 0
-2.43552e-14 1.00233 0
-1.66813e-14 1.00233 0
2.94249e-14 1.00331 0
1.8267e-14 1.00331 0
-1.89571e-14 1.00331 0
-2.82737e-14 1.00331 0
2.03147e-14 1.00423 0
3.44331e-14 1.00423 0
-2.82737e-14 1.00331 0
-1.41734e-14 1.00331 0
3.44331e-14 1.00423 0
2.00115e-14 1.00423 0
-1.66813e-14 1.00233 0
-2.9969e-14 1.00233 0
1.8267e-14 1.00331 0
3.10607e-14 1.00331 0
-2.9969e-14 1.00233 0
-2.55142e-14 1.00233 0
3.10607e-14 1.00331 0
3.17571e-14 1.00331 0
-1.41734e-14 1.00331 0
-2.34181e-14 1.00331 0
2.00115e-14 1.00423 0
3.19339e-14 1.00423 0
-2.34181e-14 1.00331 0
-2.88016e-14 1.00331 0
3.19339e-14 1.00423 0
2.91692e-14 1.00423 0
-3.36944e-14 1 0
-3.77435e-14 1 0
3.68836e-14 1.00152 0
5.053e-14 1.00152 0
-3.77435e-14 1 0
-3.48596e-14 1 0
5.053e-14 1.00152 0
4.87671e-14 1.00152 0
-2.4221e-14 1.00152 0
-4.21507e-14 1.00152 0
3.01566e-14 1.00233 0
4.00759e-14 1.00233 0
-4.21507e-14 1.00152 0
-5.11675e-14 1.00152 0
4.00759e-14 1.00233 0
5.05206e-14 1.00233 0
-3.48596e-14 1 0
-1.70409e-14 1 0
4.87671e-14 1.00152 0
1.97625e-14 1.00152 0
-1.70409e-14 1 0
-2.39978e-14 1 0
1.97625e-14 1.00152 0
3.12826e-14 1.00152 0
-5.11675e-14 1.00152 0
-2.2047e-14 1.00152 0
5.05206e-14 1.00233 0
3.2865e-14 1.00233 0
-2.2047e-14 1.00152 0
-2.01393e-14 1.00152 0
3.2865e-14 1.00233 0
2.19464e-14 1.00233 0
-2.55142e-14 1.00233 0
-2.02806e-14 1.00233 0
3.17571e-14 1.00331 0
2.43244e-14 1.00331 0
-2.02806e-14 1.00233 0
-2.71506e-14 1.00233 0
2.43244e-14 1.00331 0
2.93665e-14 1.00331 0
-2.88016e-14 1.00331 0
-1.592e-14 1.00331 0
2.91692e-14 1.00423 0
1.95896e-14 1.00423 0
-1.592e-14 1.00331 0
-2.52434e-14 1.00331 0
1.95896e-14 1.00423 0
2.13247e-14 1.00423 0
-2.71506e-14 1.00233 0
-3.69034e-14 1.00233 0
2.93665e-14 1.00331 0
3.96674e-14 1.00331 0
-3.69034e-14 1.00233 0
-2.67344e-14 1.00233 0
3.96674e-14 1.00331 0
2.83373e-14 1.00331 0
-2.52434e-14 1.00331 0
-2.56388e-14 1.00331 0
2.13247e-14 1.00423 0
2.11491e-14 1.00423 0
-2.56388e-14 1.00331 0
-1.48966e-14 1.00331 0
2.11491e-14 1.00423 0
2.12643e-14 1.00423 0
-3.92009e-14 1.00423 0
-4.37251e-14 1.00423 0
4.817e-14 1.00515 0
4.57408e-14 1.00515 0
-4.37251e-14 1.00423 0
-2.37728e-14 1.00423 0
4.57408e-14 1.00515 0
2.84884e-14 1.00515 0
-4.08723e-14 1.00515 0
-2.5349e-14 1.00515 0
3.85264e-14 1.00606 0
2.53284e-14 1.00606 0
-2.5349e-14 1.00515 0
-1.78604e-14 1.00515 0
2.53284e-14 1.00606 0
2.22677e-14 1.00606 0
-2.37728e-14 1.00423 0
-2.82566e-14 1.00423 0
2.84884e-14 1.00515 0
3.16024e-14 1.00515 0
-2.82566e-14 1.00423 0
-2.69853e-14 1.00423 0
3.16024e-14 1.00515 0
3.3036e-14 1.00515 0
-1.78604e-14 1.00515 0
-2.90913e-14 1.00515 0
2.22677e-14 1.00606 0
2.52751e-14 1.00606 0
-2.90913e-14 1.00515 0
-2.41514e-14 1.00515 0
2.52751e-14 1.00606 0
2.45578e-14 1.00606 0
-2.76809e-14 1.00606 0
-2.47477e-14 1.00606 0
2.60407e-14 1.00697 0
2.68009e-14 1.00697 0
-2.47477e-14 1.00606 0
-2.46253e-14 1.00606 0
2.68009e-14 1.00697 0
2.34762e-14 1.00697 0
-2.7481e-14 1.00697 0
-2.73981e-14 1.00697 0
2.66218e-14 1.00787 0
3.0669e-14 1.00787 0
-2.73981e-14 1.00697 0
-2.59225e-14 1.00697 0
3.0669e-14 1.00787 0
2.61325e-14 1.00787 0
-2.46253e-14 1.00606 0
-2.23215e-14 1.00606 0
2.34762e-14 1.00697 0
2.05975e-14 1.00697 0
-2.23215e-14 1.00606 0
-2.48312e-14 1.00606 0
2.05975e-14 1.00697 0
2.21082e-14 1.00697 0
-2.59225e-14 1.00697 0
-2.41271e-14 1.00697 0
2.61325e-14 1.00787 0
2.69151e-14 1.00787 0
-2.41271e-14 1.00697 0
-1.36883e-14 1.00697 0
2.69151e-14 1.00787 0
1.58829e-14 1.00787 0
-2.69853e-14 1.00423 0
-2.4211e-14 1.00423 0
3.3036e-14 1.00515 0
2.83285e-14 1.00515 0
-2.4211e-14 1.00423 0
-1.34562e-14 1.00423 0
2.83285e-14 1.00515 0
2.36226e-14 1.00515 0
-2.41514e-14 1.00515 0
-1.36566e-14 1.00515 0
2.45578e-14 1.00606 0
1.27041e-14 1.00606 0
-1.36566e-14 1.00515 0
-1.70015e-14 1.00515 0
1.27041e-14 1.00606 0
1.69079e-14 1.00606 0
-1.34562e-14 1.00423 0
-4.72565e-15 1.00423 0
2.36226e-14 1.00515 0
1.18631e-14 1.00515 0
-4.72565e-15 1.00423 0
-1.44951e-14 1.00423 0
1.18631e-14 1.00515 0
2.60036e-14 1.00515 0
-1.70015e-14 1.00515 0
-1.86309e-14 1.00515 0
1.69079e-14 1.00606 0
2.46138e-14 1.00606 0
-1.86309e-14 1.00515 0
-3.16069e-14 1.00515 0
2.46138e-14 1.00606 0
2.90545e-14 1.00606 0
-2.48312e-14 1.00606 0
-1.48127e-14 1.00606 0
2.21082e-14 1.00697 0
1.62885e-14 1.00697 0
-1.48127e-14 1.00606 0
-1.76322e-14 1.00606 0
1.62885e-14 1.00697 0
1.97485e-14 1.00697 0
-1.36883e-14 1.00697 0
-1.18787e-14 1.00697 0
1.58829e-14 1.00787 0
1.48726e-14 1.00787 0
-1.18787e-14 1.00697 0
-2.59129e-14 1.00697 0
1.48726e-14 1.00787 0
3.06172e-14 1.00787 0
-1.76322e-14 1.00606 0
-2.07217e-14 1.00606 0
1.97485e-14 1.00697 0
2.54312e-14 1.00697 0
-2.07217e-14 1.00606 0
-1.43282e-14 1.00606 0
2.54312e-14 1.00697 0
1.57122e-14 1.00697 0
-2.59129e-14 1.00697 0
-2.04711e-14 1.00697 0
3.06172e-14 1.00787 0
1.75308e-14 1.00787 0
-2.04711e-14 1.00697 0
-9.96808e-15 1.00697 0
1.75308e-14 1.00787 0
1.00409e-14 1.00787 0
0 1.00787 0
-1.11008e-14 1.00787 0
0 1.00877 0
1.06002e-14 1.00877 0
-1.11008e-14 1.00787 0
-1.5011e-14 1.00787 0
1.06002e-14 1.00877 0
1.39945e-14 1.00877 0
0 1.00877 0
-5.81617e-15 1.00877 0
0 1.00968 0
5.59677e-15 1.00968 0
-5.81617e-15 1.00877 0
-1.58595e-14 1.00877 0
5.59677e-15 1.00968 0
1.70538e-14 1.00968 0
-1.5011e-14 1.00787 0
-3.85255e-15 1.00787 0
1.39945e-14 1.00877 0
8.31386e-15 1.00877 0
-3.85255e-15 1.00787 0
-6.80392e-15 1.00787 0
8.31386e-15 1.00877 0
1.04663e-14 1.00877 0
-1.58595e-14 1.00877 0
-2.03678e-14 1.00877 0
1.70538e-14 1.00968 0
2.10682e-14 1.00968 0
-2.03678e-14 1.00877 0
-2.24264e-14 1.00877 0
2.10682e-14 1.00968 0
2.32907e-14 1.00968 0
0 1.00968 0
-4.15353e-15 1.00968 0
0 1.01061 0
4.84055e-15 1.01061 0
-4.15353e-15 1.00968 0
-1.03991e-14 1.00968 0
4.84055e-15 1.01061 0
9.23495e-15 1.01061 0
0 1.01061 0
-5.35145e-15 1.01061 0
0 1.01157 0
4.9943e-15 1.01157 0
-5.35145e-15 1.01061 0
-5.2573e-15 1.01061 0
4.9943e-15 1.01157 0
6.39487e-15 1.01157 0
-1.03991e-14 1.00968 0
-1.62174e-14 1.00968 0
9.23495e-15 1.01061 0
1.7541e-14 1.01061 0
-1.62174e-14 1.00968 0
-1.83026e-14 1.00968 0
1.7541e-14 1.01061 0
1.97101e-14 1.01061 0
-5.2573e-15 1.01061 0
-1.7599e-14 1.01061 0
6.39487e-15 1.01157 0
1.78067e-14 1.01157 0
-1.7599e-14 1.01061 0
-1.4472e-14 1.01061 0
1.78067e-14 1.01157 0
1.32984e-14 1.01157 0
-6.80392e-15 1.00787 0
-2.12349e-14 1.00787 0
1.04663e-14 1.00877 0
2.13229e-14 1.00877 0
-2.12349e-14 1.00787 0
-2.1828e-14 1.00787 0
2.13229e-14 1.00877 0
2.51288e-14 1.00877 0
-2.24264e-14 1.00877 0
-2.72254e-14 1.00877 0
2.32907e-14 1.00968 0
2.59107e-14 1.00968 0
-2.72254e-14 1.00877 0
-2.79978e-14 1.00877 0
2.59107e-14 1.00968 0
2.77829e-14 1.00968 0
-2.1828e-14 1.00787 0
-2.02003e-14 1.00787 0
2.51288e-14 1.00877 0
1.93309e-14 1.00877 0
-2.02003e-14 1.00787 0
-1.80206e-14 1.00787 0
1.93309e-14 1.00877 0
2.041e-14 1.00877 0
-2.79978e-14 1.00877 0
-2.51158e-14 1.00877 0
2.77829e-14 1.00968 0
2.51195e-14 1.00968 0
-2.51158e-14 1.00877 0
-2.60516e-14 1.00877 0
2.51195e-14 1.00968 0
2.60433e-14 1.00968 0
-1.83026e-14 1.00968 0
-2.2005e-14 1.00968 0
1.97101e-14 1.01061 0
2.41051e-14 1.01061 0
-2.2005e-14 1.00968 0
-2.60206e-14 1.00968 0
2.41051e-14 1.01061 0
2.57639e-14 1.01061 0
-1.4472e-14 1.01061 0
-2.55153e-14 1.01061 0
1.32984e-14 1.01157 0
2.68074e-14 1.01157 0
-2.55153e-14 1.01061 0
-2.50631e-14 1.01061 0
2.68074e-14 1.01157 0
2.44732e-14 1.01157 0
-2.60206e-14 1.00968 0
-2.48932e-14 1.00968 0
2.57639e-14 1.01061 0
2.98847e-14 1.01061 0
-2.48932e-14 1.00968 0
-2.50816e-14 1.00968 0
2.98847e-14 1.01061 0
2.79244e-14 1.01061 0
-2.50631e-14 1.01061 0
-3.0472e-14 1.01061 0
2.44732e-14 1.01157 0
2.65056e-14 1.01157 0
-3.0472e-14 1.01061 0
-2.83277e-14 1.01061 0
2.65056e-14 1.01157 0
2.67701e-14 1.01157 0
0 1.01157 0
-2.248e-15 1.01157 0
0 1.01255 0
3.58873e-15 1.01255 0
-2.248e-15 1.01157 0
-5.33913e-15 1.01157 0
3.58873e-15 1.01255 0
2.93486e-15 1.01255 0
0 1.01255 0
-8.3283e-15 1.01255 0
0 1.01352 0
6.47796e-15 1.01352 0
-8.3283e-15 1.01255 0
-3.937e-15 1.01255 0
6.47796e-15 1.01352 0
2.93942e-15 1.01352 0
-5.33913e-15 1.01157 0
-1.95087e-14 1.01157 0
2.93486e-15 1.01255 0
1.50825e-14 1.01255 0
-1.95087e-14 1.01157 0
-1.91506e-14 1.01157 0
1.50825e-14 1.01255 0
1.83254e-14 1.01255 0
-3.937e-15 1.01255 0
-4.41079e-15 1.01255 0
2.93942e-15 1.01352 0
4.31393e-15 1.01352 0
-4.41079e-15 1.01255 0
-1.06851e-14 1.01255 0
4.31393e-15 1.01352 0
8.41223e-15 1.01352 0
0 1.01352 0
-8.58443e-16 1.01352 0
0 1.01433 0
-1.62839e-16 1.01433 0
-8.58443e-16 1.01352 0
-3.45787e-15 1.01352 0
-1.62839e-16 1.01433 0
3.13742e-15 1.01433 0
0 1.01433 0
-1.34712e-15 1.01433 0
0 1.01452 0
2.4534e-15 1.01452 0
-1.34712e-15 1.01433 0
-6.1968e-15 1.01433 0
2.4534e-15 1.01452 0
2.27011e-15 1.01452 0
-3.45787e-15 1.01352 0
-9.22003e-15 1.01352 0
3.13742e-15 1.01433 0
6.8439e-15 1.01433 0
-9.22003e-15 1.01352 0
-1.00675e-14 1.01352 0
6.8439e-15 1.01433 0
7.8515e-15 1.01433 0
-6.1968e-15 1.01433 0
-9.46708e-15 1.01433 0
2.27011e-15 1.01452 0
6.22525e-15 1.01452 0
-9.46708e-15 1.01433 0
-8.87849e-15 1.01433 0
6.22525e-15 1.01452 0
3.22933e-15 1.01452 0
-1.91506e-14 1.01157 0
-1.92008e-14 1.01157 0
1.83254e-14 1.01255 0
1.36473e-14 1.01255 0
-1.92008e-14 1.01157 0
-1.5251e-14 1.01157 0
1.36473e-14 1.01255 0
1.51668e-14 1.01255 0
-1.06851e-14 1.01255 0
-1.15508e-14 1.01255 0
8.41223e-15 1.01352 0
1.22122e-14 1.01352 0
-1.15508e-14 1.01255 0
-1.752e-14 1.01255 0
1.22122e-14 1.01352 0
1.62151e-14 1.01352 0
-1.5251e-14 1.01157 0
-1.49835e-14 1.01157 0
1.51668e-14 1.01255 0
1.48517e-14 1.01255 0
-1.49835e-14 1.01157 0
-1.73497e-14 1.01157 0
1.48517e-14 1.01255 0
1.45156e-14 1.01255 0
-1.752e-14 1.01255 0
-1.55168e-14 1.01255 0
1.62151e-14 1.01352 0
1.39414e-14 1.01352 0
-1.55168e-14 1.01255 0
-1.28498e-14 1.01255 0
1.39414e-14 1.01352 0
1.25994e-14 1.01352 0
-1.00675e-14 1.01352 0
-1.10399e-14 1.01352 0
7.8515e-15 1.01433 0
9.57498e-15 1.01433 0
-1.10399e-14 1.01352 0
-1.19998e-14 1.01352 0
9.57498e-15 1.01433 0
1.13965e-14 1.01433 0
-8.87849e-15 1.01433 0
-8.59766e-15 1.01433 0
3.22933e-15 1.01452 0
8.24684e-15 1.01452 0
-8.59766e-15 1.01433 0
-7.9287e-15 1.01433 0
8.24684e-15 1.01452 0
1.09579e-14 1.01452 0
-1.19998e-14 1.01352 0
-1.07706e-14 1.01352 0
1.13965e-14 1.01433 0
1.07415e-14 1.01433 0
-1.07706e-14 1.01352 0
-9.94383e-15 1.01352 0
1.07415e-14 1.01433 0
9.65398e-15 1.01433 0
-7.9287e-15 1.01433 0
-7.55139e-15 1.01433 0
1.09579e-14 1.01452 0
1.21367e-14 1.01452 0
-7.55139e-15 1.01433 0
-6.54932e-15 1.01433 0
1.21367e-14 1.01452 0
4.01945e-15 1.01452 0
-1.80206e-14 1.00787 0
-2.54359e-14 1.00787 0
2.041e-14 1.00877 0
2.68457e-14 1.00877 0
-2.54359e-14 1.00787 0
-1.69331e-14 1.00787 0
2.68457e-14 1.00877 0
1.78538e-14 1.00877 0
-2.60516e-14 1.00877 0
-3.28386e-14 1.00877 0
2.60433e-14 1.00968 0
3.64569e-14 1.00968 0
-3.28386e-14 1.00877 0
-2.00215e-14 1.00877 0
3.64569e-14 1.00968 0
2.28144e-14 1.00968 0
-1.69331e-14 1.00787 0
-1.65546e-14 1.00787 0
1.78538e-14 1.00877 0
1.88438e-14 1.00877 0
-1.65546e-14 1.00787 0
-2.12605e-14 1.00787 0
1.88438e-14 1.00877 0
2.50977e-14 1.00877 0
-2.00215e-14 1.00877 0
-2.05532e-14 1.00877 0
2.28144e-14 1.00968 0
1.95282e-14 1.00968 0
-2.05532e-14 1.00877 0
-2.30303e-14 1.00877 0
1.95282e-14 1.00968 0
2.49814e-14 1.00968 0
-2.50816e-14 1.00968 0
-3.70201e-14 1.00968 0
2.79244e-14 1.01061 0
3.46702e-14 1.01061 0
-3.70201e-14 1.00968 0
-3.1844e-14 1.00968 0
3.46702e-14 1.01061 0
3.14849e-14 1.01061 0
-2.83277e-14 1.01061 0
-3.1272e-14 1.01061 0
2.67701e-14 1.01157 0
2.91897e-14 1.01157 0
-3.1272e-14 1.01061 0
-1.87516e-14 1.01061 0
2.91897e-14 1.01157 0
1.61968e-14 1.01157 0
-3.1844e-14 1.00968 0
-2.33193e-14 1.00968 0
3.14849e-14 1.01061 0
2.48727e-14 1.01061 0
-2.33193e-14 1.00968 0
-2.69878e-14 1.00968 0
2.48727e-14 1.01061 0
2.40268e-14 1.01061 0
-1.87516e-14 1.01061 0
-1.93735e-14 1.01061 0
1.61968e-14 1.01157 0
1.86423e-14 1.01157 0
-1.93735e-14 1.01061 0
-1.38562e-14 1.01061 0
1.86423e-14 1.01157 0
1.49727e-14 1.01157 0
-2.12605e-14 1.00787 0
-1.73503e-14 1.00787 0
2.50977e-14 1.00877 0
2.09234e-14 1.00877 0
-1.73503e-14 1.00787 0
-2.64352e-14 1.00787 0
2.09234e-14 1.00877 0
2.98076e-14 1.00877 0
-2.30303e-14 1.00877 0
-1.27855e-14 1.00877 0
2.49814e-14 1.00968 0
1.5419e-14 1.00968 0
-1.27855e-14 1.00877 0
-1.26791e-14 1.00877 0
1.5419e-14 1.00968 0
7.9503e-15 1.00968 0
-2.64352e-14 1.00787 0
-1.09492e-14 1.00787 0
2.98076e-14 1.00877 0
1.47283e-14 1.00877 0
-1.09492e-14 1.00787 0
-7.07537e-15 1.00787 0
1.47283e-14 1.00877 0
1.30153e-14 1.00877 0
-1.26791e-14 1.00877 0
-9.75428e-15 1.00877 0
7.9503e-15 1.00968 0
1.24591e-14 1.00968 0
-9.75428e-15 1.00877 0
-1.57477e-14 1.00877 0
1.24591e-14 1.00968 0
1.64157e-14 1.00968 0
-2.69878e-14 1.00968 0
-2.14244e-14 1.00968 0
2.40268e-14 1.01061 0
1.74978e-14 1.01061 0
-2.14244e-14 1.00968 0
-1.21372e-14 1.00968 0
1.74978e-14 1.01061 0
1.66235e-14 1.01061 0
-1.38562e-14 1.01061 0
-9.25412e-15 1.01061 0
1.49727e-14 1.01157 0
8.814e-15 1.01157 0
-9.25412e-15 1.01061 0
-2.43333e-14 1.01061 0
8.814e-15 1.01157 0
2.39078e-14 1.01157 0
-1.21372e-14 1.00968 0
-1.51251e-14 1.00968 0
1.66235e-14 1.01061 0
1.67623e-14 1.01061 0
-1.51251e-14 1.00968 0
-1.99528e-14 1.00968 0
1.67623e-14 1.01061 0
2.20381e-14 1.01061 0
-2.43333e-14 1.01061 0
-1.0577e-14 1.01061 0
2.39078e-14 1.01157 0
7.53992e-15 1.01157 0
-1.0577e-14 1.01061 0
-1.54933e-14 1.01061 0
7.53992e-15 1.01157 0
1.57432e-14 1.01157 0
-1.73497e-14 1.01157 0
-2.12548e-14 1.01157 0
1.45156e-14 1.01255 0
2.08054e-14 1.01255 0
-2.12548e-14 1.01157 0
-1.28475e-14 1.01157 0
2.08054e-14 1.01255 0
1.33143e-14 1.01255 0
-1.28498e-14 1.01255 0
-1.8005e-14 1.01255 0
1.25994e-14 1.01352 0
1.4709e-14 1.01352 0
-1.8005e-14 1.01255 0
-9.9989e-15 1.01255 0
1.4709e-14 1.01352 0
6.91385e-15 1.01352 0
-1.28475e-14 1.01157 0
-1.24611e-14 1.01157 0
1.33143e-14 1.01255 0
1.1073e-14 1.01255 0