# vtk DataFile Version 3.0
#This file was generated by the deal.II library on 2018/10/12 at 1:26:47
ASCII
DATASET UNSTRUCTURED_GRID

POINTS 5120 double
0 0 0
0.392699 0 0
0 0.594308 0
0.392699 0.594308 0
0.392699 0 0
0.785398 0 0
0.392699 0.594308 0
0.785398 0.594308 0
0 0.594308 0
0.392699 0.594308 0
0 1.2215 0
0.392699 1.2215 0
0.392699 0.594308 0
0.785398 0.594308 0
0.392699 1.2215 0
0.785398 1.2215 0
0.785398 0 0
1.1781 0 0
0.785398 0.594308 0
1.1781 0.594308 0
1.1781 0 0
1.5708 0 0
1.1781 0.594308 0
1.5708 0.594308 0
0.785398 0.594308 0
1.1781 0.594308 0
0.785398 1.2215 0
1.1781 1.2215 0
1.1781 0.594308 0
1.5708 0.594308 0
1.1781 1.2215 0
1.5708 1.2215 0
0 1.2215 0
0.392699 1.2215 0
0 1.84763 0
0.392699 1.84763 0
0.392699 1.2215 0
0.785398 1.2215 0
0.392699 1.84763 0
0.785398 1.84763 0
0 1.84763 0
0.392699 1.84763 0
0 2.47489 0
0.392699 2.47489 0
0.392699 1.84763 0
0.785398 1.84763 0
0.392699 2.47489 0
0.785398 2.47489 0
0.785398 1.2215 0
1.1781 1.2215 0
0.785398 1.84763 0
1.1781 1.84763 0
1.1781 1.2215 0
1.5708 1.2215 0
1.1781 1.84763 0
1.5708 1.84763 0
0.785398 1.84763 0
1.1781 1.84763 0
0.785398 2.47489 0
1.1781 2.47489 0
1.1781 1.84763 0
1.5708 1.84763 0
1.1781 2.47489 0
1.5708 2.47489 0
1.5708 0 0
1.9635 0 0
1.5708 0.594308 0
1.9635 0.594308 0
1.9635 0 0
2.35619 0 0
1.9635 0.594308 0
2.35619 0.594308 0
1.5708 0.594308 0
1.9635 0.594308 0
1.5708 1.2215 0
1.9635 1.2215 0
1.9635 0.594308 0
2.35619 0.594308 0
1.9635 1.2215 0
2.35619 1.2215 0
2.35619 0 0
2.74889 0 0
2.35619 0.594308 0
2.74889 0.594308 0
2.74889 0 0
3.14159 0 0
2.74889 0.594308 0
3.14159 0.594308 0
2.35619 0.594308 0
2.74889 0.594308 0
2.35619 1.2215 0
2.74889 1.2215 0
2.74889 0.594308 0
3.14159 0.594308 0
2.74889 1.2215 0
3.14159 1.2215 0
1.5708 1.2215 0
1.9635 1.2215 0
1.5708 1.84763 0
1.9635 1.84763 0
1.9635 1.2215 0
2.35619 1.2215 0
1.9635 1.84763 0
2.35619 1.84763 0
1.5708 1.84763 0
1.9635 1.84763 0
1.5708 2.47489 0
1.9635 2.47489 0
1.9635 1.84763 0
2.35619 1.84763 0
1.9635 2.47489 0
2.35619 2.47489 0
2.35619 1.2215 0
2.74889 1.2215 0
2.35619 1.84763 0
2.74889 1.84763 0
2.74889 1.2215 0
3.14159 1.2215 0
2.74889 1.84763 0
3.14159 1.84763 0
2.35619 1.84763 0
2.74889 1.84763 0
2.35619 2.47489 0
2.74889 2.47489 0
2.74889 1.84763 0
3.14159 1.84763 0
2.74889 2.47489 0
3.14159 2.47489 0
0 2.47489 0
0.392699 2.47489 0
0 3.10185 0
0.392699 3.10185 0
0.392699 2.47489 0
0.785398 2.47489 0
0.392699 3.10185 0
0.785398 3.10185 0
0 3.10185 0
0.392699 3.10185 0
0 3.72883 0
0.392699 3.72883 0
0.392699 3.10185 0
0.785398 3.10185 0
0.392699 3.72883 0
0.785398 3.72883 0
0.785398 2.47489 0
1.1781 2.47489 0
0.785398 3.10185 0
1.1781 3.10185 0
1.1781 2.47489 0
1.5708 2.47489 0
1.1781 3.10185 0
1.5708 3.10185 0
0.785398 3.10185 0
1.1781 3.10185 0
0.785398 3.72883 0
1.1781 3.72883 0
1.1781 3.10185 0
1.5708 3.10185 0
1.1781 3.72883 0
1.5708 3.72883 0
0 3.72883 0
0.392699 3.72883 0
0 4.35571 0
0.392699 4.35571 0
0.392699 3.72883 0
0.785398 3.72883 0
0.392699 4.35571 0
0.785398 4.35571 0
0 4.35571 0
0.392699 4.35571 0
0 4.98252 0
0.392699 4.98252 0
0.392699 4.35571 0
0.785398 4.35571 0
0.392699 4.98252 0
0.785398 4.98252 0
0.785398 3.72883 0
1.1781 3.72883 0
0.785398 4.35571 0
1.1781 4.35571 0
1.1781 3.72883 0
1.5708 3.72883 0
1.1781 4.35571 0
1.5708 4.35571 0
0.785398 4.35571 0
1.1781 4.35571 0
0.785398 4.98252 0
1.1781 4.98252 0
1.1781 4.35571 0
1.5708 4.35571 0
1.1781 4.98252 0
1.5708 4.98252 0
1.5708 2.47489 0
1.9635 2.47489 0
1.5708 3.10185 0
1.9635 3.10185 0
1.9635 2.47489 0
2.35619 2.47489 0
1.9635 3.10185 0
2.35619 3.10185 0
1.5708 3.10185 0
1.9635 3.10185 0
1.5708 3.72883 0
1.9635 3.72883 0
1.9635 3.10185 0
2.35619 3.10185 0
1.9635 3.72883 0
2.35619 3.72883 0
2.35619 2.47489 0
2.74889 2.47489 0
2.35619 3.10185 0
2.74889 3.10185 0
2.74889 2.47489 0
3.14159 2.47489 0
2.74889 3.10185 0
3.14159 3.10185 0
2.35619 3.10185 0
2.74889 3.10185 0
2.35619 3.72883 0
2.74889 3.72883 0
2.74889 3.10185 0
3.14159 3.10185 0
2.74889 3.72883 0
3.14159 3.72883 0
1.5708 3.72883 0
1.9635 3.72883 0
1.5708 4.35571 0
1.9635 4.35571 0
1.9635 3.72883 0
2.35619 3.72883 0
1.9635 4.35571 0
2.35619 4.35571 0
1.5708 4.35571 0
1.9635 4.35571 0
1.5708 4.98252 0
1.9635 4.98252 0
1.9635 4.35571 0
2.35619 4.35571 0
1.9635 4.98252 0
2.35619 4.98252 0
2.35619 3.72883 0
2.74889 3.72883 0
2.35619 4.35571 0
2.74889 4.35571 0
2.74889 3.72883 0
3.14159 3.72883 0
2.74889 4.35571 0
3.14159 4.35571 0
2.35619 4.35571 0
2.74889 4.35571 0
2.35619 4.98252 0
2.74889 4.98252 0
2.74889 4.35571 0
3.14159 4.35571 0
2.74889 4.98252 0
3.14159 4.98252 0
3.14159 0 0
3.53429 0 0
3.14159 0.594308 0
3.53429 0.594308 0
3.53429 0 0
3.92699 0 0
3.53429 0.594308 0
3.92699 0.594308 0
3.14159 0.594308 0
3.53429 0.594308 0
3.14159 1.2215 0
3.53429 1.2215 0
3.53429 0.594308 0
3.92699 0.594308 0
3.53429 1.2215 0
3.92699 1.2215 0
3.92699 0 0
4.31969 0 0
3.92699 0.594308 0
4.31969 0.594308 0
4.31969 0 0
4.71239 0 0
4.31969 0.594308 0
4.71239 0.594308 0
3.92699 0.594308 0
4.31969 0.594308 0
3.92699 1.2215 0
4.31969 1.2215 0
4.31969 0.594308 0
4.71239 0.594308 0
4.31969 1.2215 0
4.71239 1.2215 0
3.14159 1.2215 0
3.53429 1.2215 0
3.14159 1.84763 0
3.53429 1.84763 0
3.53429 1.2215 0
3.92699 1.2215 0
3.53429 1.84763 0
3.92699 1.84763 0
3.14159 1.84763 0
3.53429 1.84763 0
3.14159 2.47489 0
3.53429 2.47489 0
3.53429 1.84763 0
3.92699 1.84763 0
3.53429 2.47489 0
3.92699 2.47489 0
3.92699 1.2215 0
4.31969 1.2215 0
3.92699 1.84763 0
4.31969 1.84763 0
4.31969 1.2215 0
4.71239 1.2215 0
4.31969 1.84763 0
4.71239 1.84763 0
3.92699 1.84763 0
4.31969 1.84763 0
3.92699 2.47489 0
4.31969 2.47489 0
4.31969 1.84763 0
4.71239 1.84763 0
4.31969 2.47489 0
4.71239 2.47489 0
4.71239 0 0
5.10509 0 0
4.71239 0.594308 0
5.10509 0.594308 0
5.10509 0 0
5.49779 0 0
5.10509 0.594308 0
5.49779 0.594308 0
4.71239 0.594308 0
5.10509 0.594308 0
4.71239 1.2215 0
5.10509 1.2215 0
5.10509 0.594308 0
5.49779 0.594308 0
5.10509 1.2215 0
5.49779 1.2215 0
5.49779 0 0
5.89049 0 0
5.49779 0.594308 0
5.89049 0.594308 0
5.89049 0 0
6.28319 0 0
5.89049 0.594308 0
6.28319 0.594308 0
5.49779 0.594308 0
5.89049 0.594308 0
5.49779 1.2215 0
5.89049 1.2215 0
5.89049 0.594308 0
6.28319 0.594308 0
5.89049 1.2215 0
6.28319 1.2215 0
4.71239 1.2215 0
5.10509 1.2215 0
4.71239 1.84763 0
5.10509 1.84763 0
5.10509 1.2215 0
5.49779 1.2215 0
5.10509 1.84763 0
5.49779 1.84763 0
4.71239 1.84763 0
5.10509 1.84763 0
4.71239 2.47489 0
5.10509 2.47489 0
5.10509 1.84763 0
5.49779 1.84763 0
5.10509 2.47489 0
5.49779 2.47489 0
5.49779 1.2215 0
5.89049 1.2215 0
5.49779 1.84763 0
5.89049 1.84763 0
5.89049 1.2215 0
6.28319 1.2215 0
5.89049 1.84763 0
6.28319 1.84763 0
5.49779 1.84763 0
5.89049 1.84763 0
5.49779 2.47489 0
5.89049 2.47489 0
5.89049 1.84763 0
6.28319 1.84763 0
5.89049 2.47489 0
6.28319 2.47489 0
3.14159 2.47489 0
3.53429 2.47489 0
3.14159 3.10185 0
3.53429 3.10185 0
3.53429 2.47489 0
3.92699 2.47489 0
3.53429 3.10185 0
3.92699 3.10185 0
3.14159 3.10185 0
3.53429 3.10185 0
3.14159 3.72883 0
3.53429 3.72883 0
3.53429 3.10185 0
3.92699 3.10185 0
3.53429 3.72883 0
3.92699 3.72883 0
3.92699 2.47489 0
4.31969 2.47489 0
3.92699 3.10185 0
4.31969 3.10185 0
4.31969 2.47489 0
4.71239 2.47489 0
4.31969 3.10185 0
4.71239 3.10185 0
3.92699 3.10185 0
4.31969 3.10185 0
3.92699 3.72883 0
4.31969 3.72883 0
4.31969 3.10185 0
4.71239 3.10185 0
4.31969 3.72883 0
4.71239 3.72883 0
3.14159 3.72883 0
3.53429 3.72883 0
3.14159 4.35571 0
3.53429 4.35571 0
3.53429 3.72883 0
3.92699 3.72883 0
3.53429 4.35571 0
3.92699 4.35571 0
3.14159 4.35571 0
3.53429 4.35571 0
3.14159 4.98252 0
3.53429 4.98252 0
3.53429 4.35571 0
3.92699 4.35571 0
3.53429 4.98252 0
3.92699 4.98252 0
3.92699 3.72883 0
4.31969 3.72883 0
3.92699 4.35571 0
4.31969 4.35571 0
4.31969 3.72883 0
4.71239 3.72883 0
4.31969 4.35571 0
4.71239 4.35571 0
3.92699 4.35571 0
4.31969 4.35571 0
3.92699 4.98252 0
4.31969 4.98252 0
4.31969 4.35571 0
4.71239 4.35571 0
4.31969 4.98252 0
4.71239 4.98252 0
4.71239 2.47489 0
5.10509 2.47489 0
4.71239 3.10185 0
5.10509 3.10185 0
5.10509 2.47489 0
5.49779 2.47489 0
5.10509 3.10185 0
5.49779 3.10185 0
4.71239 3.10185 0
5.10509 3.10185 0
4.71239 3.72883 0
5.10509 3.72883 0
5.10509 3.10185 0
5.49779 3.10185 0
5.10509 3.72883 0
5.49779 3.72883 0
5.49779 2.47489 0
5.89049 2.47489 0
5.49779 3.10185 0
5.89049 3.10185 0
5.89049 2.47489 0
6.28319 2.47489 0
5.89049 3.10185 0
6.28319 3.10185 0
5.49779 3.10185 0
5.89049 3.10185 0
5.49779 3.72883 0
5.89049 3.72883 0
5.89049 3.10185 0
6.28319 3.10185 0
5.89049 3.72883 0
6.28319 3.72883 0
4.71239 3.72883 0
5.10509 3.72883 0
4.71239 4.35571 0
5.10509 4.35571 0
5.10509 3.72883 0
5.49779 3.72883 0
5.10509 4.35571 0
5.49779 4.35571 0
4.71239 4.35571 0
5.10509 4.35571 0
4.71239 4.98252 0
5.10509 4.98252 0
5.10509 4.35571 0
5.49779 4.35571 0
5.10509 4.98252 0
5.49779 4.98252 0
5.49779 3.72883 0
5.89049 3.72883 0
5.49779 4.35571 0
5.89049 4.35571 0
5.89049 3.72883 0
6.28319 3.72883 0
5.89049 4.35571 0
6.28319 4.35571 0
5.49779 4.35571 0
5.89049 4.35571 0
5.49779 4.98252 0
5.89049 4.98252 0
5.89049 4.35571 0
6.28319 4.35571 0
5.89049 4.98252 0
6.28319 4.98252 0
0 4.98252 0
0.392699 4.98252 0
0 5.60923 0
0.392699 5.60923 0
0.392699 4.98252 0
0.785398 4.98252 0
0.392699 5.60923 0
0.785398 5.60923 0
0 5.60923 0
0.392699 5.60923 0
0 6.23586 0
0.392699 6.23586 0
0.392699 5.60923 0
0.785398 5.60923 0
0.392699 6.23586 0
0.785398 6.23586 0
0.785398 4.98252 0
1.1781 4.98252 0
0.785398 5.60923 0
1.1781 5.60923 0
1.1781 4.98252 0
1.5708 4.98252 0
1.1781 5.60923 0
1.5708 5.60923 0
0.785398 5.60923 0
1.1781 5.60923 0
0.785398 6.23586 0
1.1781 6.23586 0
1.1781 5.60923 0
1.5708 5.60923 0
1.1781 6.23586 0
1.5708 6.23586 0
0 6.23586 0
0.392699 6.23586 0
0 6.86241 0
0.392699 6.86241 0
0.392699 6.23586 0
0.785398 6.23586 0
0.392699 6.86241 0
0.785398 6.86241 0
0 6.86241 0
0.392699 6.86241 0
0 7.48898 0
0.392699 7.48898 0
0.392699 6.86241 0
0.785398 6.86241 0
0.392699 7.48898 0
0.785398 7.48898 0
0.785398 6.23586 0
1.1781 6.23586 0
0.785398 6.86241 0
1.1781 6.86241 0
1.1781 6.23586 0
1.5708 6.23586 0
[...]
POINT_DATA 5120
VECTORS velocity double
0 0 0
0 0 0
0 -0.00234963 0
-1.73989e-14 -0.00234963 0
0 0 0
0 0 0
-1.73989e-14 -0.00234963 0
5.57238e-15 -0.00234963 0
0 -0.00234963 0
-1.73989e-14 -0.00234963 0
0 -0.00220601 0
5.49969e-16 -0.00220601 0
-1.73989e-14 -0.00234963 0
5.57238e-15 -0.00234963 0
5.49969e-16 -0.00220601 0
-5.26142e-15 -0.00220601 0
0 0 0
0 0 0
5.57238e-15 -0.00234963 0
2.21871e-14 -0.00234963 0
0 0 0
0 0 0
2.21871e-14 -0.00234963 0
8.71044e-15 -0.00234963 0
5.57238e-15 -0.00234963 0
2.21871e-14 -0.00234963 0
-5.26142e-15 -0.00220601 0
8.56694e-16 -0.00220601 0
2.21871e-14 -0.00234963 0
8.71044e-15 -0.00234963 0
8.56694e-16 -0.00220601 0
-5.86435e-17 -0.00220601 0
0 -0.00220601 0
5.49969e-16 -0.00220601 0
0 -0.00211433 0
3.7257e-16 -0.00211433 0
5.49969e-16 -0.00220601 0
-5.26142e-15 -0.00220601 0
3.7257e-16 -0.00211433 0
1.61001e-14 -0.00211433 0
0 -0.00211433 0
3.7257e-16 -0.00211433 0
0 -0.00192646 0
6.04378e-15 -0.00192646 0
3.7257e-16 -0.00211433 0
1.61001e-14 -0.00211433 0
6.04378e-15 -0.00192646 0
-3.34719e-16 -0.00192646 0
-5.26142e-15 -0.00220601 0
8.56694e-16 -0.00220601 0
1.61001e-14 -0.00211433 0
3.25876e-15 -0.00211433 0
8.56694e-16 -0.00220601 0
-5.86435e-17 -0.00220601 0
3.25876e-15 -0.00211433 0
4.85666e-15 -0.00211433 0
1.61001e-14 -0.00211433 0
3.25876e-15 -0.00211433 0
-3.34719e-16 -0.00192646 0
1.1706e-14 -0.00192646 0
3.25876e-15 -0.00211433 0
4.85666e-15 -0.00211433 0
1.1706e-14 -0.00192646 0
-1.95836e-16 -0.00192646 0
0 0 0
0 0 0
8.71044e-15 -0.00234963 0
-7.19405e-15 -0.00234963 0
0 0 0
0 0 0
-7.19405e-15 -0.00234963 0
-4.56897e-15 -0.00234963 0
8.71044e-15 -0.00234963 0
-7.19405e-15 -0.00234963 0
-5.86435e-17 -0.00220601 0
-2.41942e-15 -0.00220601 0
-7.19405e-15 -0.00234963 0
-4.56897e-15 -0.00234963 0
-2.41942e-15 -0.00220601 0
1.50772e-15 -0.00220601 0
0 0 0
0 0 0
-4.56897e-15 -0.00234963 0
5.79265e-15 -0.00234963 0
0 0 0
0 0 0
5.79265e-15 -0.00234963 0
-1.11422e-15 -0.00234963 0
-4.56897e-15 -0.00234963 0
5.79265e-15 -0.00234963 0
1.50772e-15 -0.00220601 0
4.23756e-15 -0.00220601 0
5.79265e-15 -0.00234963 0
-1.11422e-15 -0.00234963 0
4.23756e-15 -0.00220601 0
-1.23657e-15 -0.00220601 0
-5.86435e-17 -0.00220601 0
-2.41942e-15 -0.00220601 0
4.85666e-15 -0.00211433 0
8.90581e-15 -0.00211433 0
-2.41942e-15 -0.00220601 0
1.50772e-15 -0.00220601 0
8.90581e-15 -0.00211433 0
1.1981e-14 -0.00211433 0
4.85666e-15 -0.00211433 0
8.90581e-15 -0.00211433 0
-1.95836e-16 -0.00192646 0
2.77734e-15 -0.00192646 0
8.90581e-15 -0.00211433 0
1.1981e-14 -0.00211433 0
2.77734e-15 -0.00192646 0
1.81489e-15 -0.00192646 0
1.50772e-15 -0.00220601 0
4.23756e-15 -0.00220601 0
1.1981e-14 -0.00211433 0
3.40616e-15 -0.00211433 0
4.23756e-15 -0.00220601 0
-1.23657e-15 -0.00220601 0
3.40616e-15 -0.00211433 0
4.8141e-15 -0.00211433 0
1.1981e-14 -0.00211433 0
3.40616e-15 -0.00211433 0
1.81489e-15 -0.00192646 0
1.92213e-15 -0.00192646 0
3.40616e-15 -0.00211433 0
4.8141e-15 -0.00211433 0
1.92213e-15 -0.00192646 0
-6.78315e-15 -0.00192646 0
0 -0.00192646 0
6.04378e-15 -0.00192646 0
0 -0.00176539 0
-1.50986e-14 -0.00176539 0
6.04378e-15 -0.00192646 0
-3.34719e-16 -0.00192646 0
-1.50986e-14 -0.00176539 0
-4.07212e-15 -0.00176539 0
0 -0.00176539 0
-1.50986e-14 -0.00176539 0
0 -0.00160058 0
4.45421e-15 -0.00160058 0
-1.50986e-14 -0.00176539 0
-4.07212e-15 -0.00176539 0
4.45421e-15 -0.00160058 0
-3.97708e-15 -0.00160058 0
-3.34719e-16 -0.00192646 0
1.1706e-14 -0.00192646 0
-4.07212e-15 -0.00176539 0
-9.24796e-15 -0.00176539 0
1.1706e-14 -0.00192646 0
-1.95836e-16 -0.00192646 0
-9.24796e-15 -0.00176539 0
-2.68761e-15 -0.00176539 0
-4.07212e-15 -0.00176539 0
-9.24796e-15 -0.00176539 0
-3.97708e-15 -0.00160058 0
6.40039e-15 -0.00160058 0
-9.24796e-15 -0.00176539 0
-2.68761e-15 -0.00176539 0
6.40039e-15 -0.00160058 0
-3.3725e-15 -0.00160058 0
0 -0.00160058 0
4.45421e-15 -0.00160058 0
0 -0.00144352 0
-4.07978e-15 -0.00144352 0
4.45421e-15 -0.00160058 0
-3.97708e-15 -0.00160058 0
-4.07978e-15 -0.00144352 0
-1.39505e-14 -0.00144352 0
0 -0.00144352 0
-4.07978e-15 -0.00144352 0
0 -0.00129173 0
7.77224e-15 -0.00129173 0
-4.07978e-15 -0.00144352 0
-1.39505e-14 -0.00144352 0
7.77224e-15 -0.00129173 0
1.25728e-14 -0.00129173 0
-3.97708e-15 -0.00160058 0
6.40039e-15 -0.00160058 0
-1.39505e-14 -0.00144352 0
-8.2735e-15 -0.00144352 0
6.40039e-15 -0.00160058 0
-3.3725e-15 -0.00160058 0
-8.2735e-15 -0.00144352 0
-6.98051e-15 -0.00144352 0
-1.39505e-14 -0.00144352 0
-8.2735e-15 -0.00144352 0
1.25728e-14 -0.00129173 0
8.91185e-15 -0.00129173 0
-8.2735e-15 -0.00144352 0
-6.98051e-15 -0.00144352 0
8.91185e-15 -0.00129173 0
-6.50473e-15 -0.00129173 0
-1.95836e-16 -0.00192646 0
2.77734e-15 -0.00192646 0
-2.68761e-15 -0.00176539 0
5.12172e-15 -0.00176539 0
2.77734e-15 -0.00192646 0
1.81489e-15 -0.00192646 0
5.12172e-15 -0.00176539 0
-3.12771e-15 -0.00176539 0
-2.68761e-15 -0.00176539 0
5.12172e-15 -0.00176539 0
-3.3725e-15 -0.00160058 0
-9.5047e-15 -0.00160058 0
5.12172e-15 -0.00176539 0
-3.12771e-15 -0.00176539 0
-9.5047e-15 -0.00160058 0
-8.02975e-15 -0.00160058 0
1.81489e-15 -0.00192646 0
1.92213e-15 -0.00192646 0
-3.12771e-15 -0.00176539 0
2.1741e-15 -0.00176539 0
1.92213e-15 -0.00192646 0
-6.78315e-15 -0.00192646 0
2.1741e-15 -0.00176539 0
5.70922e-16 -0.00176539 0
-3.12771e-15 -0.00176539 0
2.1741e-15 -0.00176539 0
-8.02975e-15 -0.00160058 0
-1.71455e-15 -0.00160058 0
2.1741e-15 -0.00176539 0
5.70922e-16 -0.00176539 0
-1.71455e-15 -0.00160058 0
1.09661e-14 -0.00160058 0
-3.3725e-15 -0.00160058 0
-9.5047e-15 -0.00160058 0
-6.98051e-15 -0.00144352 0
-6.78407e-16 -0.00144352 0
-9.5047e-15 -0.00160058 0
-8.02975e-15 -0.00160058 0
-6.78407e-16 -0.00144352 0
-7.80332e-15 -0.00144352 0
-6.98051e-15 -0.00144352 0
-6.78407e-16 -0.00144352 0
-6.50473e-15 -0.00129173 0
-8.68593e-15 -0.00129173 0
-6.78407e-16 -0.00144352 0
-7.80332e-15 -0.00144352 0
-8.68593e-15 -0.00129173 0
-1.14547e-14 -0.00129173 0
-8.02975e-15 -0.00160058 0
-1.71455e-15 -0.00160058 0
-7.80332e-15 -0.00144352 0
-1.08619e-14 -0.00144352 0
-1.71455e-15 -0.00160058 0
1.09661e-14 -0.00160058 0
-1.08619e-14 -0.00144352 0
-5.77722e-16 -0.00144352 0
-7.80332e-15 -0.00144352 0
-1.08619e-14 -0.00144352 0
-1.14547e-14 -0.00129173 0
-1.80691e-15 -0.00129173 0
-1.08619e-14 -0.00144352 0
-5.77722e-16 -0.00144352 0
-1.80691e-15 -0.00129173 0
-6.99625e-16 -0.00129173 0
0 0 0
0 0 0
-1.11422e-15 -0.00234963 0
-1.39918e-14 -0.00234963 0
0 0 0
0 0 0
-1.39918e-14 -0.00234963 0
4.61303e-15 -0.00234963 0
-1.11422e-15 -0.00234963 0
-1.39918e-14 -0.00234963 0
-1.23657e-15 -0.00220601 0
7.43083e-15 -0.00220601 0
-1.39918e-14 -0.00234963 0
4.61303e-15 -0.00234963 0
7.43083e-15 -0.00220601 0
9.68818e-15 -0.00220601 0
0 0 0
0 0 0
4.61303e-15 -0.00234963 0
1.54701e-14 -0.00234963 0
0 0 0
0 0 0
1.54701e-14 -0.00234963 0
-1.4276e-15 -0.00234963 0
4.61303e-15 -0.00234963 0
1.54701e-14 -0.00234963 0
9.68818e-15 -0.00220601 0
-1.92291e-14 -0.00220601 0
1.54701e-14 -0.00234963 0
-1.4276e-15 -0.00234963 0
-1.92291e-14 -0.00220601 0
-1.42655e-14 -0.00220601 0
-1.23657e-15 -0.00220601 0
7.43083e-15 -0.00220601 0
4.8141e-15 -0.00211433 0
-2.98003e-15 -0.00211433 0
7.43083e-15 -0.00220601 0
9.68818e-15 -0.00220601 0
-2.98003e-15 -0.00211433 0
-1.82013e-15 -0.00211433 0
4.8141e-15 -0.00211433 0
-2.98003e-15 -0.00211433 0
-6.78315e-15 -0.00192646 0
-6.17121e-15 -0.00192646 0
-2.98003e-15 -0.00211433 0
-1.82013e-15 -0.00211433 0
-6.17121e-15 -0.00192646 0
1.09818e-14 -0.00192646 0
9.68818e-15 -0.00220601 0
-1.92291e-14 -0.00220601 0
-1.82013e-15 -0.00211433 0
1.4284e-14 -0.00211433 0
-1.92291e-14 -0.00220601 0
-1.42655e-14 -0.00220601 0
1.4284e-14 -0.00211433 0
-9.94247e-15 -0.00211433 0
-1.82013e-15 -0.00211433 0
1.4284e-14 -0.00211433 0
1.09818e-14 -0.00192646 0
-1.57693e-14 -0.00192646 0
1.4284e-14 -0.00211433 0
-9.94247e-15 -0.00211433 0
-1.57693e-14 -0.00192646 0
-4.09684e-15 -0.00192646 0
0 0 0
0 0 0
-1.4276e-15 -0.00234963 0
7.16274e-15 -0.00234963 0
0 0 0
0 0 0
7.16274e-15 -0.00234963 0
-1.33105e-15 -0.00234963 0
-1.4276e-15 -0.00234963 0
7.16274e-15 -0.00234963 0
-1.42655e-14 -0.00220601 0
1.37471e-14 -0.00220601 0
7.16274e-15 -0.00234963 0
-1.33105e-15 -0.00234963 0
1.37471e-14 -0.00220601 0
-9.12587e-15 -0.00220601 0
0 0 0
0 0 0
-1.33105e-15 -0.00234963 0
-5.6112e-16 -0.00234963 0
0 0 0
0 0 0
-5.6112e-16 -0.00234963 0
2.51635e-14 -0.00234963 0
-1.33105e-15 -0.00234963 0
-5.6112e-16 -0.00234963 0
-9.12587e-15 -0.00220601 0
-1.51417e-15 -0.00220601 0
-5.6112e-16 -0.00234963 0
2.51635e-14 -0.00234963 0
-1.51417e-15 -0.00220601 0
-5.16554e-15 -0.00220601 0
-1.42655e-14 -0.00220601 0
1.37471e-14 -0.00220601 0
-9.94247e-15 -0.00211433 0
-7.97587e-15 -0.00211433 0
1.37471e-14 -0.00220601 0
-9.12587e-15 -0.00220601 0
-7.97587e-15 -0.00211433 0
1.23544e-16 -0.00211433 0
-9.94247e-15 -0.00211433 0
-7.97587e-15 -0.00211433 0
-4.09684e-15 -0.00192646 0
-5.51064e-15 -0.00192646 0
-7.97587e-15 -0.00211433 0
1.23544e-16 -0.00211433 0
-5.51064e-15 -0.00192646 0
2.54444e-15 -0.00192646 0
-9.12587e-15 -0.00220601 0
-1.51417e-15 -0.00220601 0
1.23544e-16 -0.00211433 0
-7.28048e-15 -0.00211433 0
-1.51417e-15 -0.00220601 0
-5.16554e-15 -0.00220601 0
-7.28048e-15 -0.00211433 0
2.53279e-15 -0.00211433 0
1.23544e-16 -0.00211433 0
-7.28048e-15 -0.00211433 0
2.54444e-15 -0.00192646 0
-5.86602e-17 -0.00192646 0
-7.28048e-15 -0.00211433 0
2.53279e-15 -0.00211433 0
-5.86602e-17 -0.00192646 0
-9.21291e-15 -0.00192646 0
-6.78315e-15 -0.00192646 0
-6.17121e-15 -0.00192646 0
5.70922e-16 -0.00176539 0
-5.47294e-15 -0.00176539 0
-6.17121e-15 -0.00192646 0
1.09818e-14 -0.00192646 0
-5.47294e-15 -0.00176539 0
-1.46728e-14 -0.00176539 0
5.70922e-16 -0.00176539 0
-5.47294e-15 -0.00176539 0
1.09661e-14 -0.00160058 0
-2.70301e-15 -0.00160058 0
-5.47294e-15 -0.00176539 0
-1.46728e-14 -0.00176539 0
-2.70301e-15 -0.00160058 0
-3.85818e-15 -0.00160058 0
1.09818e-14 -0.00192646 0
-1.57693e-14 -0.00192646 0
-1.46728e-14 -0.00176539 0
-1.18457e-14 -0.00176539 0
-1.57693e-14 -0.00192646 0
-4.09684e-15 -0.00192646 0
-1.18457e-14 -0.00176539 0
-1.62465e-14 -0.00176539 0
-1.46728e-14 -0.00176539 0
-1.18457e-14 -0.00176539 0
-3.85818e-15 -0.00160058 0
2.14338e-15 -0.00160058 0
-1.18457e-14 -0.00176539 0
-1.62465e-14 -0.00176539 0
2.14338e-15 -0.00160058 0
-1.12266e-14 -0.00160058 0
1.09661e-14 -0.00160058 0
-2.70301e-15 -0.00160058 0
-5.77722e-16 -0.00144352 0
-1.62471e-14 -0.00144352 0
-2.70301e-15 -0.00160058 0
-3.85818e-15 -0.00160058 0
-1.62471e-14 -0.00144352 0
-1.00013e-14 -0.00144352 0
-5.77722e-16 -0.00144352 0
-1.62471e-14 -0.00144352 0
-6.99625e-16 -0.00129173 0
-1.21002e-14 -0.00129173 0
-1.62471e-14 -0.00144352 0
-1.00013e-14 -0.00144352 0
-1.21002e-14 -0.00129173 0
-2.26549e-15 -0.00129173 0
-3.85818e-15 -0.00160058 0
2.14338e-15 -0.00160058 0
-1.00013e-14 -0.00144352 0
-5.68099e-15 -0.00144352 0
2.14338e-15 -0.00160058 0
-1.12266e-14 -0.00160058 0
-5.68099e-15 -0.00144352 0
-8.54768e-16 -0.00144352 0
-1.00013e-14 -0.00144352 0
-5.68099e-15 -0.00144352 0
-2.26549e-15 -0.00129173 0
-1.65184e-15 -0.00129173 0
-5.68099e-15 -0.00144352 0
-8.54768e-16 -0.00144352 0
-1.65184e-15 -0.00129173 0
-5.86911e-15 -0.00129173 0
-4.09684e-15 -0.00192646 0
-5.51064e-15 -0.00192646 0
-1.62465e-14 -0.00176539 0
-1.57507e-15 -0.00176539 0
-5.51064e-15 -0.00192646 0
2.54444e-15 -0.00192646 0
-1.57507e-15 -0.00176539 0
-2.05744e-14 -0.00176539 0
-1.62465e-14 -0.00176539 0
-1.57507e-15 -0.00176539 0
-1.12266e-14 -0.00160058 0
-9.765e-15 -0.00160058 0
-1.57507e-15 -0.00176539 0
-2.05744e-14 -0.00176539 0
-9.765e-15 -0.00160058 0
-6.9246e-15 -0.00160058 0
2.54444e-15 -0.00192646 0
-5.86602e-17 -0.00192646 0
-2.05744e-14 -0.00176539 0
-1.98716e-14 -0.00176539 0
-5.86602e-17 -0.00192646 0
-9.21291e-15 -0.00192646 0
-1.98716e-14 -0.00176539 0
-1.05281e-14 -0.00176539 0
-2.05744e-14 -0.00176539 0
-1.98716e-14 -0.00176539 0
-6.9246e-15 -0.00160058 0
-1.65791e-14 -0.00160058 0
-1.98716e-14 -0.00176539 0
-1.05281e-14 -0.00176539 0
-1.65791e-14 -0.00160058 0
-2.74001e-14 -0.00160058 0
-1.12266e-14 -0.00160058 0
-9.765e-15 -0.00160058 0
-8.54768e-16 -0.00144352 0
6.49695e-15 -0.00144352 0
-9.765e-15 -0.00160058 0
-6.9246e-15 -0.00160058 0
6.49695e-15 -0.00144352 0
-1.85616e-14 -0.00144352 0
-8.54768e-16 -0.00144352 0
6.49695e-15 -0.00144352 0
-5.86911e-15 -0.00129173 0
-7.14886e-16 -0.00129173 0
6.49695e-15 -0.00144352 0
-1.85616e-14 -0.00144352 0
-7.14886e-16 -0.00129173 0
-7.56967e-15 -0.00129173 0
-6.9246e-15 -0.00160058 0
-1.65791e-14 -0.00160058 0
-1.85616e-14 -0.00144352 0
3.70518e-15 -0.00144352 0
-1.65791e-14 -0.00160058 0
-2.74001e-14 -0.00160058 0
3.70518e-15 -0.00144352 0
1.95842e-16 -0.00144352 0
-1.85616e-14 -0.00144352 0
3.70518e-15 -0.00144352 0
-7.56967e-15 -0.00129173 0
-5.15738e-15 -0.00129173 0
3.70518e-15 -0.00144352 0
1.95842e-16 -0.00144352 0
-5.15738e-15 -0.00129173 0
-1.48569e-14 -0.00129173 0
0 -0.00129173 0
7.77224e-15 -0.00129173 0
0 -0.00114692 0
-5.9429e-15 -0.00114692 0
7.77224e-15 -0.00129173 0
1.25728e-14 -0.00129173 0
-5.9429e-15 -0.00114692 0
-2.47077e-15 -0.00114692 0
0 -0.00114692 0
-5.9429e-15 -0.00114692 0
0 -0.00100862 0
3.15824e-15 -0.00100862 0
-5.9429e-15 -0.00114692 0
-2.47077e-15 -0.00114692 0
3.15824e-15 -0.00100862 0
-8.15353e-15 -0.00100862 0
1.25728e-14 -0.00129173 0
8.91185e-15 -0.00129173 0
-2.47077e-15 -0.00114692 0
8.76545e-15 -0.00114692 0
8.91185e-15 -0.00129173 0
-6.50473e-15 -0.00129173 0
8.76545e-15 -0.00114692 0
-1.08583e-14 -0.00114692 0
-2.47077e-15 -0.00114692 0
8.76545e-15 -0.00114692 0
-8.15353e-15 -0.00100862 0
-1.34077e-14 -0.00100862 0
8.76545e-15 -0.00114692 0
-1.08583e-14 -0.00114692 0
-1.34077e-14 -0.00100862 0
-2.29628e-14 -0.00100862 0
0 -0.00100862 0
3.15824e-15 -0.00100862 0
0 -0.00087479 0
5.57493e-15 -0.00087479 0
3.15824e-15 -0.00100862 0
-8.15353e-15 -0.00100862 0
5.57493e-15 -0.00087479 0
-3.67699e-15 -0.00087479 0
0 -0.00087479 0
5.57493e-15 -0.00087479 0
0 -0.000740456 0
5.01807e-16 -0.000740456 0
5.57493e-15 -0.00087479 0
-3.67699e-15 -0.00087479 0
5.01807e-16 -0.000740456 0
5.1013e-15 -0.000740456 0
-8.15353e-15 -0.00100862 0
-1.34077e-14 -0.00100862 0
-3.67699e-15 -0.00087479 0
5.27168e-15 -0.00087479 0
-1.34077e-14 -0.00100862 0
-2.29628e-14 -0.00100862 0
5.27168e-15 -0.00087479 0
2.40018e-15 -0.00087479 0
-3.67699e-15 -0.00087479 0
5.27168e-15 -0.00087479 0
5.1013e-15 -0.000740456 0
-5.27983e-17 -0.000740456 0
5.27168e-15 -0.00087479 0
2.40018e-15 -0.00087479 0
-5.27983e-17 -0.000740456 0
3.5605e-15 -0.000740456 0
-6.50473e-15 -0.00129173 0
-8.68593e-15 -0.00129173 0
-1.08583e-14 -0.00114692 0
-2.25833e-15 -0.00114692 0
-8.68593e-15 -0.00129173 0
-1.14547e-14 -0.00129173 0
-2.25833e-15 -0.00114692 0
-4.36933e-15 -0.00114692 0
-1.08583e-14 -0.00114692 0
-2.25833e-15 -0.00114692 0
-2.29628e-14 -0.00100862 0
-1.18216e-14 -0.00100862 0
-2.25833e-15 -0.00114692 0
-4.36933e-15 -0.00114692 0
-1.18216e-14 -0.00100862 0
-1.22941e-14 -0.00100862 0
-1.14547e-14 -0.00129173 0
-1.80691e-15 -0.00129173 0
-4.36933e-15 -0.00114692 0
-1.00422e-14 -0.00114692 0
-1.80691e-15 -0.00129173 0
-6.99625e-16 -0.00129173 0
-1.00422e-14 -0.00114692 0
-6.49369e-15 -0.00114692 0
-4.36933e-15 -0.00114692 0
-1.00422e-14 -0.00114692 0
-1.22941e-14 -0.00100862 0
-1.21519e-14 -0.00100862 0
-1.00422e-14 -0.00114692 0
-6.49369e-15 -0.00114692 0
-1.21519e-14 -0.00100862 0
5.34551e-15 -0.00100862 0
-2.29628e-14 -0.00100862 0
-1.18216e-14 -0.00100862 0
2.40018e-15 -0.00087479 0
3.99772e-15 -0.00087479 0
-1.18216e-14 -0.00100862 0
-1.22941e-14 -0.00100862 0
3.99772e-15 -0.00087479 0
5.75697e-15 -0.00087479 0
2.40018e-15 -0.00087479 0
3.99772e-15 -0.00087479 0
3.5605e-15 -0.000740456 0
6.74474e-15 -0.000740456 0
3.99772e-15 -0.00087479 0
5.75697e-15 -0.00087479 0
6.74474e-15 -0.000740456 0
6.17536e-15 -0.000740456 0
-1.22941e-14 -0.00100862 0
-1.21519e-14 -0.00100862 0
5.75697e-15 -0.00087479 0
-9.8091e-15 -0.00087479 0
-1.21519e-14 -0.00100862 0
5.34551e-15 -0.00100862 0
-9.8091e-15 -0.00087479 0
3.40912e-15 -0.00087479 0
5.75697e-15 -0.00087479 0
-9.8091e-15 -0.00087479 0
6.17536e-15 -0.000740456 0
4.13549e-16 -0.000740456 0
-9.8091e-15 -0.00087479 0
3.40912e-15 -0.00087479 0
4.13549e-16 -0.000740456 0
1.23673e-16 -0.000740456 0
0 -0.000740456 0
5.01807e-16 -0.000740456 0
0 -0.000594581 0
4.32413e-15 -0.000594581 0
5.01807e-16 -0.000740456 0
5.1013e-15 -0.000740456 0
4.32413e-15 -0.000594581 0
2.73452e-15 -0.000594581 0
0 -0.000594581 0
4.32413e-15 -0.000594581 0
0 -0.000428727 0
1.35747e-15 -0.000428727 0
4.32413e-15 -0.000594581 0
2.73452e-15 -0.000594581 0
1.35747e-15 -0.000428727 0
3.04507e-15 -0.000428727 0
5.1013e-15 -0.000740456 0
-5.27983e-17 -0.000740456 0
2.73452e-15 -0.000594581 0
-2.40844e-15 -0.000594581 0
-5.27983e-17 -0.000740456 0
3.5605e-15 -0.000740456 0
-2.40844e-15 -0.000594581 0
1.76994e-15 -0.000594581 0
2.73452e-15 -0.000594581 0
-2.40844e-15 -0.000594581 0
3.04507e-15 -0.000428727 0
-5.37345e-15 -0.000428727 0
-2.40844e-15 -0.000594581 0
1.76994e-15 -0.000594581 0
-5.37345e-15 -0.000428727 0
-2.60815e-15 -0.000428727 0
0 -0.000428727 0
1.35747e-15 -0.000428727 0
0 -0.000239269 0
-3.72547e-15 -0.000239269 0
1.35747e-15 -0.000428727 0
3.04507e-15 -0.000428727 0
-3.72547e-15 -0.000239269 0
-2.56302e-15 -0.000239269 0
0 -0.000239269 0
-3.72547e-15 -0.000239269 0
0 -0.000116076 0
2.78043e-15 -0.000116076 0
-3.72547e-15 -0.000239269 0
-2.56302e-15 -0.000239269 0
2.78043e-15 -0.000116076 0
-1.93163e-15 -0.000116076 0
3.04507e-15 -0.000428727 0
-5.37345e-15 -0.000428727 0
-2.56302e-15 -0.000239269 0
-2.27301e-16 -0.000239269 0
-5.37345e-15 -0.000428727 0
-2.60815e-15 -0.000428727 0
-2.27301e-16 -0.000239269 0
-4.69884e-16 -0.000239269 0
-2.56302e-15 -0.000239269 0
-2.27301e-16 -0.000239269 0
-1.93163e-15 -0.000116076 0
-3.95084e-15 -0.000116076 0
-2.27301e-16 -0.000239269 0
-4.69884e-16 -0.000239269 0
-3.95084e-15 -0.000116076 0
-4.08227e-15 -0.000116076 0
3.5605e-15 -0.000740456 0
6.74474e-15 -0.000740456 0
1.76994e-15 -0.000594581 0
-3.54701e-15 -0.000594581 0
6.74474e-15 -0.000740456 0
6.17536e-15 -0.000740456 0
-3.54701e-15 -0.000594581 0
5.97832e-15 -0.000594581 0
1.76994e-15 -0.000594581 0
-3.54701e-15 -0.000594581 0
-2.60815e-15 -0.000428727 0
-4.40843e-16 -0.000428727 0
-3.54701e-15 -0.000594581 0
5.97832e-15 -0.000594581 0
-4.40843e-16 -0.000428727 0
1.72523e-15 -0.000428727 0
6.17536e-15 -0.000740456 0
4.13549e-16 -0.000740456 0
5.97832e-15 -0.000594581 0
8.62353e-15 -0.000594581 0
4.13549e-16 -0.000740456 0
1.23673e-16 -0.000740456 0
8.62353e-15 -0.000594581 0
5.1821e-15 -0.000594581 0
5.97832e-15 -0.000594581 0
8.62353e-15 -0.000594581 0
1.72523e-15 -0.000428727 0
-4.94932e-15 -0.000428727 0
8.62353e-15 -0.000594581 0
5.1821e-15 -0.000594581 0
-4.94932e-15 -0.000428727 0
-3.56077e-15 -0.000428727 0
-2.60815e-15 -0.000428727 0
-4.40843e-16 -0.000428727 0
-4.69884e-16 -0.000239269 0
-6.08353e-16 -0.000239269 0
-4.40843e-16 -0.000428727 0
1.72523e-15 -0.000428727 0
-6.08353e-16 -0.000239269 0
7.91743e-16 -0.000239269 0
-4.69884e-16 -0.000239269 0
-6.08353e-16 -0.000239269 0
-4.08227e-15 -0.000116076 0
-5.98122e-15 -0.000116076 0
-6.08353e-16 -0.000239269 0
7.91743e-16 -0.000239269 0
-5.98122e-15 -0.000116076 0
-1.98848e-15 -0.000116076 0
1.72523e-15 -0.000428727 0
-4.94932e-15 -0.000428727 0
7.91743e-16 -0.000239269 0
-2.16384e-15 -0.000239269 0
-4.94932e-15 -0.000428727 0
-3.56077e-15 -0.000428727 0
-2.16384e-15 -0.000239269 0
1.26104e-15 -0.000239269 0
7.91743e-16 -0.000239269 0
-2.16384e-15 -0.000239269 0
-1.98848e-15 -0.000116076 0
-4.53634e-15 -0.000116076 0
-2.16384e-15 -0.000239269 0
1.26104e-15 -0.000239269 0
-4.53634e-15 -0.000116076 0
-1.49844e-15 -0.000116076 0
-6.99625e-16 -0.00129173 0
-1.21002e-14 -0.00129173 0
-6.49369e-15 -0.00114692 0
-1.59791e-14 -0.00114692 0
-1.21002e-14 -0.00129173 0
-2.26549e-15 -0.00129173 0
-1.59791e-14 -0.00114692 0
-5.54225e-15 -0.00114692 0
-6.49369e-15 -0.00114692 0
-1.59791e-14 -0.00114692 0
5.34551e-15 -0.00100862 0
1.71398e-15 -0.00100862 0
-1.59791e-14 -0.00114692 0
-5.54225e-15 -0.00114692 0
1.71398e-15 -0.00100862 0
-5.2539e-15 -0.00100862 0