# vtk DataFile Version 3.0
#This file was generated by the deal.II library on 2018/10/11 at 23:30:37
ASCII
DATASET UNSTRUCTURED_GRID

POINTS 5120 double
0 0 0
0.392699 0 0
0 0.624019 0
0.392699 0.624019 0
0.392699 0 0
0.785398 0 0
0.392699 0.624019 0
0.785398 0.624019 0
0 0.624019 0
0.392699 0.624019 0
0 1.24906 0
0.392699 1.24906 0
0.392699 0.624019 0
0.785398 0.624019 0
0.392699 1.24906 0
0.785398 1.24906 0
0.785398 0 0
1.1781 0 0
0.785398 0.624019 0
1.1781 0.624019 0
1.1781 0 0
1.5708 0 0
1.1781 0.624019 0
1.5708 0.624019 0
0.785398 0.624019 0
1.1781 0.624019 0
0.785398 1.24906 0
1.1781 1.24906 0
1.1781 0.624019 0
1.5708 0.624019 0
1.1781 1.24906 0
1.5708 1.24906 0
0 1.24906 0
0.392699 1.24906 0
0 1.87405 0
0.392699 1.87405 0
0.392699 1.24906 0
0.785398 1.24906 0
0.392699 1.87405 0
0.785398 1.87405 0
0 1.87405 0
0.392699 1.87405 0
0 2.49907 0
0.392699 2.49907 0
0.392699 1.87405 0
0.785398 1.87405 0
0.392699 2.49907 0
0.785398 2.49907 0
0.785398 1.24906 0
1.1781 1.24906 0
0.785398 1.87405 0
1.1781 1.87405 0
1.1781 1.24906 0
1.5708 1.24906 0
1.1781 1.87405 0
1.5708 1.87405 0
0.785398 1.87405 0
1.1781 1.87405 0
0.785398 2.49907 0
1.1781 2.49907 0
1.1781 1.87405 0
1.5708 1.87405 0
1.1781 2.49907 0
1.5708 2.49907 0
1.5708 0 0
1.9635 0 0
1.5708 0.624019 0
1.9635 0.624019 0
1.9635 0 0
2.35619 0 0
1.9635 0.624019 0
2.35619 0.624019 0
1.5708 0.624019 0
1.9635 0.624019 0
1.5708 1.24906 0
1.9635 1.24906 0
1.9635 0.624019 0
2.35619 0.624019 0
1.9635 1.24906 0
2.35619 1.24906 0
2.35619 0 0
2.74889 0 0
2.35619 0.624019 0
2.74889 0.624019 0
2.74889 0 0
3.14159 0 0
2.74889 0.624019 0
3.14159 0.624019 0
2.35619 0.624019 0
2.74889 0.624019 0
2.35619 1.24906 0
2.74889 1.24906 0
2.74889 0.624019 0
3.14159 0.624019 0
2.74889 1.24906 0
3.14159 1.24906 0
1.5708 1.24906 0
1.9635 1.24906 0
1.5708 1.87405 0
1.9635 1.87405 0
1.9635 1.24906 0
2.35619 1.24906 0
1.9635 1.87405 0
2.35619 1.87405 0
1.5708 1.87405 0
1.9635 1.87405 0
1.5708 2.49907 0
1.9635 2.49907 0
1.9635 1.87405 0
2.35619 1.87405 0
1.9635 2.49907 0
2.35619 2.49907 0
2.35619 1.24906 0
2.74889 1.24906 0
2.35619 1.87405 0
2.74889 1.87405 0
2.74889 1.24906 0
3.14159 1.24906 0
2.74889 1.87405 0
3.14159 1.87405 0
2.35619 1.87405 0
2.74889 1.87405 0
2.35619 2.49907 0
2.74889 2.49907 0
2.74889 1.87405 0
3.14159 1.87405 0
2.74889 2.49907 0
3.14159 2.49907 0
0 2.49907 0
0.392699 2.49907 0
0 3.12409 0
0.392699 3.12409 0
0.392699 2.49907 0
0.785398 2.49907 0
0.392699 3.12409 0
0.785398 3.12409 0
0 3.12409 0
0.392699 3.12409 0
0 3.7491 0
0.392699 3.7491 0
0.392699 3.12409 0
0.785398 3.12409 0
0.392699 3.7491 0
0.785398 3.7491 0
0.785398 2.49907 0
1.1781 2.49907 0
0.785398 3.12409 0
1.1781 3.12409 0
1.1781 2.49907 0
1.5708 2.49907 0
1.1781 3.12409 0
1.5708 3.12409 0
0.785398 3.12409 0
1.1781 3.12409 0
0.785398 3.7491 0
1.1781 3.7491 0
1.1781 3.12409 0
1.5708 3.12409 0
1.1781 3.7491 0
1.5708 3.7491 0
0 3.7491 0
0.392699 3.7491 0
0 4.37411 0
0.392699 4.37411 0
0.392699 3.7491 0
0.785398 3.7491 0
0.392699 4.37411 0
0.785398 4.37411 0
0 4.37411 0
0.392699 4.37411 0
0 4.99911 0
0.392699 4.99911 0
0.392699 4.37411 0
0.785398 4.37411 0
0.392699 4.99911 0
0.785398 4.99911 0
0.785398 3.7491 0
1.1781 3.7491 0
0.785398 4.37411 0
1.1781 4.37411 0
1.1781 3.7491 0
1.5708 3.7491 0
1.1781 4.37411 0
1.5708 4.37411 0
0.785398 4.37411 0
1.1781 4.37411 0
0.785398 4.99911 0
1.1781 4.99911 0
1.1781 4.37411 0
1.5708 4.37411 0
1.1781 4.99911 0
1.5708 4.99911 0
1.5708 2.49907 0
1.9635 2.49907 0
1.5708 3.12409 0
1.9635 3.12409 0
1.9635 2.49907 0
2.35619 2.49907 0
1.9635 3.12409 0
2.35619 3.12409 0
1.5708 3.12409 0
1.9635 3.12409 0
1.5708 3.7491 0
1.9635 3.7491 0
1.9635 3.12409 0
2.35619 3.12409 0
1.9635 3.7491 0
2.35619 3.7491 0
2.35619 2.49907 0
2.74889 2.49907 0
2.35619 3.12409 0
2.74889 3.12409 0
2.74889 2.49907 0
3.14159 2.49907 0
2.74889 3.12409 0
3.14159 3.12409 0
2.35619 3.12409 0
2.74889 3.12409 0
2.35619 3.7491 0
2.74889 3.7491 0
2.74889 3.12409 0
3.14159 3.12409 0
2.74889 3.7491 0
3.14159 3.7491 0
1.5708 3.7491 0
1.9635 3.7491 0
1.5708 4.37411 0
1.9635 4.37411 0
1.9635 3.7491 0
2.35619 3.7491 0
1.9635 4.37411 0
2.35619 4.37411 0
1.5708 4.37411 0
1.9635 4.37411 0
1.5708 4.99911 0
1.9635 4.99911 0
1.9635 4.37411 0
2.35619 4.37411 0
1.9635 4.99911 0
2.35619 4.99911 0
2.35619 3.7491 0
2.74889 3.7491 0
2.35619 4.37411 0
2.74889 4.37411 0
2.74889 3.7491 0
3.14159 3.7491 0
2.74889 4.37411 0
3.14159 4.37411 0
2.35619 4.37411 0
2.74889 4.37411 0
2.35619 4.99911 0
2.74889 4.99911 0
2.74889 4.37411 0
3.14159 4.37411 0
2.74889 4.99911 0
3.14159 4.99911 0
3.14159 0 0
3.53429 0 0
3.14159 0.624019 0
3.53429 0.624019 0
3.53429 0 0
3.92699 0 0
3.53429 0.624019 0
3.92699 0.624019 0
3.14159 0.624019 0
3.53429 0.624019 0
3.14159 1.24906 0
3.53429 1.24906 0
3.53429 0.624019 0
3.92699 0.624019 0
3.53429 1.24906 0
3.92699 1.24906 0
3.92699 0 0
4.31969 0 0
3.92699 0.624019 0
4.31969 0.624019 0
4.31969 0 0
4.71239 0 0
4.31969 0.624019 0
4.71239 0.624019 0
3.92699 0.624019 0
4.31969 0.624019 0
3.92699 1.24906 0
4.31969 1.24906 0
4.31969 0.624019 0
4.71239 0.624019 0
4.31969 1.24906 0
4.71239 1.24906 0
3.14159 1.24906 0
3.53429 1.24906 0
3.14159 1.87405 0
3.53429 1.87405 0
3.53429 1.24906 0
3.92699 1.24906 0
3.53429 1.87405 0
3.92699 1.87405 0
3.14159 1.87405 0
3.53429 1.87405 0
3.14159 2.49907 0
3.53429 2.49907 0
3.53429 1.87405 0
3.92699 1.87405 0
3.53429 2.49907 0
3.92699 2.49907 0
3.92699 1.24906 0
4.31969 1.24906 0
3.92699 1.87405 0
4.31969 1.87405 0
4.31969 1.24906 0
4.71239 1.24906 0
4.31969 1.87405 0
4.71239 1.87405 0
3.92699 1.87405 0
4.31969 1.87405 0
3.92699 2.49907 0
4.31969 2.49907 0
4.31969 1.87405 0
4.71239 1.87405 0
4.31969 2.49907 0
4.71239 2.49907 0
4.71239 0 0
5.10509 0 0
4.71239 0.624019 0
5.10509 0.624019 0
5.10509 0 0
5.49779 0 0
5.10509 0.624019 0
5.49779 0.624019 0
4.71239 0.624019 0
5.10509 0.624019 0
4.71239 1.24906 0
5.10509 1.24906 0
5.10509 0.624019 0
5.49779 0.624019 0
5.10509 1.24906 0
5.49779 1.24906 0
5.49779 0 0
5.89049 0 0
5.49779 0.624019 0
5.89049 0.624019 0
5.89049 0 0
6.28319 0 0
5.89049 0.624019 0
6.28319 0.624019 0
5.49779 0.624019 0
5.89049 0.624019 0
5.49779 1.24906 0
5.89049 1.24906 0
5.89049 0.624019 0
6.28319 0.624019 0
5.89049 1.24906 0
6.28319 1.24906 0
4.71239 1.24906 0
5.10509 1.24906 0
4.71239 1.87405 0
5.10509 1.87405 0
5.10509 1.24906 0
5.49779 1.24906 0
5.10509 1.87405 0
5.49779 1.87405 0
4.71239 1.87405 0
5.10509 1.87405 0
4.71239 2.49907 0
5.10509 2.49907 0
5.10509 1.87405 0
5.49779 1.87405 0
5.10509 2.49907 0
5.49779 2.49907 0
5.49779 1.24906 0
5.89049 1.24906 0
5.49779 1.87405 0
5.89049 1.87405 0
5.89049 1.24906 0
6.28319 1.24906 0
5.89049 1.87405 0
6.28319 1.87405 0
5.49779 1.87405 0
5.89049 1.87405 0
5.49779 2.49907 0
5.89049 2.49907 0
5.89049 1.87405 0
6.28319 1.87405 0
5.89049 2.49907 0
6.28319 2.49907 0
3.14159 2.49907 0
3.53429 2.49907 0
3.14159 3.12409 0
3.53429 3.12409 0
3.53429 2.49907 0
3.92699 2.49907 0
3.53429 3.12409 0
3.92699 3.12409 0
3.14159 3.12409 0
3.53429 3.12409 0
3.14159 3.7491 0
3.53429 3.7491 0
3.53429 3.12409 0
3.92699 3.12409 0
3.53429 3.7491 0
3.92699 3.7491 0
3.92699 2.49907 0
4.31969 2.49907 0
3.92699 3.12409 0
4.31969 3.12409 0
4.31969 2.49907 0
4.71239 2.49907 0
4.31969 3.12409 0
4.71239 3.12409 0
3.92699 3.12409 0
4.31969 3.12409 0
3.92699 3.7491 0
4.31969 3.7491 0
4.31969 3.12409 0
4.71239 3.12409 0
4.31969 3.7491 0
4.71239 3.7491 0
3.14159 3.7491 0
3.53429 3.7491 0
3.14159 4.37411 0
3.53429 4.37411 0
3.53429 3.7491 0
3.92699 3.7491 0
3.53429 4.37411 0
3.92699 4.37411 0
3.14159 4.37411 0
3.53429 4.37411 0
3.14159 4.99911 0
3.53429 4.99911 0
3.53429 4.37411 0
3.92699 4.37411 0
3.53429 4.99911 0
3.92699 4.99911 0
3.92699 3.7491 0
4.31969 3.7491 0
3.92699 4.37411 0
4.31969 4.37411 0
4.31969 3.7491 0
4.71239 3.7491 0
4.31969 4.37411 0
4.71239 4.37411 0
3.92699 4.37411 0
4.31969 4.37411 0
3.92699 4.99911 0
4.31969 4.99911 0
4.31969 4.37411 0
4.71239 4.37411 0
4.31969 4.99911 0
4.71239 4.99911 0
4.71239 2.49907 0
5.10509 2.49907 0
4.71239 3.12409 0
5.10509 3.12409 0
5.10509 2.49907 0
5.49779 2.49907 0
5.10509 3.12409 0
5.49779 3.12409 0
4.71239 3.12409 0
5.10509 3.12409 0
4.71239 3.7491 0
5.10509 3.7491 0
5.10509 3.12409 0
5.49779 3.12409 0
5.10509 3.7491 0
5.49779 3.7491 0
5.49779 2.49907 0
5.89049 2.49907 0
5.49779 3.12409 0
5.89049 3.12409 0
5.89049 2.49907 0
6.28319 2.49907 0
5.89049 3.12409 0
6.28319 3.12409 0
5.49779 3.12409 0
5.89049 3.12409 0
5.49779 3.7491 0
5.89049 3.7491 0
5.89049 3.12409 0
6.28319 3.12409 0
5.89049 3.7491 0
6.28319 3.7491 0
4.71239 3.7491 0
5.10509 3.7491 0
4.71239 4.37411 0
5.10509 4.37411 0
5.10509 3.7491 0
5.49779 3.7491 0
5.10509 4.37411 0
5.49779 4.37411 0
4.71239 4.37411 0
5.10509 4.37411 0
4.71239 4.99911 0
5.10509 4.99911 0
5.10509 4.37411 0
5.49779 4.37411 0
5.10509 4.99911 0
5.49779 4.99911 0
5.49779 3.7491 0
5.89049 3.7491 0
5.49779 4.37411 0
5.89049 4.37411 0
5.89049 3.7491 0
6.28319 3.7491 0
5.89049 4.37411 0
6.28319 4.37411 0
5.49779 4.37411 0
5.89049 4.37411 0
5.49779 4.99911 0
5.89049 4.99911 0
5.89049 4.37411 0
6.28319 4.37411 0
5.89049 4.99911 0
6.28319 4.99911 0
0 4.99911 0
0.392699 4.99911 0
0 5.62411 0
0.392699 5.62411 0
0.392699 4.99911 0
0.785398 4.99911 0
0.392699 5.62411 0
0.785398 5.62411 0
0 5.62411 0
0.392699 5.62411 0
0 6.24911 0
0.392699 6.24911 0
0.392699 5.62411 0
0.785398 5.62411 0
0.392699 6.24911 0
0.785398 6.24911 0
0.785398 4.99911 0
1.1781 4.99911 0
0.785398 5.62411 0
1.1781 5.62411 0
1.1781 4.99911 0
1.5708 4.99911 0
1.1781 5.62411 0
1.5708 5.62411 0
0.785398 5.62411 0
1.1781 5.62411 0
0.785398 6.24911 0
1.1781 6.24911 0
1.1781 5.62411 0
1.5708 5.62411 0
1.1781 6.24911 0
1.5708 6.24911 0
0 6.24911 0
0.392699 6.24911 0
0 6.8741 0
0.392699 6.8741 0
0.392699 6.24911 0
0.785398 6.24911 0
0.392699 6.8741 0
0.785398 6.8741 0
0 6.8741 0
0.392699 6.8741 0
0 7.49908 0
0.392699 7.49908 0
0.392699 6.8741 0
0.785398 6.8741 0
0.392699 7.49908 0
0.785398 7.49908 0
0.785398 6.24911 0
1.1781 6.24911 0
0.785398 6.8741 0
1.1781 6.8741 0
1.1781 6.24911 0
1.5708 6.24911 0
1.1781 6.8741 0
[...]
POINT_DATA 5120
VECTORS uf double
0 1 0
-3.59952e-15 1 0
0 1.00137 0
1.70739e-15 1.00137 0
-3.59952e-15 1 0
-1.27384e-14 1 0
1.70739e-15 1.00137 0
1.9684e-14 1.00137 0
0 1.00137 0
3.57045e-15 1.00137 0
0 1.00212 0
-2.54373e-15 1.00212 0
3.57045e-15 1.00137 0
-1.24845e-14 1.00137 0
-2.54373e-15 1.00212 0
1.32189e-14 1.00212 0
-1.27384e-14 1 0
-2.7449e-14 1 0
1.9684e-14 1.00137 0
4.00565e-14 1.00137 0
-2.7449e-14 1 0
-2.5541e-14 1 0
4.00565e-14 1.00137 0
3.1282e-14 1.00137 0
-1.24845e-14 1.00137 0
-3.17387e-14 1.00137 0
1.32189e-14 1.00212 0
2.92376e-14 1.00212 0
-3.17387e-14 1.00137 0
-3.12437e-14 1.00137 0
2.92376e-14 1.00212 0
3.84719e-14 1.00212 0
0 1.00212 0
9.79285e-15 1.00212 0
0 1.00301 0
-5.73785e-15 1.00301 0
9.79285e-15 1.00212 0
-9.7372e-15 1.00212 0
-5.73785e-15 1.00301 0
1.22418e-14 1.00301 0
0 1.00301 0
-3.95535e-15 1.00301 0
0 1.00386 0
5.62496e-15 1.00386 0
-3.95535e-15 1.00301 0
-1.9689e-14 1.00301 0
5.62496e-15 1.00386 0
2.02835e-14 1.00386 0
-9.7372e-15 1.00212 0
-2.11749e-14 1.00212 0
1.22418e-14 1.00301 0
2.19149e-14 1.00301 0
-2.11749e-14 1.00212 0
-3.31304e-14 1.00212 0
2.19149e-14 1.00301 0
2.81255e-14 1.00301 0
-1.9689e-14 1.00301 0
-1.52579e-14 1.00301 0
2.02835e-14 1.00386 0
1.51292e-14 1.00386 0
-1.52579e-14 1.00301 0
-1.18017e-14 1.00301 0
1.51292e-14 1.00386 0
1.00279e-14 1.00386 0
-2.5541e-14 1 0
-1.98204e-14 1 0
3.1282e-14 1.00137 0
2.19097e-14 1.00137 0
-1.98204e-14 1 0
-2.29618e-14 1 0
2.19097e-14 1.00137 0
2.4052e-14 1.00137 0
-3.12437e-14 1.00137 0
-2.30875e-14 1.00137 0
3.84719e-14 1.00212 0
2.28631e-14 1.00212 0
-2.30875e-14 1.00137 0
-1.77404e-14 1.00137 0
2.28631e-14 1.00212 0
1.89628e-14 1.00212 0
-2.29618e-14 1 0
-2.23949e-14 1 0
2.4052e-14 1.00137 0
2.22575e-14 1.00137 0
-2.23949e-14 1 0
-1.31435e-14 1 0
2.22575e-14 1.00137 0
1.71931e-14 1.00137 0
-1.77404e-14 1.00137 0
-2.05315e-14 1.00137 0
1.89628e-14 1.00212 0
2.49602e-14 1.00212 0
-2.05315e-14 1.00137 0
-2.22192e-14 1.00137 0
2.49602e-14 1.00212 0
2.41532e-14 1.00212 0
-3.31304e-14 1.00212 0
-1.53278e-14 1.00212 0
2.81255e-14 1.00301 0
2.00384e-14 1.00301 0
-1.53278e-14 1.00212 0
-1.6543e-14 1.00212 0
2.00384e-14 1.00301 0
1.91756e-14 1.00301 0
-1.18017e-14 1.00301 0
-1.15479e-14 1.00301 0
1.00279e-14 1.00386 0
8.74349e-15 1.00386 0
-1.15479e-14 1.00301 0
-1.85026e-14 1.00301 0
8.74349e-15 1.00386 0
2.44279e-14 1.00386 0
-1.6543e-14 1.00212 0
-1.89185e-14 1.00212 0
1.91756e-14 1.00301 0
2.49605e-14 1.00301 0
-1.89185e-14 1.00212 0
-1.95767e-14 1.00212 0
2.49605e-14 1.00301 0
2.27219e-14 1.00301 0
-1.85026e-14 1.00301 0
-2.36668e-14 1.00301 0
2.44279e-14 1.00386 0
2.19855e-14 1.00386 0
-2.36668e-14 1.00301 0
-2.09801e-14 1.00301 0
2.19855e-14 1.00386 0
2.77666e-14 1.00386 0
0 1.00386 0
-3.6026e-15 1.00386 0
0 1.0047 0
1.99643e-15 1.0047 0
-3.6026e-15 1.00386 0
-6.26919e-15 1.00386 0
1.99643e-15 1.0047 0
-3.43882e-15 1.0047 0
0 1.0047 0
-2.3918e-15 1.0047 0
0 1.00554 0
6.99968e-16 1.00554 0
-2.3918e-15 1.0047 0
-9.60039e-15 1.0047 0
6.99968e-16 1.00554 0
2.0295e-14 1.00554 0
-6.26919e-15 1.00386 0
-1.466e-14 1.00386 0
-3.43882e-15 1.0047 0
1.69496e-14 1.0047 0
-1.466e-14 1.00386 0
-9.25754e-15 1.00386 0
1.69496e-14 1.0047 0
1.2654e-14 1.0047 0
-9.60039e-15 1.0047 0
-2.9165e-14 1.0047 0
2.0295e-14 1.00554 0
3.10234e-14 1.00554 0
-2.9165e-14 1.0047 0
-1.80082e-14 1.0047 0
3.10234e-14 1.00554 0
2.2632e-14 1.00554 0
0 1.00554 0
1.35898e-15 1.00554 0
0 1.00637 0
1.11527e-15 1.00637 0
1.35898e-15 1.00554 0
-9.87305e-15 1.00554 0
1.11527e-15 1.00637 0
5.2724e-15 1.00637 0
0 1.00637 0
-6.02754e-15 1.00637 0
0 1.0072 0
6.09536e-15 1.0072 0
-6.02754e-15 1.00637 0
-6.5326e-15 1.00637 0
6.09536e-15 1.0072 0
6.1738e-15 1.0072 0
-9.87305e-15 1.00554 0
-2.12226e-14 1.00554 0
5.2724e-15 1.00637 0
9.94743e-15 1.00637 0
-2.12226e-14 1.00554 0
-2.95528e-14 1.00554 0
9.94743e-15 1.00637 0
2.1735e-14 1.00637 0
-6.5326e-15 1.00637 0
-2.58379e-15 1.00637 0
6.1738e-15 1.0072 0
5.85651e-15 1.0072 0
-2.58379e-15 1.00637 0
-9.09354e-15 1.00637 0
5.85651e-15 1.0072 0
1.00952e-14 1.0072 0
-9.25754e-15 1.00386 0
-5.67721e-15 1.00386 0
1.2654e-14 1.0047 0
1.16579e-14 1.0047 0
-5.67721e-15 1.00386 0
-2.71779e-14 1.00386 0
1.16579e-14 1.0047 0
2.80593e-14 1.0047 0
-1.80082e-14 1.0047 0
-1.59337e-14 1.0047 0
2.2632e-14 1.00554 0
1.21154e-14 1.00554 0
-1.59337e-14 1.0047 0
-1.67625e-14 1.0047 0
1.21154e-14 1.00554 0
1.82219e-14 1.00554 0
-2.71779e-14 1.00386 0
-1.78888e-14 1.00386 0
2.80593e-14 1.0047 0
2.31429e-14 1.0047 0
-1.78888e-14 1.00386 0
-3.61196e-14 1.00386 0
2.31429e-14 1.0047 0
4.18829e-14 1.0047 0
-1.67625e-14 1.0047 0
-1.67486e-14 1.0047 0
1.82219e-14 1.00554 0
1.22698e-14 1.00554 0
-1.67486e-14 1.0047 0
-3.97156e-14 1.0047 0
1.22698e-14 1.00554 0
3.57613e-14 1.00554 0
-2.95528e-14 1.00554 0
-5.54038e-15 1.00554 0
2.1735e-14 1.00637 0
3.44966e-15 1.00637 0
-5.54038e-15 1.00554 0
-2.24615e-14 1.00554 0
3.44966e-15 1.00637 0
1.78295e-14 1.00637 0
-9.09354e-15 1.00637 0
-6.19897e-15 1.00637 0
1.00952e-14 1.0072 0
1.36406e-14 1.0072 0
-6.19897e-15 1.00637 0
-1.70266e-14 1.00637 0
1.36406e-14 1.0072 0
2.35164e-14 1.0072 0
-2.24615e-14 1.00554 0
-1.09325e-14 1.00554 0
1.78295e-14 1.00637 0
1.11181e-14 1.00637 0
-1.09325e-14 1.00554 0
-2.58352e-14 1.00554 0
1.11181e-14 1.00637 0
2.25289e-14 1.00637 0
-1.70266e-14 1.00637 0
-1.80299e-14 1.00637 0
2.35164e-14 1.0072 0
2.3536e-14 1.0072 0
-1.80299e-14 1.00637 0
-2.17819e-14 1.00637 0
2.3536e-14 1.0072 0
2.83065e-14 1.0072 0
-1.31435e-14 1 0
-2.96057e-14 1 0
1.71931e-14 1.00137 0
3.64094e-14 1.00137 0
-2.96057e-14 1 0
-1.93431e-14 1 0
3.64094e-14 1.00137 0
2.77268e-14 1.00137 0
-2.22192e-14 1.00137 0
-2.47132e-14 1.00137 0
2.41532e-14 1.00212 0
2.67455e-14 1.00212 0
-2.47132e-14 1.00137 0
-1.21843e-14 1.00137 0
2.67455e-14 1.00212 0
6.01091e-15 1.00212 0
-1.93431e-14 1 0
-8.28179e-15 1 0
2.77268e-14 1.00137 0
9.52672e-15 1.00137 0
-8.28179e-15 1 0
-2.44562e-14 1 0
9.52672e-15 1.00137 0
3.28813e-14 1.00137 0
-1.21843e-14 1.00137 0
-1.06051e-14 1.00137 0
6.01091e-15 1.00212 0
1.26525e-14 1.00212 0
-1.06051e-14 1.00137 0
-2.4493e-14 1.00137 0
1.26525e-14 1.00212 0
2.68837e-14 1.00212 0
-1.95767e-14 1.00212 0
-2.75051e-14 1.00212 0
2.27219e-14 1.00301 0
3.3599e-14 1.00301 0
-2.75051e-14 1.00212 0
-9.69263e-15 1.00212 0
3.3599e-14 1.00301 0
1.71566e-14 1.00301 0
-2.09801e-14 1.00301 0
-3.33518e-14 1.00301 0
2.77666e-14 1.00386 0
3.70469e-14 1.00386 0
-3.33518e-14 1.00301 0
-2.03382e-14 1.00301 0
3.70469e-14 1.00386 0
2.14638e-14 1.00386 0
-9.69263e-15 1.00212 0
-1.84374e-14 1.00212 0
1.71566e-14 1.00301 0
2.28263e-14 1.00301 0
-1.84374e-14 1.00212 0
-2.59415e-14 1.00212 0
2.28263e-14 1.00301 0
2.96911e-14 1.00301 0
-2.03382e-14 1.00301 0
-1.34489e-14 1.00301 0
2.14638e-14 1.00386 0
1.65124e-14 1.00386 0
-1.34489e-14 1.00301 0
-1.92276e-14 1.00301 0
1.65124e-14 1.00386 0
1.73658e-14 1.00386 0
-2.44562e-14 1 0
-2.52617e-14 1 0
3.28813e-14 1.00137 0
3.92997e-14 1.00137 0
-2.52617e-14 1 0
-2.54908e-14 1 0
3.92997e-14 1.00137 0
3.87432e-14 1.00137 0
-2.4493e-14 1.00137 0
-3.36658e-14 1.00137 0
2.68837e-14 1.00212 0
3.09155e-14 1.00212 0
-3.36658e-14 1.00137 0
-3.49611e-14 1.00137 0
3.09155e-14 1.00212 0
3.56867e-14 1.00212 0
-2.54908e-14 1 0
-1.82767e-14 1 0
3.87432e-14 1.00137 0
2.01756e-14 1.00137 0
-1.82767e-14 1 0
-1.48787e-14 1 0
2.01756e-14 1.00137 0
2.09035e-14 1.00137 0
-3.49611e-14 1.00137 0
-1.44739e-14 1.00137 0
3.56867e-14 1.00212 0
2.40872e-14 1.00212 0
-1.44739e-14 1.00137 0
-1.22478e-14 1.00137 0
2.40872e-14 1.00212 0
1.9866e-14 1.00212 0
-2.59415e-14 1.00212 0
-2.20467e-14 1.00212 0
2.96911e-14 1.00301 0
2.67991e-14 1.00301 0
-2.20467e-14 1.00212 0
-1.70822e-14 1.00212 0
2.67991e-14 1.00301 0
1.38401e-14 1.00301 0
-1.92276e-14 1.00301 0
-2.17858e-14 1.00301 0
1.73658e-14 1.00386 0
2.42521e-14 1.00386 0
-2.17858e-14 1.00301 0
-1.23758e-14 1.00301 0
2.42521e-14 1.00386 0
1.94915e-14 1.00386 0
-1.70822e-14 1.00212 0
-2.14999e-14 1.00212 0
1.38401e-14 1.00301 0
1.91727e-14 1.00301 0
-2.14999e-14 1.00212 0
-2.03968e-14 1.00212 0
1.91727e-14 1.00301 0
2.13653e-14 1.00301 0
-1.23758e-14 1.00301 0
-9.54442e-15 1.00301 0
1.94915e-14 1.00386 0
1.44863e-14 1.00386 0
-9.54442e-15 1.00301 0
-1.50185e-14 1.00301 0
1.44863e-14 1.00386 0
2.21071e-14 1.00386 0
-3.61196e-14 1.00386 0
-4.33335e-14 1.00386 0
4.18829e-14 1.0047 0
4.65686e-14 1.0047 0
-4.33335e-14 1.00386 0
-1.25633e-14 1.00386 0
4.65686e-14 1.0047 0
1.56873e-14 1.0047 0
-3.97156e-14 1.0047 0
-2.48634e-14 1.0047 0
3.57613e-14 1.00554 0
1.96065e-14 1.00554 0
-2.48634e-14 1.0047 0
-1.08112e-14 1.0047 0
1.96065e-14 1.00554 0
1.84903e-14 1.00554 0
-1.25633e-14 1.00386 0
-1.21515e-14 1.00386 0
1.56873e-14 1.0047 0
2.03838e-14 1.0047 0
-1.21515e-14 1.00386 0
-1.44867e-14 1.00386 0
2.03838e-14 1.0047 0
2.16172e-14 1.0047 0
-1.08112e-14 1.0047 0
-2.47803e-14 1.0047 0
1.84903e-14 1.00554 0
2.53378e-14 1.00554 0
-2.47803e-14 1.0047 0
-9.79323e-15 1.0047 0
2.53378e-14 1.00554 0
1.35419e-14 1.00554 0
-2.58352e-14 1.00554 0
-1.78493e-14 1.00554 0
2.25289e-14 1.00637 0
1.76949e-14 1.00637 0
-1.78493e-14 1.00554 0
-2.24449e-14 1.00554 0
1.76949e-14 1.00637 0
1.69223e-14 1.00637 0
-2.17819e-14 1.00637 0
-1.78182e-14 1.00637 0
2.83065e-14 1.0072 0
2.47589e-14 1.0072 0
-1.78182e-14 1.00637 0
-1.71935e-14 1.00637 0
2.47589e-14 1.0072 0
2.25429e-14 1.0072 0
-2.24449e-14 1.00554 0
-2.05297e-14 1.00554 0
1.69223e-14 1.00637 0
1.68385e-14 1.00637 0
-2.05297e-14 1.00554 0
-2.65069e-14 1.00554 0
1.68385e-14 1.00637 0
2.11029e-14 1.00637 0
-1.71935e-14 1.00637 0
-1.59482e-14 1.00637 0
2.25429e-14 1.0072 0
2.17437e-14 1.0072 0
-1.59482e-14 1.00637 0
-2.42687e-15 1.00637 0
2.17437e-14 1.0072 0
9.23566e-15 1.0072 0
-1.44867e-14 1.00386 0
-2.03092e-14 1.00386 0
2.16172e-14 1.0047 0
2.47164e-14 1.0047 0
-2.03092e-14 1.00386 0
-1.87229e-14 1.00386 0
2.47164e-14 1.0047 0
2.76336e-14 1.0047 0
-9.79323e-15 1.0047 0
-1.01491e-14 1.0047 0
1.35419e-14 1.00554 0
1.3991e-14 1.00554 0
-1.01491e-14 1.0047 0
-1.5712e-14 1.0047 0
1.3991e-14 1.00554 0
1.60638e-14 1.00554 0
-1.87229e-14 1.00386 0
1.50854e-15 1.00386 0
2.76336e-14 1.0047 0
6.48578e-15 1.0047 0
1.50854e-15 1.00386 0
-2.96174e-15 1.00386 0
6.48578e-15 1.0047 0
7.93019e-15 1.0047 0
-1.5712e-14 1.0047 0
-1.28192e-14 1.0047 0
1.60638e-14 1.00554 0
2.02378e-14 1.00554 0
-1.28192e-14 1.0047 0
-1.34233e-14 1.0047 0
2.02378e-14 1.00554 0
1.65346e-14 1.00554 0
-2.65069e-14 1.00554 0
-2.54529e-14 1.00554 0
2.11029e-14 1.00637 0
2.49016e-14 1.00637 0
-2.54529e-14 1.00554 0
-1.7527e-14 1.00554 0
2.49016e-14 1.00637 0
1.50996e-14 1.00637 0
-2.42687e-15 1.00637 0
-9.99651e-15 1.00637 0
9.23566e-15 1.0072 0
1.46784e-14 1.0072 0
-9.99651e-15 1.00637 0
-1.92653e-14 1.00637 0
1.46784e-14 1.0072 0
2.59979e-14 1.0072 0
-1.7527e-14 1.00554 0
-2.56373e-14 1.00554 0
1.50996e-14 1.00637 0
2.77387e-14 1.00637 0
-2.56373e-14 1.00554 0
-9.00178e-15 1.00554 0
2.77387e-14 1.00637 0
1.06368e-14 1.00637 0
-1.92653e-14 1.00637 0
-2.33819e-14 1.00637 0
2.59979e-14 1.0072 0
1.97223e-14 1.0072 0
-2.33819e-14 1.00637 0
-1.15716e-14 1.00637 0
1.97223e-14 1.0072 0
1.27846e-14 1.0072 0
0 1.0072 0
-1.38298e-14 1.0072 0
0 1.00803 0
1.5632e-14 1.00803 0
-1.38298e-14 1.0072 0
-6.73106e-15 1.0072 0
1.5632e-14 1.00803 0
8.44723e-15 1.00803 0
0 1.00803 0
-8.50527e-15 1.00803 0
0 1.00887 0
8.02e-15 1.00887 0
-8.50527e-15 1.00803 0
-4.53568e-15 1.00803 0
8.02e-15 1.00887 0
2.92493e-15 1.00887 0
-6.73106e-15 1.0072 0
-9.72333e-15 1.0072 0
8.44723e-15 1.00803 0
1.23228e-14 1.00803 0
-9.72333e-15 1.0072 0
-5.52737e-15 1.0072 0
1.23228e-14 1.00803 0
5.9577e-15 1.00803 0
-4.53568e-15 1.00803 0
-1.26963e-14 1.00803 0
2.92493e-15 1.00887 0
1.32624e-14 1.00887 0
-1.26963e-14 1.00803 0
-1.24718e-14 1.00803 0
1.32624e-14 1.00887 0
1.48511e-14 1.00887 0
0 1.00887 0
-4.38328e-15 1.00887 0
0 1.00974 0
3.00737e-15 1.00974 0
-4.38328e-15 1.00887 0
-2.32456e-15 1.00887 0
3.00737e-15 1.00974 0
4.02684e-15 1.00974 0
0 1.00974 0
-3.41144e-15 1.00974 0
0 1.01064 0
1.94707e-15 1.01064 0
-3.41144e-15 1.00974 0
-4.69822e-15 1.00974 0
1.94707e-15 1.01064 0
1.53549e-15 1.01064 0
-2.32456e-15 1.00887 0
-1.05368e-14 1.00887 0
4.02684e-15 1.00974 0
9.80902e-15 1.00974 0
-1.05368e-14 1.00887 0
-1.33231e-14 1.00887 0
9.80902e-15 1.00974 0
1.66385e-14 1.00974 0
-4.69822e-15 1.00974 0
-1.39806e-14 1.00974 0
1.53549e-15 1.01064 0
1.36235e-14 1.01064 0
-1.39806e-14 1.00974 0
-2.05925e-14 1.00974 0
1.36235e-14 1.01064 0
1.97767e-14 1.01064 0
-5.52737e-15 1.0072 0
-1.65483e-14 1.0072 0
5.9577e-15 1.00803 0
1.70443e-14 1.00803 0
-1.65483e-14 1.0072 0
-2.12287e-14 1.0072 0
1.70443e-14 1.00803 0
2.11279e-14 1.00803 0
-1.24718e-14 1.00803 0
-2.03448e-14 1.00803 0
1.48511e-14 1.00887 0
2.28764e-14 1.00887 0
-2.03448e-14 1.00803 0
-2.00247e-14 1.00803 0
2.28764e-14 1.00887 0
2.17987e-14 1.00887 0
-2.12287e-14 1.0072 0
-1.95961e-14 1.0072 0
2.11279e-14 1.00803 0
2.25446e-14 1.00803 0
-1.95961e-14 1.0072 0
-2.49161e-14 1.0072 0
2.25446e-14 1.00803 0
2.55423e-14 1.00803 0
-2.00247e-14 1.00803 0
-2.09718e-14 1.00803 0
2.17987e-14 1.00887 0
1.92094e-14 1.00887 0
-2.09718e-14 1.00803 0
-2.292e-14 1.00803 0
1.92094e-14 1.00887 0
2.30343e-14 1.00887 0
-1.33231e-14 1.00887 0
-1.72516e-14 1.00887 0
1.66385e-14 1.00974 0
1.70588e-14 1.00974 0
-1.72516e-14 1.00887 0
-1.7349e-14 1.00887 0
1.70588e-14 1.00974 0
1.64047e-14 1.00974 0
-2.05925e-14 1.00974 0
-1.75414e-14 1.00974 0
1.97767e-14 1.01064 0
1.4413e-14 1.01064 0
-1.75414e-14 1.00974 0
-1.95367e-14 1.00974 0
1.4413e-14 1.01064 0
1.83549e-14 1.01064 0
-1.7349e-14 1.00887 0
-1.87985e-14 1.00887 0
1.64047e-14 1.00974 0
2.26919e-14 1.00974 0
-1.87985e-14 1.00887 0
-2.0416e-14 1.00887 0
2.26919e-14 1.00974 0
2.07559e-14 1.00974 0
-1.95367e-14 1.00974 0
-2.0447e-14 1.00974 0
1.83549e-14 1.01064 0
1.36904e-14 1.01064 0
-2.0447e-14 1.00974 0
-2.08302e-14 1.00974 0
1.36904e-14 1.01064 0
1.98597e-14 1.01064 0
0 1.01064 0
4.6792e-16 1.01064 0
0 1.01157 0
5.21269e-16 1.01157 0
4.6792e-16 1.01064 0
-1.537e-15 1.01064 0
5.21269e-16 1.01157 0
2.57474e-15 1.01157 0
0 1.01157 0
-5.4742e-15 1.01157 0
0 1.01248 0
4.87293e-15 1.01248 0
-5.4742e-15 1.01157 0
-7.81363e-15 1.01157 0
4.87293e-15 1.01248 0
8.15964e-15 1.01248 0
-1.537e-15 1.01064 0
-1.21341e-14 1.01064 0
2.57474e-15 1.01157 0
9.62063e-15 1.01157 0
-1.21341e-14 1.01064 0
-2.07006e-14 1.01064 0
9.62063e-15 1.01157 0
1.90067e-14 1.01157 0
-7.81363e-15 1.01157 0
-3.57867e-15 1.01157 0
8.15964e-15 1.01248 0
4.80744e-15 1.01248 0
-3.57867e-15 1.01157 0
-1.00794e-14 1.01157 0
4.80744e-15 1.01248 0
7.35668e-15 1.01248 0
0 1.01248 0
-9.28879e-17 1.01248 0
0 1.01323 0
-5.82316e-16 1.01323 0
-9.28879e-17 1.01248 0
-2.45115e-15 1.01248 0
-5.82316e-16 1.01323 0
2.10569e-15 1.01323 0
0 1.01323 0
-3.14661e-15 1.01323 0
0 1.01338 0
3.79593e-15 1.01338 0
-3.14661e-15 1.01323 0
-3.31271e-15 1.01323 0
3.79593e-15 1.01338 0
-1.62391e-15 1.01338 0
-2.45115e-15 1.01248 0
-8.01755e-15 1.01248 0
2.10569e-15 1.01323 0
7.53978e-15 1.01323 0
-8.01755e-15 1.01248 0
-7.62354e-15 1.01248 0
7.53978e-15 1.01323 0
8.29668e-15 1.01323 0
-3.31271e-15 1.01323 0
-1.01439e-14 1.01323 0
-1.62391e-15 1.01338 0
8.60373e-15 1.01338 0
-1.01439e-14 1.01323 0
-1.01126e-14 1.01323 0
8.60373e-15 1.01338 0
8.03818e-15 1.01338 0
-2.07006e-14 1.01064 0
-1.22677e-14 1.01064 0
1.90067e-14 1.01157 0
1.1701e-14 1.01157 0
-1.22677e-14 1.01064 0
-1.34833e-14 1.01064 0
1.1701e-14 1.01157 0
1.18453e-14 1.01157 0
-1.00794e-14 1.01157 0
-8.6105e-15 1.01157 0
7.35668e-15 1.01248 0
8.24403e-15 1.01248 0
-8.6105e-15 1.01157 0
-9.91418e-15 1.01157 0
8.24403e-15 1.01248 0
1.12973e-14 1.01248 0
-1.34833e-14 1.01064 0
-8.50399e-15 1.01064 0
1.18453e-14 1.01157 0
1.15306e-14 1.01157 0
-8.50399e-15 1.01064 0
-1.27541e-14 1.01064 0
1.15306e-14 1.01157 0
9.28158e-15 1.01157 0
-9.91418e-15 1.01157 0
-1.31539e-14 1.01157 0
1.12973e-14 1.01248 0
1.21465e-14 1.01248 0
-1.31539e-14 1.01157 0
-9.07277e-15 1.01157 0
1.21465e-14 1.01248 0
1.06248e-14 1.01248 0
-7.62354e-15 1.01248 0
-4.96246e-15 1.01248 0
8.29668e-15 1.01323 0
6.73891e-15 1.01323 0
-4.96246e-15 1.01248 0
-5.22905e-15 1.01248 0
6.73891e-15 1.01323 0
6.0178e-15 1.01323 0
-1.01126e-14 1.01323 0
-8.37706e-15 1.01323 0
8.03818e-15 1.01338 0
8.22137e-15 1.01338 0
-8.37706e-15 1.01323 0
-6.08921e-15 1.01323 0
8.22137e-15 1.01338 0
8.28291e-15 1.01338 0
-5.22905e-15 1.01248 0
-5.93224e-15 1.01248 0
6.0178e-15 1.01323 0
6.53017e-15 1.01323 0
-5.93224e-15 1.01248 0
-6.28726e-15 1.01248 0
6.53017e-15 1.01323 0
5.66096e-15 1.01323 0
-6.08921e-15 1.01323 0
-7.15903e-15 1.01323 0
8.28291e-15 1.01338 0
1.32425e-14 1.01338 0
-7.15903e-15 1.01323 0
-6.00746e-15 1.01323 0
1.32425e-14 1.01338 0
4.98921e-15 1.01338 0
-2.49161e-14 1.0072 0
-2.30493e-14 1.0072 0
2.55423e-14 1.00803 0
2.48544e-14 1.00803 0
-2.30493e-14 1.0072 0
-1.76009e-14 1.0072 0
2.48544e-14 1.00803 0
1.66497e-14 1.00803 0
-2.292e-14 1.00803 0
-2.36397e-14 1.00803 0
2.30343e-14 1.00887 0
2.51204e-14 1.00887 0
-2.36397e-14 1.00803 0
-1.32606e-14 1.00803 0
2.51204e-14 1.00887 0
1.855e-14 1.00887 0
-1.76009e-14 1.0072 0
-2.17976e-14 1.0072 0
1.66497e-14 1.00803 0
2.24493e-14 1.00803 0
-2.17976e-14 1.0072 0
-1.92011e-14 1.0072 0
2.24493e-14 1.00803 0
2.1813e-14 1.00803 0
-1.32606e-14 1.00803 0
-1.76965e-14 1.00803 0
1.855e-14 1.00887 0
1.86616e-14 1.00887 0
-1.76965e-14 1.00803 0
-1.49956e-14 1.00803 0
1.86616e-14 1.00887 0
1.52508e-14 1.00887 0
-2.0416e-14 1.00887 0
-1.79441e-14 1.00887 0
2.07559e-14 1.00974 0
1.64502e-14 1.00974 0
-1.79441e-14 1.00887 0
-1.83141e-14 1.00887 0
1.64502e-14 1.00974 0
1.36977e-14 1.00974 0
-2.08302e-14 1.00974 0
-2.12519e-14 1.00974 0
1.98597e-14 1.01064 0
2.39674e-14 1.01064 0
-2.12519e-14 1.00974 0
-9.3801e-15 1.00974 0
2.39674e-14 1.01064 0
9.44529e-15 1.01064 0
-1.83141e-14 1.00887 0
-1.21799e-14 1.00887 0
1.36977e-14 1.00974 0
9.26846e-15 1.00974 0
-1.21799e-14 1.00887 0
-1.41382e-14 1.00887 0
9.26846e-15 1.00974 0
1.26763e-14 1.00974 0
-9.3801e-15 1.00974 0
-9.81069e-15 1.00974 0
9.44529e-15 1.01064 0
8.54748e-15 1.01064 0
-9.81069e-15 1.00974 0
-1.2966e-14 1.00974 0
8.54748e-15 1.01064 0
1.48131e-14 1.01064 0
-1.92011e-14 1.0072 0
-2.32382e-14 1.0072 0
2.1813e-14 1.00803 0
2.502e-14 1.00803 0
-2.32382e-14 1.0072 0
-2.156e-14 1.0072 0
2.502e-14 1.00803 0
2.3532e-14 1.00803 0
-1.49956e-14 1.00803 0
-1.53848e-14 1.00803 0
1.52508e-14 1.00887 0
1.60131e-14 1.00887 0
-1.53848e-14 1.00803 0
-8.36411e-15 1.00803 0
1.60131e-14 1.00887 0
8.37597e-15 1.00887 0
-2.156e-14 1.0072 0
-7.49768e-15 1.0072 0
2.3532e-14 1.00803 0
1.11462e-14 1.00803 0
-7.49768e-15 1.0072 0
-9.6767e-15 1.0072 0
1.11462e-14 1.00803 0
1.65782e-14 1.00803 0
-8.36411e-15 1.00803 0
-4.88283e-15 1.00803 0
8.37597e-15 1.00887 0
7.51471e-15 1.00887 0
-4.88283e-15 1.00803 0
-1.42695e-14 1.00803 0
7.51471e-15 1.00887 0
1.61714e-14 1.00887 0
-1.41382e-14 1.00887 0
-1.70163e-14 1.00887 0
1.26763e-14 1.00974 0
1.44791e-14 1.00974 0
-1.70163e-14 1.00887 0
-9.84607e-15 1.00887 0
1.44791e-14 1.00974 0
8.99387e-15 1.00974 0
-1.2966e-14 1.00974 0
-1.55053e-14 1.00974 0
1.48131e-14 1.01064 0
1.42164e-14 1.01064 0
-1.55053e-14 1.00974 0
-1.44254e-14 1.00974 0
1.42164e-14 1.01064 0
1.5269e-14 1.01064 0
-9.84607e-15 1.00887 0
-8.52416e-15 1.00887 0
8.99387e-15 1.00974 0
6.73512e-15 1.00974 0
-8.52416e-15 1.00887 0
-1.43353e-14 1.00887 0
6.73512e-15 1.00974 0
1.31202e-14 1.00974 0
-1.44254e-14 1.00974 0
-4.4735e-15 1.00974 0
1.5269e-14 1.01064 0
6.12659e-15 1.01064 0
-4.4735e-15 1.00974 0
-6.11692e-15 1.00974 0
6.12659e-15 1.01064 0
6.7109e-15 1.01064 0
-1.27541e-14 1.01064 0
-1.76434e-14 1.01064 0
9.28158e-15 1.01157 0
1.33558e-14 1.01157 0
-1.76434e-14 1.01064 0
-1.02219e-14 1.01064 0
1.33558e-14 1.01157 0
1.11045e-14 1.01157 0
-9.07277e-15 1.01157 0
-1.28148e-14 1.01157 0
1.06248e-14 1.01248 0
1.23732e-14 1.01248 0
-1.28148e-14 1.01157 0
-1.06179e-14 1.01157 0
1.23732e-14 1.01248 0
1.06808e-14 1.01248 0
-1.02219e-14 1.01064 0
-5.9236e-15 1.01064 0
1.11045e-14 1.01157 0
7.86298e-15 1.01157 0
-5.9236e-15 1.01064 0
-1.34629e-14 1.01064 0
7.86298e-15 1.01157 0
1.44711e-14 1.01157 0
-1.06179e-14 1.01157 0