# vtk DataFile Version 3.0
#This file was generated by the deal.II library on 2018/10/12 at 0:16:33
ASCII
DATASET UNSTRUCTURED_GRID

POINTS 5120 double
0 0 0
0.392699 0 0
0 0.61327 0
0.392699 0.61327 0
0.392699 0 0
0.785398 0 0
0.392699 0.61327 0
0.785398 0.61327 0
0 0.61327 0
0.392699 0.61327 0
0 1.23915 0
0.392699 1.23915 0
0.392699 0.61327 0
0.785398 0.61327 0
0.392699 1.23915 0
0.785398 1.23915 0
0.785398 0 0
1.1781 0 0
0.785398 0.61327 0
1.1781 0.61327 0
1.1781 0 0
1.5708 0 0
1.1781 0.61327 0
1.5708 0.61327 0
0.785398 0.61327 0
1.1781 0.61327 0
0.785398 1.23915 0
1.1781 1.23915 0
1.1781 0.61327 0
1.5708 0.61327 0
1.1781 1.23915 0
1.5708 1.23915 0
0 1.23915 0
0.392699 1.23915 0
0 1.86453 0
0.392699 1.86453 0
0.392699 1.23915 0
0.785398 1.23915 0
0.392699 1.86453 0
0.785398 1.86453 0
0 1.86453 0
0.392699 1.86453 0
0 2.49032 0
0.392699 2.49032 0
0.392699 1.86453 0
0.785398 1.86453 0
0.392699 2.49032 0
0.785398 2.49032 0
0.785398 1.23915 0
1.1781 1.23915 0
0.785398 1.86453 0
1.1781 1.86453 0
1.1781 1.23915 0
1.5708 1.23915 0
1.1781 1.86453 0
1.5708 1.86453 0
0.785398 1.86453 0
1.1781 1.86453 0
0.785398 2.49032 0
1.1781 2.49032 0
1.1781 1.86453 0
1.5708 1.86453 0
1.1781 2.49032 0
1.5708 2.49032 0
1.5708 0 0
1.9635 0 0
1.5708 0.61327 0
1.9635 0.61327 0
1.9635 0 0
2.35619 0 0
1.9635 0.61327 0
2.35619 0.61327 0
1.5708 0.61327 0
1.9635 0.61327 0
1.5708 1.23915 0
1.9635 1.23915 0
1.9635 0.61327 0
2.35619 0.61327 0
1.9635 1.23915 0
2.35619 1.23915 0
2.35619 0 0
2.74889 0 0
2.35619 0.61327 0
2.74889 0.61327 0
2.74889 0 0
3.14159 0 0
2.74889 0.61327 0
3.14159 0.61327 0
2.35619 0.61327 0
2.74889 0.61327 0
2.35619 1.23915 0
2.74889 1.23915 0
2.74889 0.61327 0
3.14159 0.61327 0
2.74889 1.23915 0
3.14159 1.23915 0
1.5708 1.23915 0
1.9635 1.23915 0
1.5708 1.86453 0
1.9635 1.86453 0
1.9635 1.23915 0
2.35619 1.23915 0
1.9635 1.86453 0
2.35619 1.86453 0
1.5708 1.86453 0
1.9635 1.86453 0
1.5708 2.49032 0
1.9635 2.49032 0
1.9635 1.86453 0
2.35619 1.86453 0
1.9635 2.49032 0
2.35619 2.49032 0
2.35619 1.23915 0
2.74889 1.23915 0
2.35619 1.86453 0
2.74889 1.86453 0
2.74889 1.23915 0
3.14159 1.23915 0
2.74889 1.86453 0
3.14159 1.86453 0
2.35619 1.86453 0
2.74889 1.86453 0
2.35619 2.49032 0
2.74889 2.49032 0
2.74889 1.86453 0
3.14159 1.86453 0
2.74889 2.49032 0
3.14159 2.49032 0
0 2.49032 0
0.392699 2.49032 0
0 3.116 0
0.392699 3.116 0
0.392699 2.49032 0
0.785398 2.49032 0
0.392699 3.116 0
0.785398 3.116 0
0 3.116 0
0.392699 3.116 0
0 3.74168 0
0.392699 3.74168 0
0.392699 3.116 0
0.785398 3.116 0
0.392699 3.74168 0
0.785398 3.74168 0
0.785398 2.49032 0
1.1781 2.49032 0
0.785398 3.116 0
1.1781 3.116 0
1.1781 2.49032 0
1.5708 2.49032 0
1.1781 3.116 0
1.5708 3.116 0
0.785398 3.116 0
1.1781 3.116 0
0.785398 3.74168 0
1.1781 3.74168 0
1.1781 3.116 0
1.5708 3.116 0
1.1781 3.74168 0
1.5708 3.74168 0
0 3.74168 0
0.392699 3.74168 0
0 4.36732 0
0.392699 4.36732 0
0.392699 3.74168 0
0.785398 3.74168 0
0.392699 4.36732 0
0.785398 4.36732 0
0 4.36732 0
0.392699 4.36732 0
0 4.99294 0
0.392699 4.99294 0
0.392699 4.36732 0
0.785398 4.36732 0
0.392699 4.99294 0
0.785398 4.99294 0
0.785398 3.74168 0
1.1781 3.74168 0
0.785398 4.36732 0
1.1781 4.36732 0
1.1781 3.74168 0
1.5708 3.74168 0
1.1781 4.36732 0
1.5708 4.36732 0
0.785398 4.36732 0
1.1781 4.36732 0
0.785398 4.99294 0
1.1781 4.99294 0
1.1781 4.36732 0
1.5708 4.36732 0
1.1781 4.99294 0
1.5708 4.99294 0
1.5708 2.49032 0
1.9635 2.49032 0
1.5708 3.116 0
1.9635 3.116 0
1.9635 2.49032 0
2.35619 2.49032 0
1.9635 3.116 0
2.35619 3.116 0
1.5708 3.116 0
1.9635 3.116 0
1.5708 3.74168 0
1.9635 3.74168 0
1.9635 3.116 0
2.35619 3.116 0
1.9635 3.74168 0
2.35619 3.74168 0
2.35619 2.49032 0
2.74889 2.49032 0
2.35619 3.116 0
2.74889 3.116 0
2.74889 2.49032 0
3.14159 2.49032 0
2.74889 3.116 0
3.14159 3.116 0
2.35619 3.116 0
2.74889 3.116 0
2.35619 3.74168 0
2.74889 3.74168 0
2.74889 3.116 0
3.14159 3.116 0
2.74889 3.74168 0
3.14159 3.74168 0
1.5708 3.74168 0
1.9635 3.74168 0
1.5708 4.36732 0
1.9635 4.36732 0
1.9635 3.74168 0
2.35619 3.74168 0
1.9635 4.36732 0
2.35619 4.36732 0
1.5708 4.36732 0
1.9635 4.36732 0
1.5708 4.99294 0
1.9635 4.99294 0
1.9635 4.36732 0
2.35619 4.36732 0
1.9635 4.99294 0
2.35619 4.99294 0
2.35619 3.74168 0
2.74889 3.74168 0
2.35619 4.36732 0
2.74889 4.36732 0
2.74889 3.74168 0
3.14159 3.74168 0
2.74889 4.36732 0
3.14159 4.36732 0
2.35619 4.36732 0
2.74889 4.36732 0
2.35619 4.99294 0
2.74889 4.99294 0
2.74889 4.36732 0
3.14159 4.36732 0
2.74889 4.99294 0
3.14159 4.99294 0
3.14159 0 0
3.53429 0 0
3.14159 0.61327 0
3.53429 0.61327 0
3.53429 0 0
3.92699 0 0
3.53429 0.61327 0
3.92699 0.61327 0
3.14159 0.61327 0
3.53429 0.61327 0
3.14159 1.23915 0
3.53429 1.23915 0
3.53429 0.61327 0
3.92699 0.61327 0
3.53429 1.23915 0
3.92699 1.23915 0
3.92699 0 0
4.31969 0 0
3.92699 0.61327 0
4.31969 0.61327 0
4.31969 0 0
4.71239 0 0
4.31969 0.61327 0
4.71239 0.61327 0
3.92699 0.61327 0
4.31969 0.61327 0
3.92699 1.23915 0
4.31969 1.23915 0
4.31969 0.61327 0
4.71239 0.61327 0
4.31969 1.23915 0
4.71239 1.23915 0
3.14159 1.23915 0
3.53429 1.23915 0
3.14159 1.86453 0
3.53429 1.86453 0
3.53429 1.23915 0
3.92699 1.23915 0
3.53429 1.86453 0
3.92699 1.86453 0
3.14159 1.86453 0
3.53429 1.86453 0
3.14159 2.49032 0
3.53429 2.49032 0
3.53429 1.86453 0
3.92699 1.86453 0
3.53429 2.49032 0
3.92699 2.49032 0
3.92699 1.23915 0
4.31969 1.23915 0
3.92699 1.86453 0
4.31969 1.86453 0
4.31969 1.23915 0
4.71239 1.23915 0
4.31969 1.86453 0
4.71239 1.86453 0
3.92699 1.86453 0
4.31969 1.86453 0
3.92699 2.49032 0
4.31969 2.49032 0
4.31969 1.86453 0
4.71239 1.86453 0
4.31969 2.49032 0
4.71239 2.49032 0
4.71239 0 0
5.10509 0 0
4.71239 0.61327 0
5.10509 0.61327 0
5.10509 0 0
5.49779 0 0
5.10509 0.61327 0
5.49779 0.61327 0
4.71239 0.61327 0
5.10509 0.61327 0
4.71239 1.23915 0
5.10509 1.23915 0
5.10509 0.61327 0
5.49779 0.61327 0
5.10509 1.23915 0
5.49779 1.23915 0
5.49779 0 0
5.89049 0 0
5.49779 0.61327 0
5.89049 0.61327 0
5.89049 0 0
6.28319 0 0
5.89049 0.61327 0
6.28319 0.61327 0
5.49779 0.61327 0
5.89049 0.61327 0
5.49779 1.23915 0
5.89049 1.23915 0
5.89049 0.61327 0
6.28319 0.61327 0
5.89049 1.23915 0
6.28319 1.23915 0
4.71239 1.23915 0
5.10509 1.23915 0
4.71239 1.86453 0
5.10509 1.86453 0
5.10509 1.23915 0
5.49779 1.23915 0
5.10509 1.86453 0
5.49779 1.86453 0
4.71239 1.86453 0
5.10509 1.86453 0
4.71239 2.49032 0
5.10509 2.49032 0
5.10509 1.86453 0
5.49779 1.86453 0
5.10509 2.49032 0
5.49779 2.49032 0
5.49779 1.23915 0
5.89049 1.23915 0
5.49779 1.86453 0
5.89049 1.86453 0
5.89049 1.23915 0
6.28319 1.23915 0
5.89049 1.86453 0
6.28319 1.86453 0
5.49779 1.86453 0
5.89049 1.86453 0
5.49779 2.49032 0
5.89049 2.49032 0
5.89049 1.86453 0
6.28319 1.86453 0
5.89049 2.49032 0
6.28319 2.49032 0
3.14159 2.49032 0
3.53429 2.49032 0
3.14159 3.116 0
3.53429 3.116 0
3.53429 2.49032 0
3.92699 2.49032 0
3.53429 3.116 0
3.92699 3.116 0
3.14159 3.116 0
3.53429 3.116 0
3.14159 3.74168 0
3.53429 3.74168 0
3.53429 3.116 0
3.92699 3.116 0
3.53429 3.74168 0
3.92699 3.74168 0
3.92699 2.49032 0
4.31969 2.49032 0
3.92699 3.116 0
4.31969 3.116 0
4.31969 2.49032 0
4.71239 2.49032 0
4.31969 3.116 0
4.71239 3.116 0
3.92699 3.116 0
4.31969 3.116 0
3.92699 3.74168 0
4.31969 3.74168 0
4.31969 3.116 0
4.71239 3.116 0
4.31969 3.74168 0
4.71239 3.74168 0
3.14159 3.74168 0
3.53429 3.74168 0
3.14159 4.36732 0
3.53429 4.36732 0
3.53429 3.74168 0
3.92699 3.74168 0
3.53429 4.36732 0
3.92699 4.36732 0
3.14159 4.36732 0
3.53429 4.36732 0
3.14159 4.99294 0
3.53429 4.99294 0
3.53429 4.36732 0
3.92699 4.36732 0
3.53429 4.99294 0
3.92699 4.99294 0
3.92699 3.74168 0
4.31969 3.74168 0
3.92699 4.36732 0
4.31969 4.36732 0
4.31969 3.74168 0
4.71239 3.74168 0
4.31969 4.36732 0
4.71239 4.36732 0
3.92699 4.36732 0
4.31969 4.36732 0
3.92699 4.99294 0
4.31969 4.99294 0
4.31969 4.36732 0
4.71239 4.36732 0
4.31969 4.99294 0
4.71239 4.99294 0
4.71239 2.49032 0
5.10509 2.49032 0
4.71239 3.116 0
5.10509 3.116 0
5.10509 2.49032 0
5.49779 2.49032 0
5.10509 3.116 0
5.49779 3.116 0
4.71239 3.116 0
5.10509 3.116 0
4.71239 3.74168 0
5.10509 3.74168 0
5.10509 3.116 0
5.49779 3.116 0
5.10509 3.74168 0
5.49779 3.74168 0
5.49779 2.49032 0
5.89049 2.49032 0
5.49779 3.116 0
5.89049 3.116 0
5.89049 2.49032 0
6.28319 2.49032 0
5.89049 3.116 0
6.28319 3.116 0
5.49779 3.116 0
5.89049 3.116 0
5.49779 3.74168 0
5.89049 3.74168 0
5.89049 3.116 0
6.28319 3.116 0
5.89049 3.74168 0
6.28319 3.74168 0
4.71239 3.74168 0
5.10509 3.74168 0
4.71239 4.36732 0
5.10509 4.36732 0
5.10509 3.74168 0
5.49779 3.74168 0
5.10509 4.36732 0
5.49779 4.36732 0
4.71239 4.36732 0
5.10509 4.36732 0
4.71239 4.99294 0
5.10509 4.99294 0
5.10509 4.36732 0
5.49779 4.36732 0
5.10509 4.99294 0
5.49779 4.99294 0
5.49779 3.74168 0
5.89049 3.74168 0
5.49779 4.36732 0
5.89049 4.36732 0
5.89049 3.74168 0
6.28319 3.74168 0
5.89049 4.36732 0
6.28319 4.36732 0
5.49779 4.36732 0
5.89049 4.36732 0
5.49779 4.99294 0
5.89049 4.99294 0
5.89049 4.36732 0
6.28319 4.36732 0
5.89049 4.99294 0
6.28319 4.99294 0
0 4.99294 0
0.392699 4.99294 0
0 5.61851 0
0.392699 5.61851 0
0.392699 4.99294 0
0.785398 4.99294 0
0.392699 5.61851 0
0.785398 5.61851 0
0 5.61851 0
0.392699 5.61851 0
0 6.24404 0
0.392699 6.24404 0
0.392699 5.61851 0
0.785398 5.61851 0
0.392699 6.24404 0
0.785398 6.24404 0
0.785398 4.99294 0
1.1781 4.99294 0
0.785398 5.61851 0
1.1781 5.61851 0
1.1781 4.99294 0
1.5708 4.99294 0
1.1781 5.61851 0
1.5708 5.61851 0
0.785398 5.61851 0
1.1781 5.61851 0
0.785398 6.24404 0
1.1781 6.24404 0
1.1781 5.61851 0
1.5708 5.61851 0
1.1781 6.24404 0
1.5708 6.24404 0
0 6.24404 0
0.392699 6.24404 0
0 6.86955 0
0.392699 6.86955 0
0.392699 6.24404 0
0.785398 6.24404 0
0.392699 6.86955 0
0.785398 6.86955 0
0 6.86955 0
0.392699 6.86955 0
0 7.49506 0
0.392699 7.49506 0
0.392699 6.86955 0
0.785398 6.86955 0
0.392699 7.49506 0
0.785398 7.49506 0
0.785398 6.24404 0
1.1781 6.24404 0
0.785398 6.86955 0
1.1781 6.86955 0
1.1781 6.24404 0
1.5708 6.24404 0
1.1781 6.86955 0
1.5708 6.86955 0
0.785398 6.86955 0
1.1781 6.86955 0
0.785398 7.49506 0
1.1781 7.49506 0
1.1781 6.86955 0
1.5708 6.86955 0
[...]
POINT_DATA 5120
VECTORS velocity double
0 0 0
0 0 0
0 -0.00212763 0
-8.2818e-15 -0.00212763 0
0 0 0
0 0 0
-8.2818e-15 -0.00212763 0
-4.42905e-15 -0.00212763 0
0 -0.00212763 0
-8.2818e-15 -0.00212763 0
0 -0.00196447 0
-7.37778e-15 -0.00196447 0
-8.2818e-15 -0.00212763 0
-4.42905e-15 -0.00212763 0
-7.37778e-15 -0.00196447 0
-5.70425e-16 -0.00196447 0
0 0 0
0 0 0
-4.42905e-15 -0.00212763 0
1.29288e-14 -0.00212763 0
0 0 0
0 0 0
1.29288e-14 -0.00212763 0
8.19599e-15 -0.00212763 0
-4.42905e-15 -0.00212763 0
1.29288e-14 -0.00212763 0
-5.70425e-16 -0.00196447 0
1.29126e-15 -0.00196447 0
1.29288e-14 -0.00212763 0
8.19599e-15 -0.00212763 0
1.29126e-15 -0.00196447 0
1.00713e-15 -0.00196447 0
0 -0.00196447 0
-7.37778e-15 -0.00196447 0
0 -0.00188141 0
-4.30358e-15 -0.00188141 0
-7.37778e-15 -0.00196447 0
-5.70425e-16 -0.00196447 0
-4.30358e-15 -0.00188141 0
-3.3592e-15 -0.00188141 0
0 -0.00188141 0
-4.30358e-15 -0.00188141 0
0 -0.00172066 0
-1.25588e-15 -0.00172066 0
-4.30358e-15 -0.00188141 0
-3.3592e-15 -0.00188141 0
-1.25588e-15 -0.00172066 0
7.47834e-15 -0.00172066 0
-5.70425e-16 -0.00196447 0
1.29126e-15 -0.00196447 0
-3.3592e-15 -0.00188141 0
3.09451e-15 -0.00188141 0
1.29126e-15 -0.00196447 0
1.00713e-15 -0.00196447 0
3.09451e-15 -0.00188141 0
-8.23203e-15 -0.00188141 0
-3.3592e-15 -0.00188141 0
3.09451e-15 -0.00188141 0
7.47834e-15 -0.00172066 0
-2.53029e-15 -0.00172066 0
3.09451e-15 -0.00188141 0
-8.23203e-15 -0.00188141 0
-2.53029e-15 -0.00172066 0
-5.40949e-15 -0.00172066 0
0 0 0
0 0 0
8.19599e-15 -0.00212763 0
-5.88268e-15 -0.00212763 0
0 0 0
0 0 0
-5.88268e-15 -0.00212763 0
-8.77073e-15 -0.00212763 0
8.19599e-15 -0.00212763 0
-5.88268e-15 -0.00212763 0
1.00713e-15 -0.00196447 0
4.6162e-15 -0.00196447 0
-5.88268e-15 -0.00212763 0
-8.77073e-15 -0.00212763 0
4.6162e-15 -0.00196447 0
7.22136e-15 -0.00196447 0
0 0 0
0 0 0
-8.77073e-15 -0.00212763 0
3.98729e-15 -0.00212763 0
0 0 0
0 0 0
3.98729e-15 -0.00212763 0
-1.08426e-15 -0.00212763 0
-8.77073e-15 -0.00212763 0
3.98729e-15 -0.00212763 0
7.22136e-15 -0.00196447 0
5.81397e-15 -0.00196447 0
3.98729e-15 -0.00212763 0
-1.08426e-15 -0.00212763 0
5.81397e-15 -0.00196447 0
8.41692e-16 -0.00196447 0
1.00713e-15 -0.00196447 0
4.6162e-15 -0.00196447 0
-8.23203e-15 -0.00188141 0
1.27718e-14 -0.00188141 0
4.6162e-15 -0.00196447 0
7.22136e-15 -0.00196447 0
1.27718e-14 -0.00188141 0
7.21201e-15 -0.00188141 0
-8.23203e-15 -0.00188141 0
1.27718e-14 -0.00188141 0
-5.40949e-15 -0.00172066 0
1.63193e-15 -0.00172066 0
1.27718e-14 -0.00188141 0
7.21201e-15 -0.00188141 0
1.63193e-15 -0.00172066 0
3.19241e-15 -0.00172066 0
7.22136e-15 -0.00196447 0
5.81397e-15 -0.00196447 0
7.21201e-15 -0.00188141 0
8.90247e-16 -0.00188141 0
5.81397e-15 -0.00196447 0
8.41692e-16 -0.00196447 0
8.90247e-16 -0.00188141 0
6.39419e-15 -0.00188141 0
7.21201e-15 -0.00188141 0
8.90247e-16 -0.00188141 0
3.19241e-15 -0.00172066 0
-5.2797e-16 -0.00172066 0
8.90247e-16 -0.00188141 0
6.39419e-15 -0.00188141 0
-5.2797e-16 -0.00172066 0
7.7472e-15 -0.00172066 0
0 -0.00172066 0
-1.25588e-15 -0.00172066 0
0 -0.00158085 0
-9.1722e-15 -0.00158085 0
-1.25588e-15 -0.00172066 0
7.47834e-15 -0.00172066 0
-9.1722e-15 -0.00158085 0
4.6582e-15 -0.00158085 0
0 -0.00158085 0
-9.1722e-15 -0.00158085 0
0 -0.00143951 0
-2.12662e-15 -0.00143951 0
-9.1722e-15 -0.00158085 0
4.6582e-15 -0.00158085 0
-2.12662e-15 -0.00143951 0
1.41501e-14 -0.00143951 0
7.47834e-15 -0.00172066 0
-2.53029e-15 -0.00172066 0
4.6582e-15 -0.00158085 0
-1.69468e-15 -0.00158085 0
-2.53029e-15 -0.00172066 0
-5.40949e-15 -0.00172066 0
-1.69468e-15 -0.00158085 0
5.09799e-15 -0.00158085 0
4.6582e-15 -0.00158085 0
-1.69468e-15 -0.00158085 0
1.41501e-14 -0.00143951 0
-5.9985e-15 -0.00143951 0
-1.69468e-15 -0.00158085 0
5.09799e-15 -0.00158085 0
-5.9985e-15 -0.00143951 0
-4.66508e-15 -0.00143951 0
0 -0.00143951 0
-2.12662e-15 -0.00143951 0
0 -0.0013045 0
1.2316e-14 -0.0013045 0
-2.12662e-15 -0.00143951 0
1.41501e-14 -0.00143951 0
1.2316e-14 -0.0013045 0
-2.92748e-15 -0.0013045 0
0 -0.0013045 0
1.2316e-14 -0.0013045 0
0 -0.00117463 0
-4.20642e-15 -0.00117463 0
1.2316e-14 -0.0013045 0
-2.92748e-15 -0.0013045 0
-4.20642e-15 -0.00117463 0
8.02553e-15 -0.00117463 0
1.41501e-14 -0.00143951 0
-5.9985e-15 -0.00143951 0
-2.92748e-15 -0.0013045 0
2.04604e-15 -0.0013045 0
-5.9985e-15 -0.00143951 0
-4.66508e-15 -0.00143951 0
2.04604e-15 -0.0013045 0
1.97994e-14 -0.0013045 0
-2.92748e-15 -0.0013045 0
2.04604e-15 -0.0013045 0
8.02553e-15 -0.00117463 0
1.33974e-14 -0.00117463 0
2.04604e-15 -0.0013045 0
1.97994e-14 -0.0013045 0
1.33974e-14 -0.00117463 0
-4.54347e-15 -0.00117463 0
-5.40949e-15 -0.00172066 0
1.63193e-15 -0.00172066 0
5.09799e-15 -0.00158085 0
-5.33548e-15 -0.00158085 0
1.63193e-15 -0.00172066 0
3.19241e-15 -0.00172066 0
-5.33548e-15 -0.00158085 0
-2.71426e-15 -0.00158085 0
5.09799e-15 -0.00158085 0
-5.33548e-15 -0.00158085 0
-4.66508e-15 -0.00143951 0
3.89494e-15 -0.00143951 0
-5.33548e-15 -0.00158085 0
-2.71426e-15 -0.00158085 0
3.89494e-15 -0.00143951 0
-1.2476e-15 -0.00143951 0
3.19241e-15 -0.00172066 0
-5.2797e-16 -0.00172066 0
-2.71426e-15 -0.00158085 0
4.21453e-15 -0.00158085 0
-5.2797e-16 -0.00172066 0
7.7472e-15 -0.00172066 0
4.21453e-15 -0.00158085 0
-8.0021e-15 -0.00158085 0
-2.71426e-15 -0.00158085 0
4.21453e-15 -0.00158085 0
-1.2476e-15 -0.00143951 0
4.83142e-15 -0.00143951 0
4.21453e-15 -0.00158085 0
-8.0021e-15 -0.00158085 0
4.83142e-15 -0.00143951 0
2.53507e-15 -0.00143951 0
-4.66508e-15 -0.00143951 0
3.89494e-15 -0.00143951 0
1.97994e-14 -0.0013045 0
1.49181e-14 -0.0013045 0
3.89494e-15 -0.00143951 0
-1.2476e-15 -0.00143951 0
1.49181e-14 -0.0013045 0
1.56602e-14 -0.0013045 0
1.97994e-14 -0.0013045 0
1.49181e-14 -0.0013045 0
-4.54347e-15 -0.00117463 0
3.23931e-15 -0.00117463 0
1.49181e-14 -0.0013045 0
1.56602e-14 -0.0013045 0
3.23931e-15 -0.00117463 0
-9.28007e-15 -0.00117463 0
-1.2476e-15 -0.00143951 0
4.83142e-15 -0.00143951 0
1.56602e-14 -0.0013045 0
1.92726e-14 -0.0013045 0
4.83142e-15 -0.00143951 0
2.53507e-15 -0.00143951 0
1.92726e-14 -0.0013045 0
1.31343e-14 -0.0013045 0
1.56602e-14 -0.0013045 0
1.92726e-14 -0.0013045 0
-9.28007e-15 -0.00117463 0
2.12119e-15 -0.00117463 0
1.92726e-14 -0.0013045 0
1.31343e-14 -0.0013045 0
2.12119e-15 -0.00117463 0
-4.96438e-15 -0.00117463 0
0 0 0
0 0 0
-1.08426e-15 -0.00212763 0
-6.37931e-15 -0.00212763 0
0 0 0
0 0 0
-6.37931e-15 -0.00212763 0
7.4896e-15 -0.00212763 0
-1.08426e-15 -0.00212763 0
-6.37931e-15 -0.00212763 0
8.41692e-16 -0.00196447 0
1.22249e-14 -0.00196447 0
-6.37931e-15 -0.00212763 0
7.4896e-15 -0.00212763 0
1.22249e-14 -0.00196447 0
7.61159e-15 -0.00196447 0
0 0 0
0 0 0
7.4896e-15 -0.00212763 0
1.17863e-14 -0.00212763 0
0 0 0
0 0 0
1.17863e-14 -0.00212763 0
-2.01347e-16 -0.00212763 0
7.4896e-15 -0.00212763 0
1.17863e-14 -0.00212763 0
7.61159e-15 -0.00196447 0
-8.59965e-15 -0.00196447 0
1.17863e-14 -0.00212763 0
-2.01347e-16 -0.00212763 0
-8.59965e-15 -0.00196447 0
-4.3129e-16 -0.00196447 0
8.41692e-16 -0.00196447 0
1.22249e-14 -0.00196447 0
6.39419e-15 -0.00188141 0
-2.24688e-15 -0.00188141 0
1.22249e-14 -0.00196447 0
7.61159e-15 -0.00196447 0
-2.24688e-15 -0.00188141 0
6.84676e-15 -0.00188141 0
6.39419e-15 -0.00188141 0
-2.24688e-15 -0.00188141 0
7.7472e-15 -0.00172066 0
-2.79695e-15 -0.00172066 0
-2.24688e-15 -0.00188141 0
6.84676e-15 -0.00188141 0
-2.79695e-15 -0.00172066 0
5.1738e-15 -0.00172066 0
7.61159e-15 -0.00196447 0
-8.59965e-15 -0.00196447 0
6.84676e-15 -0.00188141 0
2.29085e-14 -0.00188141 0
-8.59965e-15 -0.00196447 0
-4.3129e-16 -0.00196447 0
2.29085e-14 -0.00188141 0
-8.58684e-15 -0.00188141 0
6.84676e-15 -0.00188141 0
2.29085e-14 -0.00188141 0
5.1738e-15 -0.00172066 0
-2.72088e-15 -0.00172066 0
2.29085e-14 -0.00188141 0
-8.58684e-15 -0.00188141 0
-2.72088e-15 -0.00172066 0
7.36004e-15 -0.00172066 0
0 0 0
0 0 0
-2.01347e-16 -0.00212763 0
2.10855e-15 -0.00212763 0
0 0 0
0 0 0
2.10855e-15 -0.00212763 0
9.76642e-15 -0.00212763 0
-2.01347e-16 -0.00212763 0
2.10855e-15 -0.00212763 0
-4.3129e-16 -0.00196447 0
8.46847e-15 -0.00196447 0
2.10855e-15 -0.00212763 0
9.76642e-15 -0.00212763 0
8.46847e-15 -0.00196447 0
-1.34117e-14 -0.00196447 0
0 0 0
0 0 0
9.76642e-15 -0.00212763 0
2.86037e-15 -0.00212763 0
0 0 0
0 0 0
2.86037e-15 -0.00212763 0
1.40099e-14 -0.00212763 0
9.76642e-15 -0.00212763 0
2.86037e-15 -0.00212763 0
-1.34117e-14 -0.00196447 0
3.46585e-15 -0.00196447 0
2.86037e-15 -0.00212763 0
1.40099e-14 -0.00212763 0
3.46585e-15 -0.00196447 0
6.63456e-15 -0.00196447 0
-4.3129e-16 -0.00196447 0
8.46847e-15 -0.00196447 0
-8.58684e-15 -0.00188141 0
3.22593e-15 -0.00188141 0
8.46847e-15 -0.00196447 0
-1.34117e-14 -0.00196447 0
3.22593e-15 -0.00188141 0
1.72653e-14 -0.00188141 0
-8.58684e-15 -0.00188141 0
3.22593e-15 -0.00188141 0
7.36004e-15 -0.00172066 0
-2.75449e-15 -0.00172066 0
3.22593e-15 -0.00188141 0
1.72653e-14 -0.00188141 0
-2.75449e-15 -0.00172066 0
1.11662e-14 -0.00172066 0
-1.34117e-14 -0.00196447 0
3.46585e-15 -0.00196447 0
1.72653e-14 -0.00188141 0
-8.63307e-15 -0.00188141 0
3.46585e-15 -0.00196447 0
6.63456e-15 -0.00196447 0
-8.63307e-15 -0.00188141 0
6.87995e-17 -0.00188141 0
1.72653e-14 -0.00188141 0
-8.63307e-15 -0.00188141 0
1.11662e-14 -0.00172066 0
1.01329e-14 -0.00172066 0
-8.63307e-15 -0.00188141 0
6.87995e-17 -0.00188141 0
1.01329e-14 -0.00172066 0
5.25009e-15 -0.00172066 0
7.7472e-15 -0.00172066 0
-2.79695e-15 -0.00172066 0
-8.0021e-15 -0.00158085 0
5.53334e-15 -0.00158085 0
-2.79695e-15 -0.00172066 0
5.1738e-15 -0.00172066 0
5.53334e-15 -0.00158085 0
4.96859e-15 -0.00158085 0
-8.0021e-15 -0.00158085 0
5.53334e-15 -0.00158085 0
2.53507e-15 -0.00143951 0
-9.25622e-16 -0.00143951 0
5.53334e-15 -0.00158085 0
4.96859e-15 -0.00158085 0
-9.25622e-16 -0.00143951 0
1.28343e-14 -0.00143951 0
5.1738e-15 -0.00172066 0
-2.72088e-15 -0.00172066 0
4.96859e-15 -0.00158085 0
1.71793e-15 -0.00158085 0
-2.72088e-15 -0.00172066 0
7.36004e-15 -0.00172066 0
1.71793e-15 -0.00158085 0
1.06731e-14 -0.00158085 0
4.96859e-15 -0.00158085 0
1.71793e-15 -0.00158085 0
1.28343e-14 -0.00143951 0
7.14329e-15 -0.00143951 0
1.71793e-15 -0.00158085 0
1.06731e-14 -0.00158085 0
7.14329e-15 -0.00143951 0
1.05717e-14 -0.00143951 0
2.53507e-15 -0.00143951 0
-9.25622e-16 -0.00143951 0
1.31343e-14 -0.0013045 0
1.2398e-14 -0.0013045 0
-9.25622e-16 -0.00143951 0
1.28343e-14 -0.00143951 0
1.2398e-14 -0.0013045 0
-1.08407e-15 -0.0013045 0
1.31343e-14 -0.0013045 0
1.2398e-14 -0.0013045 0
-4.96438e-15 -0.00117463 0
-6.46033e-15 -0.00117463 0
1.2398e-14 -0.0013045 0
-1.08407e-15 -0.0013045 0
-6.46033e-15 -0.00117463 0
8.92452e-15 -0.00117463 0
1.28343e-14 -0.00143951 0
7.14329e-15 -0.00143951 0
-1.08407e-15 -0.0013045 0
-6.94649e-15 -0.0013045 0
7.14329e-15 -0.00143951 0
1.05717e-14 -0.00143951 0
-6.94649e-15 -0.0013045 0
9.08065e-16 -0.0013045 0
-1.08407e-15 -0.0013045 0
-6.94649e-15 -0.0013045 0
8.92452e-15 -0.00117463 0
8.30518e-15 -0.00117463 0
-6.94649e-15 -0.0013045 0
9.08065e-16 -0.0013045 0
8.30518e-15 -0.00117463 0
-7.3866e-15 -0.00117463 0
7.36004e-15 -0.00172066 0
-2.75449e-15 -0.00172066 0
1.06731e-14 -0.00158085 0
1.74387e-14 -0.00158085 0
-2.75449e-15 -0.00172066 0
1.11662e-14 -0.00172066 0
1.74387e-14 -0.00158085 0
2.3745e-15 -0.00158085 0
1.06731e-14 -0.00158085 0
1.74387e-14 -0.00158085 0
1.05717e-14 -0.00143951 0
7.72463e-15 -0.00143951 0
1.74387e-14 -0.00158085 0
2.3745e-15 -0.00158085 0
7.72463e-15 -0.00143951 0
1.59803e-14 -0.00143951 0
1.11662e-14 -0.00172066 0
1.01329e-14 -0.00172066 0
2.3745e-15 -0.00158085 0
6.88756e-15 -0.00158085 0
1.01329e-14 -0.00172066 0
5.25009e-15 -0.00172066 0
6.88756e-15 -0.00158085 0
1.73479e-14 -0.00158085 0
2.3745e-15 -0.00158085 0
6.88756e-15 -0.00158085 0
1.59803e-14 -0.00143951 0
5.68512e-15 -0.00143951 0
6.88756e-15 -0.00158085 0
1.73479e-14 -0.00158085 0
5.68512e-15 -0.00143951 0
8.23979e-15 -0.00143951 0
1.05717e-14 -0.00143951 0
7.72463e-15 -0.00143951 0
9.08065e-16 -0.0013045 0
9.39795e-15 -0.0013045 0
7.72463e-15 -0.00143951 0
1.59803e-14 -0.00143951 0
9.39795e-15 -0.0013045 0
-3.64901e-15 -0.0013045 0
9.08065e-16 -0.0013045 0
9.39795e-15 -0.0013045 0
-7.3866e-15 -0.00117463 0
5.88422e-15 -0.00117463 0
9.39795e-15 -0.0013045 0
-3.64901e-15 -0.0013045 0
5.88422e-15 -0.00117463 0
3.4283e-15 -0.00117463 0
1.59803e-14 -0.00143951 0
5.68512e-15 -0.00143951 0
-3.64901e-15 -0.0013045 0
1.37596e-14 -0.0013045 0
5.68512e-15 -0.00143951 0
8.23979e-15 -0.00143951 0
1.37596e-14 -0.0013045 0
7.49214e-15 -0.0013045 0
-3.64901e-15 -0.0013045 0
1.37596e-14 -0.0013045 0
3.4283e-15 -0.00117463 0
8.21529e-15 -0.00117463 0
1.37596e-14 -0.0013045 0
7.49214e-15 -0.0013045 0
8.21529e-15 -0.00117463 0
-4.98688e-15 -0.00117463 0
0 -0.00117463 0
-4.20642e-15 -0.00117463 0
0 -0.00105118 0
4.58995e-15 -0.00105118 0
-4.20642e-15 -0.00117463 0
8.02553e-15 -0.00117463 0
4.58995e-15 -0.00105118 0
-2.36559e-15 -0.00105118 0
0 -0.00105118 0
4.58995e-15 -0.00105118 0
0 -0.000933835 0
4.46507e-15 -0.000933835 0
4.58995e-15 -0.00105118 0
-2.36559e-15 -0.00105118 0
4.46507e-15 -0.000933835 0
5.05678e-15 -0.000933835 0
8.02553e-15 -0.00117463 0
1.33974e-14 -0.00117463 0
-2.36559e-15 -0.00105118 0
1.68703e-15 -0.00105118 0
1.33974e-14 -0.00117463 0
-4.54347e-15 -0.00117463 0
1.68703e-15 -0.00105118 0
1e-14 -0.00105118 0
-2.36559e-15 -0.00105118 0
1.68703e-15 -0.00105118 0
5.05678e-15 -0.000933835 0
-4.49995e-15 -0.000933835 0
1.68703e-15 -0.00105118 0
1e-14 -0.00105118 0
-4.49995e-15 -0.000933835 0
-7.18656e-15 -0.000933835 0
0 -0.000933835 0
4.46507e-15 -0.000933835 0
0 -0.000820542 0
-6.37751e-15 -0.000820542 0
4.46507e-15 -0.000933835 0
5.05678e-15 -0.000933835 0
-6.37751e-15 -0.000820542 0
5.6493e-16 -0.000820542 0
0 -0.000820542 0
-6.37751e-15 -0.000820542 0
0 -0.000706385 0
1.55351e-15 -0.000706385 0
-6.37751e-15 -0.000820542 0
5.6493e-16 -0.000820542 0
1.55351e-15 -0.000706385 0
6.49086e-15 -0.000706385 0
5.05678e-15 -0.000933835 0
-4.49995e-15 -0.000933835 0
5.6493e-16 -0.000820542 0
-1.5479e-15 -0.000820542 0
-4.49995e-15 -0.000933835 0
-7.18656e-15 -0.000933835 0
-1.5479e-15 -0.000820542 0
5.37275e-15 -0.000820542 0
5.6493e-16 -0.000820542 0
-1.5479e-15 -0.000820542 0
6.49086e-15 -0.000706385 0
-9.54448e-15 -0.000706385 0
-1.5479e-15 -0.000820542 0
5.37275e-15 -0.000820542 0
-9.54448e-15 -0.000706385 0
3.12096e-15 -0.000706385 0
-4.54347e-15 -0.00117463 0
3.23931e-15 -0.00117463 0
1e-14 -0.00105118 0
-5.16591e-15 -0.00105118 0
3.23931e-15 -0.00117463 0
-9.28007e-15 -0.00117463 0
-5.16591e-15 -0.00105118 0
-6.51763e-15 -0.00105118 0
1e-14 -0.00105118 0
-5.16591e-15 -0.00105118 0
-7.18656e-15 -0.000933835 0
7.04337e-15 -0.000933835 0
-5.16591e-15 -0.00105118 0
-6.51763e-15 -0.00105118 0
7.04337e-15 -0.000933835 0
1.15483e-15 -0.000933835 0
-9.28007e-15 -0.00117463 0
2.12119e-15 -0.00117463 0
-6.51763e-15 -0.00105118 0
1.0933e-15 -0.00105118 0
2.12119e-15 -0.00117463 0
-4.96438e-15 -0.00117463 0
1.0933e-15 -0.00105118 0
5.22412e-15 -0.00105118 0
-6.51763e-15 -0.00105118 0
1.0933e-15 -0.00105118 0
1.15483e-15 -0.000933835 0
5.30204e-15 -0.000933835 0
1.0933e-15 -0.00105118 0
5.22412e-15 -0.00105118 0
5.30204e-15 -0.000933835 0
1.15961e-14 -0.000933835 0
-7.18656e-15 -0.000933835 0
7.04337e-15 -0.000933835 0
5.37275e-15 -0.000820542 0
1.1596e-15 -0.000820542 0
7.04337e-15 -0.000933835 0
1.15483e-15 -0.000933835 0
1.1596e-15 -0.000820542 0
3.09833e-15 -0.000820542 0
5.37275e-15 -0.000820542 0
1.1596e-15 -0.000820542 0
3.12096e-15 -0.000706385 0
3.07539e-15 -0.000706385 0
1.1596e-15 -0.000820542 0
3.09833e-15 -0.000820542 0
3.07539e-15 -0.000706385 0
-1.39533e-15 -0.000706385 0
1.15483e-15 -0.000933835 0
5.30204e-15 -0.000933835 0
3.09833e-15 -0.000820542 0
-5.3348e-16 -0.000820542 0
5.30204e-15 -0.000933835 0
1.15961e-14 -0.000933835 0
-5.3348e-16 -0.000820542 0
2.53929e-16 -0.000820542 0
3.09833e-15 -0.000820542 0
-5.3348e-16 -0.000820542 0
-1.39533e-15 -0.000706385 0
-2.75859e-15 -0.000706385 0
-5.3348e-16 -0.000820542 0
2.53929e-16 -0.000820542 0
-2.75859e-15 -0.000706385 0
-4.30551e-15 -0.000706385 0
0 -0.000706385 0
1.55351e-15 -0.000706385 0
0 -0.000580246 0
-5.52484e-15 -0.000580246 0
1.55351e-15 -0.000706385 0
6.49086e-15 -0.000706385 0
-5.52484e-15 -0.000580246 0
-7.70426e-15 -0.000580246 0
0 -0.000580246 0
-5.52484e-15 -0.000580246 0
0 -0.000433802 0
-5.48424e-17 -0.000433802 0
-5.52484e-15 -0.000580246 0
-7.70426e-15 -0.000580246 0
-5.48424e-17 -0.000433802 0
4.14169e-15 -0.000433802 0
6.49086e-15 -0.000706385 0
-9.54448e-15 -0.000706385 0
-7.70426e-15 -0.000580246 0
-1.82279e-15 -0.000580246 0
-9.54448e-15 -0.000706385 0
3.12096e-15 -0.000706385 0
-1.82279e-15 -0.000580246 0
7.66844e-15 -0.000580246 0
-7.70426e-15 -0.000580246 0
-1.82279e-15 -0.000580246 0
4.14169e-15 -0.000433802 0
-4.86061e-15 -0.000433802 0
-1.82279e-15 -0.000580246 0
7.66844e-15 -0.000580246 0
-4.86061e-15 -0.000433802 0
2.17541e-15 -0.000433802 0
0 -0.000433802 0
-5.48424e-17 -0.000433802 0
0 -0.00026156 0
-2.03708e-16 -0.00026156 0
-5.48424e-17 -0.000433802 0
4.14169e-15 -0.000433802 0
-2.03708e-16 -0.00026156 0
-3.03558e-16 -0.00026156 0
0 -0.00026156 0
-2.03708e-16 -0.00026156 0
0 -0.000154344 0
-4.86557e-16 -0.000154344 0
-2.03708e-16 -0.00026156 0
-3.03558e-16 -0.00026156 0
-4.86557e-16 -0.000154344 0
-1.4952e-15 -0.000154344 0
4.14169e-15 -0.000433802 0
-4.86061e-15 -0.000433802 0
-3.03558e-16 -0.00026156 0
-2.69876e-16 -0.00026156 0
-4.86061e-15 -0.000433802 0
2.17541e-15 -0.000433802 0
-2.69876e-16 -0.00026156 0
-1.90053e-15 -0.00026156 0
-3.03558e-16 -0.00026156 0
-2.69876e-16 -0.00026156 0
-1.4952e-15 -0.000154344 0
-4.12246e-15 -0.000154344 0
-2.69876e-16 -0.00026156 0
-1.90053e-15 -0.00026156 0
-4.12246e-15 -0.000154344 0
-2.89875e-15 -0.000154344 0
3.12096e-15 -0.000706385 0
3.07539e-15 -0.000706385 0
7.66844e-15 -0.000580246 0
-4.49384e-16 -0.000580246 0
3.07539e-15 -0.000706385 0
-1.39533e-15 -0.000706385 0
-4.49384e-16 -0.000580246 0
-4.00269e-15 -0.000580246 0
7.66844e-15 -0.000580246 0
-4.49384e-16 -0.000580246 0
2.17541e-15 -0.000433802 0
1.4129e-15 -0.000433802 0
-4.49384e-16 -0.000580246 0
-4.00269e-15 -0.000580246 0
1.4129e-15 -0.000433802 0
2.10711e-15 -0.000433802 0
-1.39533e-15 -0.000706385 0
-2.75859e-15 -0.000706385 0
-4.00269e-15 -0.000580246 0
-6.08439e-15 -0.000580246 0
-2.75859e-15 -0.000706385 0
-4.30551e-15 -0.000706385 0
-6.08439e-15 -0.000580246 0
-7.70418e-15 -0.000580246 0
-4.00269e-15 -0.000580246 0
-6.08439e-15 -0.000580246 0
2.10711e-15 -0.000433802 0
-2.35178e-16 -0.000433802 0
-6.08439e-15 -0.000580246 0
-7.70418e-15 -0.000580246 0
-2.35178e-16 -0.000433802 0
-4.03343e-15 -0.000433802 0
2.17541e-15 -0.000433802 0
1.4129e-15 -0.000433802 0
-1.90053e-15 -0.00026156 0
-1.35405e-15 -0.00026156 0
1.4129e-15 -0.000433802 0
2.10711e-15 -0.000433802 0
-1.35405e-15 -0.00026156 0
-5.3634e-15 -0.00026156 0
-1.90053e-15 -0.00026156 0
-1.35405e-15 -0.00026156 0
-2.89875e-15 -0.000154344 0
-2.26684e-15 -0.000154344 0
-1.35405e-15 -0.00026156 0
-5.3634e-15 -0.00026156 0
-2.26684e-15 -0.000154344 0
-4.44632e-15 -0.000154344 0
2.10711e-15 -0.000433802 0
-2.35178e-16 -0.000433802 0
-5.3634e-15 -0.00026156 0
-4.82416e-15 -0.00026156 0
-2.35178e-16 -0.000433802 0
-4.03343e-15 -0.000433802 0
-4.82416e-15 -0.00026156 0
-1.29297e-16 -0.00026156 0
-5.3634e-15 -0.00026156 0
-4.82416e-15 -0.00026156 0
-4.44632e-15 -0.000154344 0
1.08718e-15 -0.000154344 0
-4.82416e-15 -0.00026156 0
-1.29297e-16 -0.00026156 0
1.08718e-15 -0.000154344 0
-5.12475e-15 -0.000154344 0
-4.96438e-15 -0.00117463 0
-6.46033e-15 -0.00117463 0
5.22412e-15 -0.00105118 0
-6.00243e-15 -0.00105118 0
-6.46033e-15 -0.00117463 0
8.92452e-15 -0.00117463 0
-6.00243e-15 -0.00105118 0
-2.47384e-15 -0.00105118 0
5.22412e-15 -0.00105118 0
-6.00243e-15 -0.00105118 0
1.15961e-14 -0.000933835 0
4.30388e-15 -0.000933835 0
-6.00243e-15 -0.00105118 0
-2.47384e-15 -0.00105118 0
4.30388e-15 -0.000933835 0
1.454e-15 -0.000933835 0
8.92452e-15 -0.00117463 0
8.30518e-15 -0.00117463 0
-2.47384e-15 -0.00105118 0
-5.53617e-15 -0.00105118 0
8.30518e-15 -0.00117463 0
-7.3866e-15 -0.00117463 0
-5.53617e-15 -0.00105118 0
2.03659e-15 -0.00105118 0