# vtk DataFile Version 3.0
#This file was generated by the deal.II library on 2018/10/11 at 23:55:55
ASCII
DATASET UNSTRUCTURED_GRID

POINTS 5120 double
0 0 0
0.392699 0 0
0 0.618225 0
0.392699 0.618225 0
0.392699 0 0
0.785398 0 0
0.392699 0.618225 0
0.785398 0.618225 0
0 0.618225 0
0.392699 0.618225 0
0 1.24372 0
0.392699 1.24372 0
0.392699 0.618225 0
0.785398 0.618225 0
0.392699 1.24372 0
0.785398 1.24372 0
0.785398 0 0
1.1781 0 0
0.785398 0.618225 0
1.1781 0.618225 0
1.1781 0 0
1.5708 0 0
1.1781 0.618225 0
1.5708 0.618225 0
0.785398 0.618225 0
1.1781 0.618225 0
0.785398 1.24372 0
1.1781 1.24372 0
1.1781 0.618225 0
1.5708 0.618225 0
1.1781 1.24372 0
1.5708 1.24372 0
0 1.24372 0
0.392699 1.24372 0
0 1.86891 0
0.392699 1.86891 0
0.392699 1.24372 0
0.785398 1.24372 0
0.392699 1.86891 0
0.785398 1.86891 0
0 1.86891 0
0.392699 1.86891 0
0 2.49433 0
0.392699 2.49433 0
0.392699 1.86891 0
0.785398 1.86891 0
0.392699 2.49433 0
0.785398 2.49433 0
0.785398 1.24372 0
1.1781 1.24372 0
0.785398 1.86891 0
1.1781 1.86891 0
1.1781 1.24372 0
1.5708 1.24372 0
1.1781 1.86891 0
1.5708 1.86891 0
0.785398 1.86891 0
1.1781 1.86891 0
0.785398 2.49433 0
1.1781 2.49433 0
1.1781 1.86891 0
1.5708 1.86891 0
1.1781 2.49433 0
1.5708 2.49433 0
1.5708 0 0
1.9635 0 0
1.5708 0.618225 0
1.9635 0.618225 0
1.9635 0 0
2.35619 0 0
1.9635 0.618225 0
2.35619 0.618225 0
1.5708 0.618225 0
1.9635 0.618225 0
1.5708 1.24372 0
1.9635 1.24372 0
1.9635 0.618225 0
2.35619 0.618225 0
1.9635 1.24372 0
2.35619 1.24372 0
2.35619 0 0
2.74889 0 0
2.35619 0.618225 0
2.74889 0.618225 0
2.74889 0 0
3.14159 0 0
2.74889 0.618225 0
3.14159 0.618225 0
2.35619 0.618225 0
2.74889 0.618225 0
2.35619 1.24372 0
2.74889 1.24372 0
2.74889 0.618225 0
3.14159 0.618225 0
2.74889 1.24372 0
3.14159 1.24372 0
1.5708 1.24372 0
1.9635 1.24372 0
1.5708 1.86891 0
1.9635 1.86891 0
1.9635 1.24372 0
2.35619 1.24372 0
1.9635 1.86891 0
2.35619 1.86891 0
1.5708 1.86891 0
1.9635 1.86891 0
1.5708 2.49433 0
1.9635 2.49433 0
1.9635 1.86891 0
2.35619 1.86891 0
1.9635 2.49433 0
2.35619 2.49433 0
2.35619 1.24372 0
2.74889 1.24372 0
2.35619 1.86891 0
2.74889 1.86891 0
2.74889 1.24372 0
3.14159 1.24372 0
2.74889 1.86891 0
3.14159 1.86891 0
2.35619 1.86891 0
2.74889 1.86891 0
2.35619 2.49433 0
2.74889 2.49433 0
2.74889 1.86891 0
3.14159 1.86891 0
2.74889 2.49433 0
3.14159 2.49433 0
0 2.49433 0
0.392699 2.49433 0
0 3.11968 0
0.392699 3.11968 0
0.392699 2.49433 0
0.785398 2.49433 0
0.392699 3.11968 0
0.785398 3.11968 0
0 3.11968 0
0.392699 3.11968 0
0 3.74504 0
0.392699 3.74504 0
0.392699 3.11968 0
0.785398 3.11968 0
0.392699 3.74504 0
0.785398 3.74504 0
0.785398 2.49433 0
1.1781 2.49433 0
0.785398 3.11968 0
1.1781 3.11968 0
1.1781 2.49433 0
1.5708 2.49433 0
1.1781 3.11968 0
1.5708 3.11968 0
0.785398 3.11968 0
1.1781 3.11968 0
0.785398 3.74504 0
1.1781 3.74504 0
1.1781 3.11968 0
1.5708 3.11968 0
1.1781 3.74504 0
1.5708 3.74504 0
0 3.74504 0
0.392699 3.74504 0
0 4.37038 0
0.392699 4.37038 0
0.392699 3.74504 0
0.785398 3.74504 0
0.392699 4.37038 0
0.785398 4.37038 0
0 4.37038 0
0.392699 4.37038 0
0 4.99569 0
0.392699 4.99569 0
0.392699 4.37038 0
0.785398 4.37038 0
0.392699 4.99569 0
0.785398 4.99569 0
0.785398 3.74504 0
1.1781 3.74504 0
0.785398 4.37038 0
1.1781 4.37038 0
1.1781 3.74504 0
1.5708 3.74504 0
1.1781 4.37038 0
1.5708 4.37038 0
0.785398 4.37038 0
1.1781 4.37038 0
0.785398 4.99569 0
1.1781 4.99569 0
1.1781 4.37038 0
1.5708 4.37038 0
1.1781 4.99569 0
1.5708 4.99569 0
1.5708 2.49433 0
1.9635 2.49433 0
1.5708 3.11968 0
1.9635 3.11968 0
1.9635 2.49433 0
2.35619 2.49433 0
1.9635 3.11968 0
2.35619 3.11968 0
1.5708 3.11968 0
1.9635 3.11968 0
1.5708 3.74504 0
1.9635 3.74504 0
1.9635 3.11968 0
2.35619 3.11968 0
1.9635 3.74504 0
2.35619 3.74504 0
2.35619 2.49433 0
2.74889 2.49433 0
2.35619 3.11968 0
2.74889 3.11968 0
2.74889 2.49433 0
3.14159 2.49433 0
2.74889 3.11968 0
3.14159 3.11968 0
2.35619 3.11968 0
2.74889 3.11968 0
2.35619 3.74504 0
2.74889 3.74504 0
2.74889 3.11968 0
3.14159 3.11968 0
2.74889 3.74504 0
3.14159 3.74504 0
1.5708 3.74504 0
1.9635 3.74504 0
1.5708 4.37038 0
1.9635 4.37038 0
1.9635 3.74504 0
2.35619 3.74504 0
1.9635 4.37038 0
2.35619 4.37038 0
1.5708 4.37038 0
1.9635 4.37038 0
1.5708 4.99569 0
1.9635 4.99569 0
1.9635 4.37038 0
2.35619 4.37038 0
1.9635 4.99569 0
2.35619 4.99569 0
2.35619 3.74504 0
2.74889 3.74504 0
2.35619 4.37038 0
2.74889 4.37038 0
2.74889 3.74504 0
3.14159 3.74504 0
2.74889 4.37038 0
3.14159 4.37038 0
2.35619 4.37038 0
2.74889 4.37038 0
2.35619 4.99569 0
2.74889 4.99569 0
2.74889 4.37038 0
3.14159 4.37038 0
2.74889 4.99569 0
3.14159 4.99569 0
3.14159 0 0
3.53429 0 0
3.14159 0.618225 0
3.53429 0.618225 0
3.53429 0 0
3.92699 0 0
3.53429 0.618225 0
3.92699 0.618225 0
3.14159 0.618225 0
3.53429 0.618225 0
3.14159 1.24372 0
3.53429 1.24372 0
3.53429 0.618225 0
3.92699 0.618225 0
3.53429 1.24372 0
3.92699 1.24372 0
3.92699 0 0
4.31969 0 0
3.92699 0.618225 0
4.31969 0.618225 0
4.31969 0 0
4.71239 0 0
4.31969 0.618225 0
4.71239 0.618225 0
3.92699 0.618225 0
4.31969 0.618225 0
3.92699 1.24372 0
4.31969 1.24372 0
4.31969 0.618225 0
4.71239 0.618225 0
4.31969 1.24372 0
4.71239 1.24372 0
3.14159 1.24372 0
3.53429 1.24372 0
3.14159 1.86891 0
3.53429 1.86891 0
3.53429 1.24372 0
3.92699 1.24372 0
3.53429 1.86891 0
3.92699 1.86891 0
3.14159 1.86891 0
3.53429 1.86891 0
3.14159 2.49433 0
3.53429 2.49433 0
3.53429 1.86891 0
3.92699 1.86891 0
3.53429 2.49433 0
3.92699 2.49433 0
3.92699 1.24372 0
4.31969 1.24372 0
3.92699 1.86891 0
4.31969 1.86891 0
4.31969 1.24372 0
4.71239 1.24372 0
4.31969 1.86891 0
4.71239 1.86891 0
3.92699 1.86891 0
4.31969 1.86891 0
3.92699 2.49433 0
4.31969 2.49433 0
4.31969 1.86891 0
4.71239 1.86891 0
4.31969 2.49433 0
4.71239 2.49433 0
4.71239 0 0
5.10509 0 0
4.71239 0.618225 0
5.10509 0.618225 0
5.10509 0 0
5.49779 0 0
5.10509 0.618225 0
5.49779 0.618225 0
4.71239 0.618225 0
5.10509 0.618225 0
4.71239 1.24372 0
5.10509 1.24372 0
5.10509 0.618225 0
5.49779 0.618225 0
5.10509 1.24372 0
5.49779 1.24372 0
5.49779 0 0
5.89049 0 0
5.49779 0.618225 0
5.89049 0.618225 0
5.89049 0 0
6.28319 0 0
5.89049 0.618225 0
6.28319 0.618225 0
5.49779 0.618225 0
5.89049 0.618225 0
5.49779 1.24372 0
5.89049 1.24372 0
5.89049 0.618225 0
6.28319 0.618225 0
5.89049 1.24372 0
6.28319 1.24372 0
4.71239 1.24372 0
5.10509 1.24372 0
4.71239 1.86891 0
5.10509 1.86891 0
5.10509 1.24372 0
5.49779 1.24372 0
5.10509 1.86891 0
5.49779 1.86891 0
4.71239 1.86891 0
5.10509 1.86891 0
4.71239 2.49433 0
5.10509 2.49433 0
5.10509 1.86891 0
5.49779 1.86891 0
5.10509 2.49433 0
5.49779 2.49433 0
5.49779 1.24372 0
5.89049 1.24372 0
5.49779 1.86891 0
5.89049 1.86891 0
5.89049 1.24372 0
6.28319 1.24372 0
5.89049 1.86891 0
6.28319 1.86891 0
5.49779 1.86891 0
5.89049 1.86891 0
5.49779 2.49433 0
5.89049 2.49433 0
5.89049 1.86891 0
6.28319 1.86891 0
5.89049 2.49433 0
6.28319 2.49433 0
3.14159 2.49433 0
3.53429 2.49433 0
3.14159 3.11968 0
3.53429 3.11968 0
3.53429 2.49433 0
3.92699 2.49433 0
3.53429 3.11968 0
3.92699 3.11968 0
3.14159 3.11968 0
3.53429 3.11968 0
3.14159 3.74504 0
3.53429 3.74504 0
3.53429 3.11968 0
3.92699 3.11968 0
3.53429 3.74504 0
3.92699 3.74504 0
3.92699 2.49433 0
4.31969 2.49433 0
3.92699 3.11968 0
4.31969 3.11968 0
4.31969 2.49433 0
4.71239 2.49433 0
4.31969 3.11968 0
4.71239 3.11968 0
3.92699 3.11968 0
4.31969 3.11968 0
3.92699 3.74504 0
4.31969 3.74504 0
4.31969 3.11968 0
4.71239 3.11968 0
4.31969 3.74504 0
4.71239 3.74504 0
3.14159 3.74504 0
3.53429 3.74504 0
3.14159 4.37038 0
3.53429 4.37038 0
3.53429 3.74504 0
3.92699 3.74504 0
3.53429 4.37038 0
3.92699 4.37038 0
3.14159 4.37038 0
3.53429 4.37038 0
3.14159 4.99569 0
3.53429 4.99569 0
3.53429 4.37038 0
3.92699 4.37038 0
3.53429 4.99569 0
3.92699 4.99569 0
3.92699 3.74504 0
4.31969 3.74504 0
3.92699 4.37038 0
4.31969 4.37038 0
4.31969 3.74504 0
4.71239 3.74504 0
4.31969 4.37038 0
4.71239 4.37038 0
3.92699 4.37038 0
4.31969 4.37038 0
3.92699 4.99569 0
4.31969 4.99569 0
4.31969 4.37038 0
4.71239 4.37038 0
4.31969 4.99569 0
4.71239 4.99569 0
4.71239 2.49433 0
5.10509 2.49433 0
4.71239 3.11968 0
5.10509 3.11968 0
5.10509 2.49433 0
5.49779 2.49433 0
5.10509 3.11968 0
5.49779 3.11968 0
4.71239 3.11968 0
5.10509 3.11968 0
4.71239 3.74504 0
5.10509 3.74504 0
5.10509 3.11968 0
5.49779 3.11968 0
5.10509 3.74504 0
5.49779 3.74504 0
5.49779 2.49433 0
5.89049 2.49433 0
5.49779 3.11968 0
5.89049 3.11968 0
5.89049 2.49433 0
6.28319 2.49433 0
5.89049 3.11968 0
6.28319 3.11968 0
5.49779 3.11968 0
5.89049 3.11968 0
5.49779 3.74504 0
5.89049 3.74504 0
5.89049 3.11968 0
6.28319 3.11968 0
5.89049 3.74504 0
6.28319 3.74504 0
4.71239 3.74504 0
5.10509 3.74504 0
4.71239 4.37038 0
5.10509 4.37038 0
5.10509 3.74504 0
5.49779 3.74504 0
5.10509 4.37038 0
5.49779 4.37038 0
4.71239 4.37038 0
5.10509 4.37038 0
4.71239 4.99569 0
5.10509 4.99569 0
5.10509 4.37038 0
5.49779 4.37038 0
5.10509 4.99569 0
5.49779 4.99569 0
5.49779 3.74504 0
5.89049 3.74504 0
5.49779 4.37038 0
5.89049 4.37038 0
5.89049 3.74504 0
6.28319 3.74504 0
5.89049 4.37038 0
6.28319 4.37038 0
5.49779 4.37038 0
5.89049 4.37038 0
5.49779 4.99569 0
5.89049 4.99569 0
5.89049 4.37038 0
6.28319 4.37038 0
5.89049 4.99569 0
6.28319 4.99569 0
0 4.99569 0
0.392699 4.99569 0
0 5.62098 0
0.392699 5.62098 0
0.392699 4.99569 0
0.785398 4.99569 0
0.392699 5.62098 0
0.785398 5.62098 0
0 5.62098 0
0.392699 5.62098 0
0 6.24625 0
0.392699 6.24625 0
0.392699 5.62098 0
0.785398 5.62098 0
0.392699 6.24625 0
0.785398 6.24625 0
0.785398 4.99569 0
1.1781 4.99569 0
0.785398 5.62098 0
1.1781 5.62098 0
1.1781 4.99569 0
1.5708 4.99569 0
1.1781 5.62098 0
1.5708 5.62098 0
0.785398 5.62098 0
1.1781 5.62098 0
0.785398 6.24625 0
1.1781 6.24625 0
1.1781 5.62098 0
1.5708 5.62098 0
1.1781 6.24625 0
1.5708 6.24625 0
0 6.24625 0
0.392699 6.24625 0
0 6.8715 0
0.392699 6.8715 0
0.392699 6.24625 0
0.785398 6.24625 0
0.392699 6.8715 0
0.785398 6.8715 0
0 6.8715 0
0.392699 6.8715 0
0 7.49674 0
0.392699 7.49674 0
0.392699 6.8715 0
0.785398 6.8715 0
0.392699 7.49674 0
0.785398 7.49674 0
0.785398 6.24625 0
1.1781 6.24625 0
0.785398 6.8715 0
[...]
POINT_DATA 5120
VECTORS uf double
0 1 0
-1.69983e-14 1 0
0 1.002 0
-1.28851e-14 1.002 0
-1.69983e-14 1 0
-3.96569e-15 1 0
-1.28851e-14 1.002 0
9.22761e-15 1.002 0
0 1.002 0
-4.95657e-15 1.002 0
0 1.00302 0
1.35356e-14 1.00302 0
-4.95657e-15 1.002 0
-6.4892e-15 1.002 0
1.35356e-14 1.00302 0
7.84139e-15 1.00302 0
-3.96569e-15 1 0
1.06442e-14 1 0
9.22761e-15 1.002 0
2.41371e-14 1.002 0
1.06442e-14 1 0
-1.12591e-14 1 0
2.41371e-14 1.002 0
1.11314e-14 1.002 0
-6.4892e-15 1.002 0
-2.97846e-14 1.002 0
7.84139e-15 1.00302 0
-3.08253e-15 1.00302 0
-2.97846e-14 1.002 0
-1.57377e-15 1.002 0
-3.08253e-15 1.00302 0
4.33739e-15 1.00302 0
0 1.00302 0
8.51617e-16 1.00302 0
0 1.00428 0
9.03589e-15 1.00428 0
8.51617e-16 1.00302 0
-1.34077e-14 1.00302 0
9.03589e-15 1.00428 0
5.46124e-15 1.00428 0
0 1.00428 0
-2.87338e-15 1.00428 0
0 1.00545 0
1.01227e-14 1.00545 0
-2.87338e-15 1.00428 0
-4.11384e-15 1.00428 0
1.01227e-14 1.00545 0
2.44738e-14 1.00545 0
-1.34077e-14 1.00302 0
-9.20706e-15 1.00302 0
5.46124e-15 1.00428 0
1.1164e-14 1.00428 0
-9.20706e-15 1.00302 0
-9.31377e-15 1.00302 0
1.1164e-14 1.00428 0
1.34353e-14 1.00428 0
-4.11384e-15 1.00428 0
-6.85479e-15 1.00428 0
2.44738e-14 1.00545 0
6.04776e-15 1.00545 0
-6.85479e-15 1.00428 0
-2.68825e-14 1.00428 0
6.04776e-15 1.00545 0
-2.80566e-15 1.00545 0
-1.12591e-14 1 0
-1.05574e-14 1 0
1.11314e-14 1.002 0
6.22519e-15 1.002 0
-1.05574e-14 1 0
-1.11983e-14 1 0
6.22519e-15 1.002 0
1.2878e-14 1.002 0
-1.57377e-15 1.002 0
7.89707e-16 1.002 0
4.33739e-15 1.00302 0
1.07715e-14 1.00302 0
7.89707e-16 1.002 0
-7.49106e-15 1.002 0
1.07715e-14 1.00302 0
1.18158e-14 1.00302 0
-1.11983e-14 1 0
-7.30887e-15 1 0
1.2878e-14 1.002 0
9.51132e-15 1.002 0
-7.30887e-15 1 0
-5.30282e-15 1 0
9.51132e-15 1.002 0
9.79474e-15 1.002 0
-7.49106e-15 1.002 0
-1.42564e-14 1.002 0
1.18158e-14 1.00302 0
2.19477e-14 1.00302 0
-1.42564e-14 1.002 0
-8.83249e-15 1.002 0
2.19477e-14 1.00302 0
1.17331e-14 1.00302 0
-9.31377e-15 1.00302 0
-6.41854e-15 1.00302 0
1.34353e-14 1.00428 0
9.00841e-15 1.00428 0
-6.41854e-15 1.00302 0
-4.6959e-15 1.00302 0
9.00841e-15 1.00428 0
8.97012e-15 1.00428 0
-2.68825e-14 1.00428 0
-1.42324e-14 1.00428 0
-2.80566e-15 1.00545 0
1.09192e-14 1.00545 0
-1.42324e-14 1.00428 0
-1.23413e-14 1.00428 0
1.09192e-14 1.00545 0
1.36137e-14 1.00545 0
-4.6959e-15 1.00302 0
-1.2288e-14 1.00302 0
8.97012e-15 1.00428 0
1.20571e-14 1.00428 0
-1.2288e-14 1.00302 0
-4.6051e-15 1.00302 0
1.20571e-14 1.00428 0
1.14785e-14 1.00428 0
-1.23413e-14 1.00428 0
-9.9915e-15 1.00428 0
1.36137e-14 1.00545 0
5.11435e-15 1.00545 0
-9.9915e-15 1.00428 0
-1.46376e-14 1.00428 0
5.11435e-15 1.00545 0
1.18932e-14 1.00545 0
0 1.00545 0
-4.2446e-15 1.00545 0
0 1.00662 0
-5.78346e-16 1.00662 0
-4.2446e-15 1.00545 0
-3.13475e-14 1.00545 0
-5.78346e-16 1.00662 0
-1.72765e-14 1.00662 0
0 1.00662 0
-2.5244e-15 1.00662 0
0 1.00776 0
8.91596e-16 1.00776 0
-2.5244e-15 1.00662 0
3.03021e-14 1.00662 0
8.91596e-16 1.00776 0
3.77864e-14 1.00776 0
-3.13475e-14 1.00545 0
-1.37133e-14 1.00545 0
-1.72765e-14 1.00662 0
9.3672e-15 1.00662 0
-1.37133e-14 1.00545 0
1.62059e-14 1.00545 0
9.3672e-15 1.00662 0
2.3053e-14 1.00662 0
3.03021e-14 1.00662 0
-8.19622e-15 1.00662 0
3.77864e-14 1.00776 0
2.36668e-14 1.00776 0
-8.19622e-15 1.00662 0
-3.56418e-14 1.00662 0
2.36668e-14 1.00776 0
-2.58278e-14 1.00776 0
0 1.00776 0
9.87864e-15 1.00776 0
0 1.0089 0
1.2978e-14 1.0089 0
9.87864e-15 1.00776 0
-4.15827e-14 1.00776 0
1.2978e-14 1.0089 0
-3.32446e-14 1.0089 0
0 1.0089 0
-6.20865e-15 1.0089 0
0 1.01002 0
1.02476e-15 1.01002 0
-6.20865e-15 1.0089 0
2.98394e-14 1.0089 0
1.02476e-15 1.01002 0
3.82678e-14 1.01002 0
-4.15827e-14 1.00776 0
-1.92192e-14 1.00776 0
-3.32446e-14 1.0089 0
-3.28946e-15 1.0089 0
-1.92192e-14 1.00776 0
3.69228e-14 1.00776 0
-3.28946e-15 1.0089 0
4.44701e-14 1.0089 0
2.98394e-14 1.0089 0
8.38758e-15 1.0089 0
3.82678e-14 1.01002 0
6.81402e-15 1.01002 0
8.38758e-15 1.0089 0
-2.88301e-14 1.0089 0
6.81402e-15 1.01002 0
-2.02297e-14 1.01002 0
1.62059e-14 1.00545 0
-1.1303e-14 1.00545 0
2.3053e-14 1.00662 0
1.01432e-14 1.00662 0
-1.1303e-14 1.00545 0
-1.35714e-14 1.00545 0
1.01432e-14 1.00662 0
1.04734e-14 1.00662 0
-3.56418e-14 1.00662 0
-1.8319e-14 1.00662 0
-2.58278e-14 1.00776 0
-6.29425e-15 1.00776 0
-1.8319e-14 1.00662 0
-6.00886e-15 1.00662 0
-6.29425e-15 1.00776 0
9.47697e-15 1.00776 0
-1.35714e-14 1.00545 0
-4.62203e-15 1.00545 0
1.04734e-14 1.00662 0
9.04899e-15 1.00662 0
-4.62203e-15 1.00545 0
-1.43333e-14 1.00545 0
9.04899e-15 1.00662 0
1.42594e-14 1.00662 0
-6.00886e-15 1.00662 0
-4.4354e-15 1.00662 0
9.47697e-15 1.00776 0
8.7642e-15 1.00776 0
-4.4354e-15 1.00662 0
-8.24479e-15 1.00662 0
8.7642e-15 1.00776 0
1.07891e-14 1.00776 0
3.69228e-14 1.00776 0
2.01583e-14 1.00776 0
4.44701e-14 1.0089 0
2.82919e-14 1.0089 0
2.01583e-14 1.00776 0
-1.16893e-14 1.00776 0
2.82919e-14 1.0089 0
1.4715e-14 1.0089 0
-2.88301e-14 1.0089 0
-1.7605e-14 1.0089 0
-2.02297e-14 1.01002 0
-9.17302e-16 1.01002 0
-1.7605e-14 1.0089 0
-9.39537e-15 1.0089 0
-9.17302e-16 1.01002 0
1.00999e-14 1.01002 0
-1.16893e-14 1.00776 0
-8.94124e-15 1.00776 0
1.4715e-14 1.0089 0
8.73432e-15 1.0089 0
-8.94124e-15 1.00776 0
-1.129e-14 1.00776 0
8.73432e-15 1.0089 0
9.41036e-15 1.0089 0
-9.39537e-15 1.0089 0
-7.42711e-15 1.0089 0
1.00999e-14 1.01002 0
7.12957e-15 1.01002 0
-7.42711e-15 1.0089 0
-1.09593e-14 1.0089 0
7.12957e-15 1.01002 0
1.30919e-14 1.01002 0
-5.30282e-15 1 0
-1.02228e-14 1 0
9.79474e-15 1.002 0
1.56416e-14 1.002 0
-1.02228e-14 1 0
-1.64269e-15 1 0
1.56416e-14 1.002 0
7.10752e-15 1.002 0
-8.83249e-15 1.002 0
-4.74037e-15 1.002 0
1.17331e-14 1.00302 0
1.10944e-14 1.00302 0
-4.74037e-15 1.002 0
-2.31917e-15 1.002 0
1.10944e-14 1.00302 0
5.41185e-15 1.00302 0
-1.64269e-15 1 0
-3.29201e-15 1 0
7.10752e-15 1.002 0
1.1212e-14 1.002 0
-3.29201e-15 1 0
-9.88182e-15 1 0
1.1212e-14 1.002 0
1.42011e-14 1.002 0
-2.31917e-15 1.002 0
-1.05686e-14 1.002 0
5.41185e-15 1.00302 0
1.26081e-14 1.00302 0
-1.05686e-14 1.002 0
-3.39022e-15 1.002 0
1.26081e-14 1.00302 0
1.2399e-14 1.00302 0
-4.6051e-15 1.00302 0
-6.40966e-15 1.00302 0
1.14785e-14 1.00428 0
1.23176e-14 1.00428 0
-6.40966e-15 1.00302 0
-3.02599e-15 1.00302 0
1.23176e-14 1.00428 0
5.59816e-15 1.00428 0
-1.46376e-14 1.00428 0
-1.50259e-14 1.00428 0
1.18932e-14 1.00545 0
1.49885e-14 1.00545 0
-1.50259e-14 1.00428 0
-1.03464e-14 1.00428 0
1.49885e-14 1.00545 0
1.13583e-14 1.00545 0
-3.02599e-15 1.00302 0
-2.88633e-15 1.00302 0
5.59816e-15 1.00428 0
5.56008e-15 1.00428 0
-2.88633e-15 1.00302 0
-7.34493e-15 1.00302 0
5.56008e-15 1.00428 0
9.88928e-15 1.00428 0
-1.03464e-14 1.00428 0
-1.02067e-14 1.00428 0
1.13583e-14 1.00545 0
8.90559e-15 1.00545 0
-1.02067e-14 1.00428 0
-1.22546e-14 1.00428 0
8.90559e-15 1.00545 0
1.83057e-14 1.00545 0
-9.88182e-15 1 0
-8.31162e-15 1 0
1.42011e-14 1.002 0
1.74527e-14 1.002 0
-8.31162e-15 1 0
-4.51889e-15 1 0
1.74527e-14 1.002 0
1.36336e-14 1.002 0
-3.39022e-15 1.002 0
-4.31775e-15 1.002 0
1.2399e-14 1.00302 0
7.33696e-15 1.00302 0
-4.31775e-15 1.002 0
-1.58505e-14 1.002 0
7.33696e-15 1.00302 0
2.21431e-14 1.00302 0
-4.51889e-15 1 0
-5.21931e-15 1 0
1.36336e-14 1.002 0
1.47151e-14 1.002 0
-5.21931e-15 1 0
4.82572e-15 1 0
1.47151e-14 1.002 0
5.26397e-15 1.002 0
-1.58505e-14 1.002 0
-8.70578e-15 1.002 0
2.21431e-14 1.00302 0
1.34144e-14 1.00302 0
-8.70578e-15 1.002 0
-2.69162e-15 1.002 0
1.34144e-14 1.00302 0
1.04777e-14 1.00302 0
-7.34493e-15 1.00302 0
-8.97947e-15 1.00302 0
9.88928e-15 1.00428 0
9.67014e-15 1.00428 0
-8.97947e-15 1.00302 0
-1.0543e-14 1.00302 0
9.67014e-15 1.00428 0
1.47094e-14 1.00428 0
-1.22546e-14 1.00428 0
-3.93917e-15 1.00428 0
1.83057e-14 1.00545 0
1.41157e-14 1.00545 0
-3.93917e-15 1.00428 0
-1.53823e-14 1.00428 0
1.41157e-14 1.00545 0
1.48831e-14 1.00545 0
-1.0543e-14 1.00302 0
-9.62648e-15 1.00302 0
1.47094e-14 1.00428 0
1.27188e-14 1.00428 0
-9.62648e-15 1.00302 0
-1.19936e-14 1.00302 0
1.27188e-14 1.00428 0
1.24996e-14 1.00428 0
-1.53823e-14 1.00428 0
-9.29076e-15 1.00428 0
1.48831e-14 1.00545 0
1.26466e-14 1.00545 0
-9.29076e-15 1.00428 0
-7.68615e-15 1.00428 0
1.26466e-14 1.00545 0
9.12872e-15 1.00545 0
-1.43333e-14 1.00545 0
-1.31843e-14 1.00545 0
1.42594e-14 1.00662 0
1.30214e-14 1.00662 0
-1.31843e-14 1.00545 0
-8.19156e-15 1.00545 0
1.30214e-14 1.00662 0
1.1131e-14 1.00662 0
-8.24479e-15 1.00662 0
-1.14095e-14 1.00662 0
1.07891e-14 1.00776 0
7.09401e-15 1.00776 0
-1.14095e-14 1.00662 0
-6.47844e-15 1.00662 0
7.09401e-15 1.00776 0
8.12336e-15 1.00776 0
-8.19156e-15 1.00545 0
-1.35775e-15 1.00545 0
1.1131e-14 1.00662 0
7.99767e-15 1.00662 0
-1.35775e-15 1.00545 0
-1.3572e-14 1.00545 0
7.99767e-15 1.00662 0
1.34338e-14 1.00662 0
-6.47844e-15 1.00662 0
-4.58087e-15 1.00662 0
8.12336e-15 1.00776 0
7.72624e-15 1.00776 0
-4.58087e-15 1.00662 0
-7.82735e-15 1.00662 0
7.72624e-15 1.00776 0
1.02783e-14 1.00776 0
-1.129e-14 1.00776 0
-3.50394e-16 1.00776 0
9.41036e-15 1.0089 0
6.66809e-15 1.0089 0
-3.50394e-16 1.00776 0
-7.19357e-15 1.00776 0
6.66809e-15 1.0089 0
1.04927e-14 1.0089 0
-1.09593e-14 1.0089 0
-5.59645e-15 1.0089 0
1.30919e-14 1.01002 0
1.253e-14 1.01002 0
-5.59645e-15 1.0089 0
-1.06861e-14 1.0089 0
1.253e-14 1.01002 0
1.17016e-14 1.01002 0
-7.19357e-15 1.00776 0
-1.37632e-14 1.00776 0
1.04927e-14 1.0089 0
1.13858e-14 1.0089 0
-1.37632e-14 1.00776 0
-8.53405e-15 1.00776 0
1.13858e-14 1.0089 0
8.97791e-15 1.0089 0
-1.06861e-14 1.0089 0
-3.73334e-15 1.0089 0
1.17016e-14 1.01002 0
4.90619e-15 1.01002 0
-3.73334e-15 1.0089 0
-5.26856e-15 1.0089 0
4.90619e-15 1.01002 0
6.88966e-15 1.01002 0
-1.3572e-14 1.00545 0
-7.78911e-15 1.00545 0
1.34338e-14 1.00662 0
4.79106e-15 1.00662 0
-7.78911e-15 1.00545 0
-4.15374e-15 1.00545 0
4.79106e-15 1.00662 0
6.89136e-15 1.00662 0
-7.82735e-15 1.00662 0
9.40518e-16 1.00662 0
1.02783e-14 1.00776 0
5.24014e-16 1.00776 0
9.40518e-16 1.00662 0
-2.52543e-15 1.00662 0
5.24014e-16 1.00776 0
1.21489e-15 1.00776 0
-4.15374e-15 1.00545 0
-3.04825e-15 1.00545 0
6.89136e-15 1.00662 0
9.01804e-15 1.00662 0
-3.04825e-15 1.00545 0
3.42453e-15 1.00545 0
9.01804e-15 1.00662 0
4.33187e-15 1.00662 0
-2.52543e-15 1.00662 0
-1.04494e-14 1.00662 0
1.21489e-15 1.00776 0
1.05821e-14 1.00776 0
-1.04494e-14 1.00662 0
-7.30395e-15 1.00662 0
1.05821e-14 1.00776 0
1.1768e-14 1.00776 0
-8.53405e-15 1.00776 0
-2.65972e-15 1.00776 0
8.97791e-15 1.0089 0
5.08443e-15 1.0089 0
-2.65972e-15 1.00776 0
-2.6991e-15 1.00776 0
5.08443e-15 1.0089 0
6.83749e-15 1.0089 0
-5.26856e-15 1.0089 0
-5.18044e-15 1.0089 0
6.88966e-15 1.01002 0
6.9053e-15 1.01002 0
-5.18044e-15 1.0089 0
-1.03548e-14 1.0089 0
6.9053e-15 1.01002 0
1.24833e-14 1.01002 0
-2.6991e-15 1.00776 0
-5.29642e-15 1.00776 0
6.83749e-15 1.0089 0
5.43447e-15 1.0089 0
-5.29642e-15 1.00776 0
-8.83642e-15 1.00776 0
5.43447e-15 1.0089 0
9.42739e-15 1.0089 0
-1.03548e-14 1.0089 0
-4.07251e-15 1.0089 0
1.24833e-14 1.01002 0
5.67028e-15 1.01002 0
-4.07251e-15 1.0089 0
-4.70748e-15 1.0089 0
5.67028e-15 1.01002 0
4.81807e-15 1.01002 0
0 1.01002 0
-5.80475e-15 1.01002 0
0 1.01113 0
8.26008e-15 1.01113 0
-5.80475e-15 1.01002 0
-2.51786e-14 1.01002 0
8.26008e-15 1.01113 0
-1.72073e-14 1.01113 0
0 1.01113 0
-9.21305e-15 1.01113 0
0 1.01225 0
-1.35912e-15 1.01225 0
-9.21305e-15 1.01113 0
6.52148e-15 1.01113 0
-1.35912e-15 1.01225 0
1.98471e-14 1.01225 0
-2.51786e-14 1.01002 0
1.73574e-15 1.01002 0
-1.72073e-14 1.01113 0
1.09699e-15 1.01113 0
1.73574e-15 1.01002 0
1.76197e-14 1.01002 0
1.09699e-15 1.01113 0
1.44204e-14 1.01113 0
6.52148e-15 1.01113 0
-1.00758e-14 1.01113 0
1.98471e-14 1.01225 0
1.88038e-15 1.01225 0
-1.00758e-14 1.01113 0
-3.06502e-15 1.01113 0
1.88038e-15 1.01225 0
1.01079e-14 1.01225 0
0 1.01225 0
-2.89658e-15 1.01225 0
0 1.01339 0
-3.08794e-16 1.01339 0
-2.89658e-15 1.01225 0
-1.1605e-14 1.01225 0
-3.08794e-16 1.01339 0
1.3123e-15 1.01339 0
0 1.01339 0
1.73531e-15 1.01339 0
0 1.01454 0
4.49881e-15 1.01454 0
1.73531e-15 1.01339 0
3.94812e-15 1.01339 0
4.49881e-15 1.01454 0
7.33039e-15 1.01454 0
-1.1605e-14 1.01225 0
-2.57764e-15 1.01225 0
1.3123e-15 1.01339 0
6.85093e-15 1.01339 0
-2.57764e-15 1.01225 0
-9.73576e-15 1.01225 0
6.85093e-15 1.01339 0
5.7618e-15 1.01339 0
3.94812e-15 1.01339 0
-6.48742e-15 1.01339 0
7.33039e-15 1.01454 0
4.50503e-15 1.01454 0
-6.48742e-15 1.01339 0
-4.48577e-15 1.01339 0
4.50503e-15 1.01454 0
3.829e-15 1.01454 0
1.76197e-14 1.01002 0
-1.36886e-14 1.01002 0
1.44204e-14 1.01113 0
4.36254e-15 1.01113 0
-1.36886e-14 1.01002 0
-8.67369e-15 1.01002 0
4.36254e-15 1.01113 0
6.98004e-15 1.01113 0
-3.06502e-15 1.01113 0
2.25409e-15 1.01113 0
1.01079e-14 1.01225 0
1.47055e-14 1.01225 0
2.25409e-15 1.01113 0
-4.36703e-15 1.01113 0
1.47055e-14 1.01225 0
9.4674e-15 1.01225 0
-8.67369e-15 1.01002 0
-7.01911e-15 1.01002 0
6.98004e-15 1.01113 0
7.92523e-15 1.01113 0
-7.01911e-15 1.01002 0
-1.00477e-14 1.01002 0
7.92523e-15 1.01113 0
1.25826e-14 1.01113 0
-4.36703e-15 1.01113 0
-7.40978e-15 1.01113 0
9.4674e-15 1.01225 0
1.14834e-14 1.01225 0
-7.40978e-15 1.01113 0
-1.37564e-14 1.01113 0
1.14834e-14 1.01225 0
1.27832e-14 1.01225 0
-9.73576e-15 1.01225 0
-7.09235e-15 1.01225 0
5.7618e-15 1.01339 0
7.62193e-15 1.01339 0
-7.09235e-15 1.01225 0
-9.22804e-15 1.01225 0
7.62193e-15 1.01339 0
9.80909e-15 1.01339 0
-4.48577e-15 1.01339 0
-9.4375e-15 1.01339 0
3.829e-15 1.01454 0
6.43381e-15 1.01454 0
-9.4375e-15 1.01339 0
-8.5958e-15 1.01339 0
6.43381e-15 1.01454 0
9.59327e-15 1.01454 0
-9.22804e-15 1.01225 0
-1.15522e-14 1.01225 0
9.80909e-15 1.01339 0
1.39953e-14 1.01339 0
-1.15522e-14 1.01225 0
-9.34881e-15 1.01225 0
1.39953e-14 1.01339 0
1.35217e-14 1.01339 0
-8.5958e-15 1.01339 0
-1.17877e-14 1.01339 0
9.59327e-15 1.01454 0
1.17463e-14 1.01454 0
-1.17877e-14 1.01339 0
-1.20615e-14 1.01339 0
1.17463e-14 1.01454 0
8.81751e-15 1.01454 0
0 1.01454 0
4.27247e-15 1.01454 0
0 1.01572 0
8.11817e-15 1.01572 0
4.27247e-15 1.01454 0
-3.0803e-15 1.01454 0
8.11817e-15 1.01572 0
-1.07998e-15 1.01572 0
0 1.01572 0
-6.69311e-15 1.01572 0
0 1.01686 0
-3.26404e-15 1.01686 0
-6.69311e-15 1.01572 0
3.72481e-15 1.01572 0
-3.26404e-15 1.01686 0
1.78211e-15 1.01686 0
-3.0803e-15 1.01454 0
-5.76171e-15 1.01454 0
-1.07998e-15 1.01572 0
3.57596e-15 1.01572 0
-5.76171e-15 1.01454 0
-6.72544e-15 1.01454 0
3.57596e-15 1.01572 0
2.64394e-15 1.01572 0
3.72481e-15 1.01572 0
-1.39129e-15 1.01572 0
1.78211e-15 1.01686 0
3.77977e-15 1.01686 0
-1.39129e-15 1.01572 0
-9.34196e-16 1.01572 0
3.77977e-15 1.01686 0
2.27912e-15 1.01686 0
0 1.01686 0
2.78038e-15 1.01686 0
0 1.01785 0
3.82648e-15 1.01785 0
2.78038e-15 1.01686 0
-7.36598e-15 1.01686 0
3.82648e-15 1.01785 0
-9.84857e-16 1.01785 0
0 1.01785 0
-1.54655e-15 1.01785 0
0 1.01819 0
-2.04383e-15 1.01819 0
-1.54655e-15 1.01785 0
-1.47416e-15 1.01785 0
-2.04383e-15 1.01819 0
6.60861e-15 1.01819 0
-7.36598e-15 1.01686 0
-1.83257e-15 1.01686 0
-9.84857e-16 1.01785 0
-1.96016e-17 1.01785 0
-1.83257e-15 1.01686 0
-2.8735e-15 1.01686 0
-1.96016e-17 1.01785 0
3.23182e-16 1.01785 0
-1.47416e-15 1.01785 0
-4.82743e-15 1.01785 0
6.60861e-15 1.01819 0
4.61944e-17 1.01819 0
-4.82743e-15 1.01785 0
-4.7128e-15 1.01785 0
4.61944e-17 1.01819 0
-8.43869e-16 1.01819 0
-6.72544e-15 1.01454 0
-8.40938e-15 1.01454 0
2.64394e-15 1.01572 0
1.12535e-14 1.01572 0
-8.40938e-15 1.01454 0
-6.72426e-15 1.01454 0
1.12535e-14 1.01572 0
7.40629e-15 1.01572 0
-9.34196e-16 1.01572 0
-5.82463e-15 1.01572 0
2.27912e-15 1.01686 0
1.40326e-15 1.01686 0
-5.82463e-15 1.01572 0
-6.79386e-15 1.01572 0
1.40326e-15 1.01686 0
4.08727e-15 1.01686 0
-6.72426e-15 1.01454 0
-7.87607e-15 1.01454 0
7.40629e-15 1.01572 0
4.70063e-15 1.01572 0
-7.87607e-15 1.01454 0
-5.49678e-15 1.01454 0
4.70063e-15 1.01572 0
5.35618e-15 1.01572 0
-6.79386e-15 1.01572 0
-6.30096e-15 1.01572 0
4.08727e-15 1.01686 0
4.03723e-15 1.01686 0
-6.30096e-15 1.01572 0
-3.86871e-15 1.01572 0
4.03723e-15 1.01686 0
2.382e-15 1.01686 0
-2.8735e-15 1.01686 0
-8.06205e-15 1.01686 0
3.23182e-16 1.01785 0
1.4628e-15 1.01785 0
-8.06205e-15 1.01686 0
-6.54199e-15 1.01686 0
1.4628e-15 1.01785 0
2.61383e-15 1.01785 0
-4.7128e-15 1.01785 0
-5.28953e-15 1.01785 0
-8.43869e-16 1.01819 0
4.11654e-15 1.01819 0
-5.28953e-15 1.01785 0
-5.49546e-15 1.01785 0
4.11654e-15 1.01819 0
4.5512e-15 1.01819 0
-6.54199e-15 1.01686 0
-4.47753e-15 1.01686 0
2.61383e-15 1.01785 0
8.27754e-16 1.01785 0
-4.47753e-15 1.01686 0
-4.98724e-15 1.01686 0
8.27754e-16 1.01785 0
4.33531e-15 1.01785 0
-5.49546e-15 1.01785 0
-1.98517e-15 1.01785 0
4.5512e-15 1.01819 0
6.52525e-16 1.01819 0
-1.98517e-15 1.01785 0
-2.74702e-15 1.01785 0
6.52525e-16 1.01819 0
-3.52104e-15 1.01819 0
-1.00477e-14 1.01002 0
-8.33795e-15 1.01002 0
1.25826e-14 1.01113 0
7.66816e-15 1.01113 0
-8.33795e-15 1.01002 0
-8.01449e-15 1.01002 0
7.66816e-15 1.01113 0
4.35759e-15 1.01113 0
-1.37564e-14 1.01113 0
-9.72388e-15 1.01113 0
1.27832e-14 1.01225 0
1.46649e-14 1.01225 0
-9.72388e-15 1.01113 0
-5.12398e-16 1.01113 0
1.46649e-14 1.01225 0
7.98792e-15 1.01225 0
-8.01449e-15 1.01002 0
-4.66306e-15 1.01002 0
4.35759e-15 1.01113 0
1.86057e-15 1.01113 0
-4.66306e-15 1.01002 0
-9.44962e-15 1.01002 0
1.86057e-15 1.01113 0
8.67443e-15 1.01113 0
-5.12398e-16 1.01113 0
-4.81449e-15 1.01113 0
7.98792e-15 1.01225 0
1.17799e-14 1.01225 0
-4.81449e-15 1.01113 0
-4.38453e-15 1.01113 0
1.17799e-14 1.01225 0
1.30207e-14 1.01225 0
-9.34881e-15 1.01225 0
-1.56075e-14 1.01225 0
1.35217e-14 1.01339 0
1.48947e-14 1.01339 0
-1.56075e-14 1.01225 0
-1.07943e-14 1.01225 0
1.48947e-14 1.01339 0
9.69494e-15 1.01339 0
-1.20615e-14 1.01339 0
-9.20068e-15 1.01339 0
8.81751e-15 1.01454 0
1.03011e-14 1.01454 0
-9.20068e-15 1.01339 0
-2.13701e-15 1.01339 0
1.03011e-14 1.01454 0
3.03401e-15 1.01454 0
-1.07943e-14 1.01225 0
-1.00836e-14 1.01225 0
9.69494e-15 1.01339 0
1.14433e-14 1.01339 0
-1.00836e-14 1.01225 0
-1.23483e-14 1.01225 0
1.14433e-14 1.01339 0
8.44334e-15 1.01339 0
-2.13701e-15 1.01339 0
-5.27539e-15 1.01339 0
3.03401e-15 1.01454 0
6.12642e-15 1.01454 0
-5.27539e-15 1.01339 0
-2.00468e-15 1.01339 0
6.12642e-15 1.01454 0
4.13144e-15 1.01454 0
-9.44962e-15 1.01002 0
-4.4087e-15 1.01002 0
8.67443e-15 1.01113 0
5.80477e-15 1.01113 0
-4.4087e-15 1.01002 0
-8.01173e-15 1.01002 0
5.80477e-15 1.01113 0
1.28305e-14 1.01113 0
-4.38453e-15 1.01113 0
-1.14541e-15 1.01113 0
1.30207e-14 1.01225 0
1.09249e-14 1.01225 0
-1.14541e-15 1.01113 0
-1.45789e-16 1.01113 0
1.09249e-14 1.01225 0
7.64385e-15 1.01225 0
-8.01173e-15 1.01002 0
-2.86488e-15 1.01002 0
1.28305e-14 1.01113 0
5.64655e-15 1.01113 0
-2.86488e-15 1.01002 0
1.70658e-15 1.01002 0
5.64655e-15 1.01113 0
-4.7224e-16 1.01113 0
-1.45789e-16 1.01113 0
-1.38419e-15 1.01113 0
7.64385e-15 1.01225 0
8.15358e-15 1.01225 0
-1.38419e-15 1.01113 0
-2.83508e-15 1.01113 0
8.15358e-15 1.01225 0
9.99083e-15 1.01225 0
-1.23483e-14 1.01225 0
-9.10805e-15 1.01225 0
8.44334e-15 1.01339 0
7.6312e-15 1.01339 0
-9.10805e-15 1.01225 0
-5.15396e-15 1.01225 0
7.6312e-15 1.01339 0
3.99575e-15 1.01339 0
-2.00468e-15 1.01339 0
-4.8567e-15 1.01339 0
4.13144e-15 1.01454 0
5.77594e-15 1.01454 0
-4.8567e-15 1.01339 0
-1.14905e-14 1.01339 0
5.77594e-15 1.01454 0
1.06172e-14 1.01454 0
-5.15396e-15 1.01225 0
-7.72015e-15 1.01225 0
3.99575e-15 1.01339 0
7.83869e-15 1.01339 0
-7.72015e-15 1.01225 0
-8.89785e-15 1.01225 0
7.83869e-15 1.01339 0
9.03299e-15 1.01339 0
-1.14905e-14 1.01339 0
-3.38602e-15 1.01339 0
1.06172e-14 1.01454 0
1.04857e-15 1.01454 0
-3.38602e-15 1.01339 0
-1.91009e-15 1.01339 0
1.04857e-15 1.01454 0
3.0346e-15 1.01454 0
-5.49678e-15 1.01454 0
-1.05885e-14 1.01454 0
5.35618e-15 1.01572 0
8.28717e-15 1.01572 0
-1.05885e-14 1.01454 0
-3.89516e-15 1.01454 0
8.28717e-15 1.01572 0
2.16171e-15 1.01572 0
-3.86871e-15 1.01572 0
-3.84752e-15 1.01572 0
2.382e-15 1.01686 0
2.96898e-15 1.01686 0
-3.84752e-15 1.01572 0
-2.73641e-15 1.01572 0
2.96898e-15 1.01686 0
3.7379e-15 1.01686 0
-3.89516e-15 1.01454 0
-3.11203e-15 1.01454 0
2.16171e-15 1.01572 0
2.00588e-15 1.01572 0
-3.11203e-15 1.01454 0
-6.90343e-15 1.01454 0
2.00588e-15 1.01572 0
5.54967e-15 1.01572 0
-2.73641e-15 1.01572 0
-4.43765e-15 1.01572 0
3.7379e-15 1.01686 0