# vtk DataFile Version 3.0
#This file was generated by the deal.II library on 2018/10/12 at 0:13:36
ASCII
DATASET UNSTRUCTURED_GRID

POINTS 5120 double
0 0 0
0.392699 0 0
0 0.614117 0
0.392699 0.614117 0
0.392699 0 0
0.785398 0 0
0.392699 0.614117 0
0.785398 0.614117 0
0 0.614117 0
0.392699 0.614117 0
0 1.23994 0
0.392699 1.23994 0
0.392699 0.614117 0
0.785398 0.614117 0
0.392699 1.23994 0
0.785398 1.23994 0
0.785398 0 0
1.1781 0 0
0.785398 0.614117 0
1.1781 0.614117 0
1.1781 0 0
1.5708 0 0
1.1781 0.614117 0
1.5708 0.614117 0
0.785398 0.614117 0
1.1781 0.614117 0
0.785398 1.23994 0
1.1781 1.23994 0
1.1781 0.614117 0
1.5708 0.614117 0
1.1781 1.23994 0
1.5708 1.23994 0
0 1.23994 0
0.392699 1.23994 0
0 1.86528 0
0.392699 1.86528 0
0.392699 1.23994 0
0.785398 1.23994 0
0.392699 1.86528 0
0.785398 1.86528 0
0 1.86528 0
0.392699 1.86528 0
0 2.49101 0
0.392699 2.49101 0
0.392699 1.86528 0
0.785398 1.86528 0
0.392699 2.49101 0
0.785398 2.49101 0
0.785398 1.23994 0
1.1781 1.23994 0
0.785398 1.86528 0
1.1781 1.86528 0
1.1781 1.23994 0
1.5708 1.23994 0
1.1781 1.86528 0
1.5708 1.86528 0
0.785398 1.86528 0
1.1781 1.86528 0
0.785398 2.49101 0
1.1781 2.49101 0
1.1781 1.86528 0
1.5708 1.86528 0
1.1781 2.49101 0
1.5708 2.49101 0
1.5708 0 0
1.9635 0 0
1.5708 0.614117 0
1.9635 0.614117 0
1.9635 0 0
2.35619 0 0
1.9635 0.614117 0
2.35619 0.614117 0
1.5708 0.614117 0
1.9635 0.614117 0
1.5708 1.23994 0
1.9635 1.23994 0
1.9635 0.614117 0
2.35619 0.614117 0
1.9635 1.23994 0
2.35619 1.23994 0
2.35619 0 0
2.74889 0 0
2.35619 0.614117 0
2.74889 0.614117 0
2.74889 0 0
3.14159 0 0
2.74889 0.614117 0
3.14159 0.614117 0
2.35619 0.614117 0
2.74889 0.614117 0
2.35619 1.23994 0
2.74889 1.23994 0
2.74889 0.614117 0
3.14159 0.614117 0
2.74889 1.23994 0
3.14159 1.23994 0
1.5708 1.23994 0
1.9635 1.23994 0
1.5708 1.86528 0
1.9635 1.86528 0
1.9635 1.23994 0
2.35619 1.23994 0
1.9635 1.86528 0
2.35619 1.86528 0
1.5708 1.86528 0
1.9635 1.86528 0
1.5708 2.49101 0
1.9635 2.49101 0
1.9635 1.86528 0
2.35619 1.86528 0
1.9635 2.49101 0
2.35619 2.49101 0
2.35619 1.23994 0
2.74889 1.23994 0
2.35619 1.86528 0
2.74889 1.86528 0
2.74889 1.23994 0
3.14159 1.23994 0
2.74889 1.86528 0
3.14159 1.86528 0
2.35619 1.86528 0
2.74889 1.86528 0
2.35619 2.49101 0
2.74889 2.49101 0
2.74889 1.86528 0
3.14159 1.86528 0
2.74889 2.49101 0
3.14159 2.49101 0
0 2.49101 0
0.392699 2.49101 0
0 3.11663 0
0.392699 3.11663 0
0.392699 2.49101 0
0.785398 2.49101 0
0.392699 3.11663 0
0.785398 3.11663 0
0 3.11663 0
0.392699 3.11663 0
0 3.74225 0
0.392699 3.74225 0
0.392699 3.11663 0
0.785398 3.11663 0
0.392699 3.74225 0
0.785398 3.74225 0
0.785398 2.49101 0
1.1781 2.49101 0
0.785398 3.11663 0
1.1781 3.11663 0
1.1781 2.49101 0
1.5708 2.49101 0
1.1781 3.11663 0
1.5708 3.11663 0
0.785398 3.11663 0
1.1781 3.11663 0
0.785398 3.74225 0
1.1781 3.74225 0
1.1781 3.11663 0
1.5708 3.11663 0
1.1781 3.74225 0
1.5708 3.74225 0
0 3.74225 0
0.392699 3.74225 0
0 4.36784 0
0.392699 4.36784 0
0.392699 3.74225 0
0.785398 3.74225 0
0.392699 4.36784 0
0.785398 4.36784 0
0 4.36784 0
0.392699 4.36784 0
0 4.9934 0
0.392699 4.9934 0
0.392699 4.36784 0
0.785398 4.36784 0
0.392699 4.9934 0
0.785398 4.9934 0
0.785398 3.74225 0
1.1781 3.74225 0
0.785398 4.36784 0
1.1781 4.36784 0
1.1781 3.74225 0
1.5708 3.74225 0
1.1781 4.36784 0
1.5708 4.36784 0
0.785398 4.36784 0
1.1781 4.36784 0
0.785398 4.9934 0
1.1781 4.9934 0
1.1781 4.36784 0
1.5708 4.36784 0
1.1781 4.9934 0
1.5708 4.9934 0
1.5708 2.49101 0
1.9635 2.49101 0
1.5708 3.11663 0
1.9635 3.11663 0
1.9635 2.49101 0
2.35619 2.49101 0
1.9635 3.11663 0
2.35619 3.11663 0
1.5708 3.11663 0
1.9635 3.11663 0
1.5708 3.74225 0
1.9635 3.74225 0
1.9635 3.11663 0
2.35619 3.11663 0
1.9635 3.74225 0
2.35619 3.74225 0
2.35619 2.49101 0
2.74889 2.49101 0
2.35619 3.11663 0
2.74889 3.11663 0
2.74889 2.49101 0
3.14159 2.49101 0
2.74889 3.11663 0
3.14159 3.11663 0
2.35619 3.11663 0
2.74889 3.11663 0
2.35619 3.74225 0
2.74889 3.74225 0
2.74889 3.11663 0
3.14159 3.11663 0
2.74889 3.74225 0
3.14159 3.74225 0
1.5708 3.74225 0
1.9635 3.74225 0
1.5708 4.36784 0
1.9635 4.36784 0
1.9635 3.74225 0
2.35619 3.74225 0
1.9635 4.36784 0
2.35619 4.36784 0
1.5708 4.36784 0
1.9635 4.36784 0
1.5708 4.9934 0
1.9635 4.9934 0
1.9635 4.36784 0
2.35619 4.36784 0
1.9635 4.9934 0
2.35619 4.9934 0
2.35619 3.74225 0
2.74889 3.74225 0
2.35619 4.36784 0
2.74889 4.36784 0
2.74889 3.74225 0
3.14159 3.74225 0
2.74889 4.36784 0
3.14159 4.36784 0
2.35619 4.36784 0
2.74889 4.36784 0
2.35619 4.9934 0
2.74889 4.9934 0
2.74889 4.36784 0
3.14159 4.36784 0
2.74889 4.9934 0
3.14159 4.9934 0
3.14159 0 0
3.53429 0 0
3.14159 0.614117 0
3.53429 0.614117 0
3.53429 0 0
3.92699 0 0
3.53429 0.614117 0
3.92699 0.614117 0
3.14159 0.614117 0
3.53429 0.614117 0
3.14159 1.23994 0
3.53429 1.23994 0
3.53429 0.614117 0
3.92699 0.614117 0
3.53429 1.23994 0
3.92699 1.23994 0
3.92699 0 0
4.31969 0 0
3.92699 0.614117 0
4.31969 0.614117 0
4.31969 0 0
4.71239 0 0
4.31969 0.614117 0
4.71239 0.614117 0
3.92699 0.614117 0
4.31969 0.614117 0
3.92699 1.23994 0
4.31969 1.23994 0
4.31969 0.614117 0
4.71239 0.614117 0
4.31969 1.23994 0
4.71239 1.23994 0
3.14159 1.23994 0
3.53429 1.23994 0
3.14159 1.86528 0
3.53429 1.86528 0
3.53429 1.23994 0
3.92699 1.23994 0
3.53429 1.86528 0
3.92699 1.86528 0
3.14159 1.86528 0
3.53429 1.86528 0
3.14159 2.49101 0
3.53429 2.49101 0
3.53429 1.86528 0
3.92699 1.86528 0
3.53429 2.49101 0
3.92699 2.49101 0
3.92699 1.23994 0
4.31969 1.23994 0
3.92699 1.86528 0
4.31969 1.86528 0
4.31969 1.23994 0
4.71239 1.23994 0
4.31969 1.86528 0
4.71239 1.86528 0
3.92699 1.86528 0
4.31969 1.86528 0
3.92699 2.49101 0
4.31969 2.49101 0
4.31969 1.86528 0
4.71239 1.86528 0
4.31969 2.49101 0
4.71239 2.49101 0
4.71239 0 0
5.10509 0 0
4.71239 0.614117 0
5.10509 0.614117 0
5.10509 0 0
5.49779 0 0
5.10509 0.614117 0
5.49779 0.614117 0
4.71239 0.614117 0
5.10509 0.614117 0
4.71239 1.23994 0
5.10509 1.23994 0
5.10509 0.614117 0
5.49779 0.614117 0
5.10509 1.23994 0
5.49779 1.23994 0
5.49779 0 0
5.89049 0 0
5.49779 0.614117 0
5.89049 0.614117 0
5.89049 0 0
6.28319 0 0
5.89049 0.614117 0
6.28319 0.614117 0
5.49779 0.614117 0
5.89049 0.614117 0
5.49779 1.23994 0
5.89049 1.23994 0
5.89049 0.614117 0
6.28319 0.614117 0
5.89049 1.23994 0
6.28319 1.23994 0
4.71239 1.23994 0
5.10509 1.23994 0
4.71239 1.86528 0
5.10509 1.86528 0
5.10509 1.23994 0
5.49779 1.23994 0
5.10509 1.86528 0
5.49779 1.86528 0
4.71239 1.86528 0
5.10509 1.86528 0
4.71239 2.49101 0
5.10509 2.49101 0
5.10509 1.86528 0
5.49779 1.86528 0
5.10509 2.49101 0
5.49779 2.49101 0
5.49779 1.23994 0
5.89049 1.23994 0
5.49779 1.86528 0
5.89049 1.86528 0
5.89049 1.23994 0
6.28319 1.23994 0
5.89049 1.86528 0
6.28319 1.86528 0
5.49779 1.86528 0
5.89049 1.86528 0
5.49779 2.49101 0
5.89049 2.49101 0
5.89049 1.86528 0
6.28319 1.86528 0
5.89049 2.49101 0
6.28319 2.49101 0
3.14159 2.49101 0
3.53429 2.49101 0
3.14159 3.11663 0
3.53429 3.11663 0
3.53429 2.49101 0
3.92699 2.49101 0
3.53429 3.11663 0
3.92699 3.11663 0
3.14159 3.11663 0
3.53429 3.11663 0
3.14159 3.74225 0
3.53429 3.74225 0
3.53429 3.11663 0
3.92699 3.11663 0
3.53429 3.74225 0
3.92699 3.74225 0
3.92699 2.49101 0
4.31969 2.49101 0
3.92699 3.11663 0
4.31969 3.11663 0
4.31969 2.49101 0
4.71239 2.49101 0
4.31969 3.11663 0
4.71239 3.11663 0
3.92699 3.11663 0
4.31969 3.11663 0
3.92699 3.74225 0
4.31969 3.74225 0
4.31969 3.11663 0
4.71239 3.11663 0
4.31969 3.74225 0
4.71239 3.74225 0
3.14159 3.74225 0
3.53429 3.74225 0
3.14159 4.36784 0
3.53429 4.36784 0
3.53429 3.74225 0
3.92699 3.74225 0
3.53429 4.36784 0
3.92699 4.36784 0
3.14159 4.36784 0
3.53429 4.36784 0
3.14159 4.9934 0
3.53429 4.9934 0
3.53429 4.36784 0
3.92699 4.36784 0
3.53429 4.9934 0
3.92699 4.9934 0
3.92699 3.74225 0
4.31969 3.74225 0
3.92699 4.36784 0
4.31969 4.36784 0
4.31969 3.74225 0
4.71239 3.74225 0
4.31969 4.36784 0
4.71239 4.36784 0
3.92699 4.36784 0
4.31969 4.36784 0
3.92699 4.9934 0
4.31969 4.9934 0
4.31969 4.36784 0
4.71239 4.36784 0
4.31969 4.9934 0
4.71239 4.9934 0
4.71239 2.49101 0
5.10509 2.49101 0
4.71239 3.11663 0
5.10509 3.11663 0
5.10509 2.49101 0
5.49779 2.49101 0
5.10509 3.11663 0
5.49779 3.11663 0
4.71239 3.11663 0
5.10509 3.11663 0
4.71239 3.74225 0
5.10509 3.74225 0
5.10509 3.11663 0
5.49779 3.11663 0
5.10509 3.74225 0
5.49779 3.74225 0
5.49779 2.49101 0
5.89049 2.49101 0
5.49779 3.11663 0
5.89049 3.11663 0
5.89049 2.49101 0
6.28319 2.49101 0
5.89049 3.11663 0
6.28319 3.11663 0
5.49779 3.11663 0
5.89049 3.11663 0
5.49779 3.74225 0
5.89049 3.74225 0
5.89049 3.11663 0
6.28319 3.11663 0
5.89049 3.74225 0
6.28319 3.74225 0
4.71239 3.74225 0
5.10509 3.74225 0
4.71239 4.36784 0
5.10509 4.36784 0
5.10509 3.74225 0
5.49779 3.74225 0
5.10509 4.36784 0
5.49779 4.36784 0
4.71239 4.36784 0
5.10509 4.36784 0
4.71239 4.9934 0
5.10509 4.9934 0
5.10509 4.36784 0
5.49779 4.36784 0
5.10509 4.9934 0
5.49779 4.9934 0
5.49779 3.74225 0
5.89049 3.74225 0
5.49779 4.36784 0
5.89049 4.36784 0
5.89049 3.74225 0
6.28319 3.74225 0
5.89049 4.36784 0
6.28319 4.36784 0
5.49779 4.36784 0
5.89049 4.36784 0
5.49779 4.9934 0
5.89049 4.9934 0
5.89049 4.36784 0
6.28319 4.36784 0
5.89049 4.9934 0
6.28319 4.9934 0
0 4.9934 0
0.392699 4.9934 0
0 5.61893 0
0.392699 5.61893 0
0.392699 4.9934 0
0.785398 4.9934 0
0.392699 5.61893 0
0.785398 5.61893 0
0 5.61893 0
0.392699 5.61893 0
0 6.24441 0
0.392699 6.24441 0
0.392699 5.61893 0
0.785398 5.61893 0
0.392699 6.24441 0
0.785398 6.24441 0
0.785398 4.9934 0
1.1781 4.9934 0
0.785398 5.61893 0
1.1781 5.61893 0
1.1781 4.9934 0
1.5708 4.9934 0
1.1781 5.61893 0
1.5708 5.61893 0
0.785398 5.61893 0
1.1781 5.61893 0
0.785398 6.24441 0
1.1781 6.24441 0
1.1781 5.61893 0
1.5708 5.61893 0
1.1781 6.24441 0
1.5708 6.24441 0
0 6.24441 0
0.392699 6.24441 0
0 6.86988 0
0.392699 6.86988 0
0.392699 6.24441 0
0.785398 6.24441 0
0.392699 6.86988 0
0.785398 6.86988 0
0 6.86988 0
0.392699 6.86988 0
0 7.49534 0
0.392699 7.49534 0
0.392699 6.86988 0
0.785398 6.86988 0
0.392699 7.49534 0
0.785398 7.49534 0
0.785398 6.24441 0
1.1781 6.24441 0
0.785398 6.86988 0
1.1781 6.86988 0
1.1781 6.24441 0
[...]
POINT_DATA 5120
VECTORS uf double
0 1 0
-3.17286e-14 1 0
0 1.00217 0
-2.18844e-14 1.00217 0
-3.17286e-14 1 0
-9.39184e-15 1 0
-2.18844e-14 1.00217 0
-8.96048e-15 1.00217 0
0 1.00217 0
-4.96069e-15 1.00217 0
0 1.00328 0
4.28133e-15 1.00328 0
-4.96069e-15 1.00217 0
1.63036e-14 1.00217 0
4.28133e-15 1.00328 0
1.48966e-14 1.00328 0
-9.39184e-15 1 0
4.87784e-14 1 0
-8.96048e-15 1.00217 0
4.7225e-14 1.00217 0
4.87784e-14 1 0
-3.58791e-15 1 0
4.7225e-14 1.00217 0
3.89419e-15 1.00217 0
1.63036e-14 1.00217 0
-5.21227e-14 1.00217 0
1.48966e-14 1.00328 0
-4.25599e-14 1.00328 0
-5.21227e-14 1.00217 0
-3.83764e-15 1.00217 0
-4.25599e-14 1.00328 0
6.68977e-15 1.00328 0
0 1.00328 0
1.33688e-14 1.00328 0
0 1.00463 0
9.25692e-15 1.00463 0
1.33688e-14 1.00328 0
-7.57352e-15 1.00328 0
9.25692e-15 1.00463 0
-1.71703e-14 1.00463 0
0 1.00463 0
1.75013e-14 1.00463 0
0 1.00589 0
1.91369e-14 1.00589 0
1.75013e-14 1.00463 0
2.91288e-14 1.00463 0
1.91369e-14 1.00589 0
2.69212e-14 1.00589 0
-7.57352e-15 1.00328 0
-9.26204e-15 1.00328 0
-1.71703e-14 1.00463 0
8.53897e-15 1.00463 0
-9.26204e-15 1.00328 0
-9.72811e-15 1.00328 0
8.53897e-15 1.00463 0
5.50022e-15 1.00463 0
2.91288e-14 1.00463 0
-3.36257e-15 1.00463 0
2.69212e-14 1.00589 0
1.14479e-14 1.00589 0
-3.36257e-15 1.00463 0
-2.32462e-14 1.00463 0
1.14479e-14 1.00589 0
-2.54307e-14 1.00589 0
-3.58791e-15 1 0
-2.00541e-14 1 0
3.89419e-15 1.00217 0
-1.13935e-14 1.00217 0
-2.00541e-14 1 0
-8.66954e-15 1 0
-1.13935e-14 1.00217 0
4.96285e-15 1.00217 0
-3.83764e-15 1.00217 0
1.51644e-14 1.00217 0
6.68977e-15 1.00328 0
1.97396e-14 1.00328 0
1.51644e-14 1.00217 0
-2.75189e-15 1.00217 0
1.97396e-14 1.00328 0
4.24589e-15 1.00328 0
-8.66954e-15 1 0
-3.34669e-15 1 0
4.96285e-15 1.00217 0
-6.74338e-17 1.00217 0
-3.34669e-15 1 0
-3.74934e-15 1 0
-6.74338e-17 1.00217 0
4.24254e-15 1.00217 0
-2.75189e-15 1.00217 0
-8.72888e-15 1.00217 0
4.24589e-15 1.00328 0
9.86564e-15 1.00328 0
-8.72888e-15 1.00217 0
-4.82047e-15 1.00217 0
9.86564e-15 1.00328 0
3.54836e-15 1.00328 0
-9.72811e-15 1.00328 0
2.02321e-15 1.00328 0
5.50022e-15 1.00463 0
7.75422e-15 1.00463 0
2.02321e-15 1.00328 0
4.02457e-15 1.00328 0
7.75422e-15 1.00463 0
5.131e-15 1.00463 0
-2.32462e-14 1.00463 0
-2.27925e-15 1.00463 0
-2.54307e-14 1.00589 0
1.37629e-15 1.00589 0
-2.27925e-15 1.00463 0
-4.22097e-15 1.00463 0
1.37629e-15 1.00589 0
7.03238e-15 1.00589 0
4.02457e-15 1.00328 0
-2.80399e-15 1.00328 0
5.131e-15 1.00463 0
9.80468e-15 1.00463 0
-2.80399e-15 1.00328 0
-1.26489e-15 1.00328 0
9.80468e-15 1.00463 0
9.99262e-15 1.00463 0
-4.22097e-15 1.00463 0
-9.66487e-16 1.00463 0
7.03238e-15 1.00589 0
4.99272e-15 1.00589 0
-9.66487e-16 1.00463 0
-4.58413e-15 1.00463 0
4.99272e-15 1.00589 0
4.44388e-15 1.00589 0
0 1.00589 0
-7.2487e-15 1.00589 0
0 1.00715 0
-1.75412e-14 1.00715 0
-7.2487e-15 1.00589 0
-4.19821e-14 1.00589 0
-1.75412e-14 1.00715 0
-3.13748e-14 1.00715 0
0 1.00715 0
1.38365e-14 1.00715 0
0 1.00838 0
9.17743e-15 1.00838 0
1.38365e-14 1.00715 0
5.5472e-14 1.00715 0
9.17743e-15 1.00838 0
6.51543e-14 1.00838 0
-4.19821e-14 1.00589 0
-1.16338e-14 1.00589 0
-3.13748e-14 1.00715 0
-1.22885e-15 1.00715 0
-1.16338e-14 1.00589 0
4.56649e-14 1.00589 0
-1.22885e-15 1.00715 0
3.98023e-14 1.00715 0
5.5472e-14 1.00715 0
3.4759e-15 1.00715 0
6.51543e-14 1.00838 0
1.27376e-14 1.00838 0
3.4759e-15 1.00715 0
-4.4105e-14 1.00715 0
1.27376e-14 1.00838 0
-2.94151e-14 1.00838 0
0 1.00838 0
8.33477e-15 1.00838 0
0 1.00959 0
8.89845e-15 1.00959 0
8.33477e-15 1.00838 0
-8.28981e-14 1.00838 0
8.89845e-15 1.00959 0
-8.01595e-14 1.00959 0
0 1.00959 0
-3.81982e-15 1.00959 0
0 1.0108 0
-4.15414e-15 1.0108 0
-3.81982e-15 1.00959 0
6.45682e-14 1.00959 0
-4.15414e-15 1.0108 0
7.04683e-14 1.0108 0
-8.28981e-14 1.00838 0
-1.53374e-14 1.00838 0
-8.01595e-14 1.00959 0
-2.61279e-15 1.00959 0
-1.53374e-14 1.00838 0
4.87124e-14 1.00838 0
-2.61279e-15 1.00959 0
5.8041e-14 1.00959 0
6.45682e-14 1.00959 0
4.95741e-15 1.00959 0
7.04683e-14 1.0108 0
1.29798e-14 1.0108 0
4.95741e-15 1.00959 0
-6.49185e-14 1.00959 0
1.29798e-14 1.0108 0
-5.54974e-14 1.0108 0
4.56649e-14 1.00589 0
-1.27159e-14 1.00589 0
3.98023e-14 1.00715 0
-3.06132e-15 1.00715 0
-1.27159e-14 1.00589 0
-1.23775e-14 1.00589 0
-3.06132e-15 1.00715 0
1.07856e-14 1.00715 0
-4.4105e-14 1.00715 0
-6.861e-15 1.00715 0
-2.94151e-14 1.00838 0
-3.28171e-15 1.00838 0
-6.861e-15 1.00715 0
-1.22752e-14 1.00715 0
-3.28171e-15 1.00838 0
8.68175e-15 1.00838 0
-1.23775e-14 1.00589 0
-8.82653e-15 1.00589 0
1.07856e-14 1.00715 0
6.90452e-15 1.00715 0
-8.82653e-15 1.00589 0
-1.19925e-14 1.00589 0
6.90452e-15 1.00715 0
1.45002e-14 1.00715 0
-1.22752e-14 1.00715 0
-5.3553e-15 1.00715 0
8.68175e-15 1.00838 0
5.14479e-15 1.00838 0
-5.3553e-15 1.00715 0
-1.1353e-14 1.00715 0
5.14479e-15 1.00838 0
1.28338e-14 1.00838 0
4.87124e-14 1.00838 0
1.99853e-14 1.00838 0
5.8041e-14 1.00959 0
3.20911e-14 1.00959 0
1.99853e-14 1.00838 0
-6.34524e-15 1.00838 0
3.20911e-14 1.00959 0
8.29795e-15 1.00959 0
-6.49185e-14 1.00959 0
-2.35042e-14 1.00959 0
-5.54974e-14 1.0108 0
-7.21622e-15 1.0108 0
-2.35042e-14 1.00959 0
-1.62626e-15 1.00959 0
-7.21622e-15 1.0108 0
4.94297e-15 1.0108 0
-6.34524e-15 1.00838 0
-1.2266e-15 1.00838 0
8.29795e-15 1.00959 0
5.8596e-15 1.00959 0
-1.2266e-15 1.00838 0
-3.85335e-15 1.00838 0
5.8596e-15 1.00959 0
7.39093e-15 1.00959 0
-1.62626e-15 1.00959 0
-8.52382e-15 1.00959 0
4.94297e-15 1.0108 0
7.26967e-15 1.0108 0
-8.52382e-15 1.00959 0
-6.93974e-15 1.00959 0
7.26967e-15 1.0108 0
8.0341e-15 1.0108 0
-3.74934e-15 1 0
-8.95366e-15 1 0
4.24254e-15 1.00217 0
9.57583e-15 1.00217 0
-8.95366e-15 1 0
-2.99106e-15 1 0
9.57583e-15 1.00217 0
5.21154e-15 1.00217 0
-4.82047e-15 1.00217 0
2.5383e-15 1.00217 0
3.54836e-15 1.00328 0
3.03421e-15 1.00328 0
2.5383e-15 1.00217 0
-2.07743e-15 1.00217 0
3.03421e-15 1.00328 0
3.90762e-15 1.00328 0
-2.99106e-15 1 0
-9.00185e-17 1 0
5.21154e-15 1.00217 0
1.25741e-15 1.00217 0
-9.00185e-17 1 0
-7.95541e-15 1 0
1.25741e-15 1.00217 0
1.37769e-14 1.00217 0
-2.07743e-15 1.00217 0
-6.00066e-15 1.00217 0
3.90762e-15 1.00328 0
8.5744e-15 1.00328 0
-6.00066e-15 1.00217 0
-4.61231e-15 1.00217 0
8.5744e-15 1.00328 0
8.19222e-16 1.00328 0
-1.26489e-15 1.00328 0
-4.30275e-15 1.00328 0
9.99262e-15 1.00463 0
6.34988e-15 1.00463 0
-4.30275e-15 1.00328 0
-4.62102e-15 1.00328 0
6.34988e-15 1.00463 0
9.3996e-15 1.00463 0
-4.58413e-15 1.00463 0
-6.56831e-15 1.00463 0
4.44388e-15 1.00589 0
7.28596e-15 1.00589 0
-6.56831e-15 1.00463 0
-5.49177e-15 1.00463 0
7.28596e-15 1.00589 0
2.5022e-15 1.00589 0
-4.62102e-15 1.00328 0
7.14449e-15 1.00328 0
9.3996e-15 1.00463 0
-1.55154e-15 1.00463 0
7.14449e-15 1.00328 0
6.54627e-16 1.00328 0
-1.55154e-15 1.00463 0
1.03458e-14 1.00463 0
-5.49177e-15 1.00463 0
-1.0459e-14 1.00463 0
2.5022e-15 1.00589 0
9.20504e-15 1.00589 0
-1.0459e-14 1.00463 0
-7.17346e-15 1.00463 0
9.20504e-15 1.00589 0
1.37742e-14 1.00589 0
-7.95541e-15 1 0
-2.42206e-15 1 0
1.37769e-14 1.00217 0
1.03299e-14 1.00217 0
-2.42206e-15 1 0
-2.34343e-15 1 0
1.03299e-14 1.00217 0
9.60217e-15 1.00217 0
-4.61231e-15 1.00217 0
-6.84074e-15 1.00217 0
8.19222e-16 1.00328 0
6.73028e-15 1.00328 0
-6.84074e-15 1.00217 0
-9.26353e-15 1.00217 0
6.73028e-15 1.00328 0
9.49486e-15 1.00328 0
-2.34343e-15 1 0
-2.21501e-15 1 0
9.60217e-15 1.00217 0
7.3201e-15 1.00217 0
-2.21501e-15 1 0
1.72773e-15 1 0
7.3201e-15 1.00217 0
8.86943e-15 1.00217 0
-9.26353e-15 1.00217 0
1.27109e-15 1.00217 0
9.49486e-15 1.00328 0
4.75761e-15 1.00328 0
1.27109e-15 1.00217 0
-5.31664e-15 1.00217 0
4.75761e-15 1.00328 0
4.00648e-15 1.00328 0
6.54627e-16 1.00328 0
-1.23804e-14 1.00328 0
1.03458e-14 1.00463 0
1.3653e-14 1.00463 0
-1.23804e-14 1.00328 0
1.09907e-15 1.00328 0
1.3653e-14 1.00463 0
8.63632e-15 1.00463 0
-7.17346e-15 1.00463 0
4.30868e-15 1.00463 0
1.37742e-14 1.00589 0
-1.14922e-15 1.00589 0
4.30868e-15 1.00463 0
-1.24139e-14 1.00463 0
-1.14922e-15 1.00589 0
1.00526e-14 1.00589 0
1.09907e-15 1.00328 0
-7.34755e-15 1.00328 0
8.63632e-15 1.00463 0
9.21613e-15 1.00463 0
-7.34755e-15 1.00328 0
-7.11713e-15 1.00328 0
9.21613e-15 1.00463 0
9.61789e-15 1.00463 0
-1.24139e-14 1.00463 0
1.93441e-16 1.00463 0
1.00526e-14 1.00589 0
9.23985e-15 1.00589 0
1.93441e-16 1.00463 0
-5.39997e-15 1.00463 0
9.23985e-15 1.00589 0
8.65957e-15 1.00589 0
-1.19925e-14 1.00589 0
-1.02247e-16 1.00589 0
1.45002e-14 1.00715 0
2.54878e-15 1.00715 0
-1.02247e-16 1.00589 0
-4.14739e-15 1.00589 0
2.54878e-15 1.00715 0
3.0858e-15 1.00715 0
-1.1353e-14 1.00715 0
-6.58769e-15 1.00715 0
1.28338e-14 1.00838 0
9.2697e-16 1.00838 0
-6.58769e-15 1.00715 0
1.16447e-15 1.00715 0
9.2697e-16 1.00838 0
4.84459e-15 1.00838 0
-4.14739e-15 1.00589 0
-5.20224e-15 1.00589 0
3.0858e-15 1.00715 0
8.17155e-15 1.00715 0
-5.20224e-15 1.00589 0
-1.38578e-14 1.00589 0
8.17155e-15 1.00715 0
1.26411e-14 1.00715 0
1.16447e-15 1.00715 0
-6.52143e-15 1.00715 0
4.84459e-15 1.00838 0
4.85825e-15 1.00838 0
-6.52143e-15 1.00715 0
-7.8342e-15 1.00715 0
4.85825e-15 1.00838 0
1.90983e-15 1.00838 0
-3.85335e-15 1.00838 0
5.80207e-15 1.00838 0
7.39093e-15 1.00959 0
6.41402e-15 1.00959 0
5.80207e-15 1.00838 0
-3.80406e-15 1.00838 0
6.41402e-15 1.00959 0
6.44287e-15 1.00959 0
-6.93974e-15 1.00959 0
-4.96223e-15 1.00959 0
8.0341e-15 1.0108 0
8.38313e-15 1.0108 0
-4.96223e-15 1.00959 0
-6.16752e-15 1.00959 0
8.38313e-15 1.0108 0
9.06901e-15 1.0108 0
-3.80406e-15 1.00838 0
-9.53657e-15 1.00838 0
6.44287e-15 1.00959 0
7.99876e-15 1.00959 0
-9.53657e-15 1.00838 0
-1.74074e-15 1.00838 0
7.99876e-15 1.00959 0
6.80406e-15 1.00959 0
-6.16752e-15 1.00959 0
3.25232e-15 1.00959 0
9.06901e-15 1.0108 0
2.26514e-15 1.0108 0
3.25232e-15 1.00959 0
-2.10928e-15 1.00959 0
2.26514e-15 1.0108 0
6.21363e-15 1.0108 0
-1.38578e-14 1.00589 0
2.84346e-15 1.00589 0
1.26411e-14 1.00715 0
1.11923e-15 1.00715 0
2.84346e-15 1.00589 0
-4.9799e-15 1.00589 0
1.11923e-15 1.00715 0
1.41464e-14 1.00715 0
-7.8342e-15 1.00715 0
-2.67101e-15 1.00715 0
1.90983e-15 1.00838 0
5.96103e-15 1.00838 0
-2.67101e-15 1.00715 0
-8.61109e-15 1.00715 0
5.96103e-15 1.00838 0
4.09088e-15 1.00838 0
-4.9799e-15 1.00589 0
-4.03647e-15 1.00589 0
1.41464e-14 1.00715 0
2.88817e-15 1.00715 0
-4.03647e-15 1.00589 0
3.11824e-15 1.00589 0
2.88817e-15 1.00715 0
4.19562e-16 1.00715 0
-8.61109e-15 1.00715 0
-5.0886e-15 1.00715 0
4.09088e-15 1.00838 0
6.28946e-15 1.00838 0
-5.0886e-15 1.00715 0
-1.6226e-15 1.00715 0
6.28946e-15 1.00838 0
3.03021e-15 1.00838 0
-1.74074e-15 1.00838 0
-1.71865e-15 1.00838 0
6.80406e-15 1.00959 0
2.7107e-15 1.00959 0
-1.71865e-15 1.00838 0
-4.81149e-15 1.00838 0
2.7107e-15 1.00959 0
3.25495e-15 1.00959 0
-2.10928e-15 1.00959 0
-3.36515e-15 1.00959 0
6.21363e-15 1.0108 0
7.26644e-15 1.0108 0
-3.36515e-15 1.00959 0
-5.7815e-15 1.00959 0
7.26644e-15 1.0108 0
1.12812e-14 1.0108 0
-4.81149e-15 1.00838 0
-2.29354e-15 1.00838 0
3.25495e-15 1.00959 0
7.67919e-15 1.00959 0
-2.29354e-15 1.00838 0
-9.31844e-16 1.00838 0
7.67919e-15 1.00959 0
7.36816e-15 1.00959 0
-5.7815e-15 1.00959 0
-5.29623e-15 1.00959 0
1.12812e-14 1.0108 0
4.2302e-15 1.0108 0
-5.29623e-15 1.00959 0
-1.47618e-15 1.00959 0
4.2302e-15 1.0108 0
4.03462e-15 1.0108 0
0 1.0108 0
-5.15945e-15 1.0108 0
0 1.01199 0
6.13001e-15 1.01199 0
-5.15945e-15 1.0108 0
-4.99303e-14 1.0108 0
6.13001e-15 1.01199 0
-3.61448e-14 1.01199 0
0 1.01199 0
-4.5223e-15 1.01199 0
0 1.01318 0
1.03847e-16 1.01318 0
-4.5223e-15 1.01199 0
2.10354e-14 1.01199 0
1.03847e-16 1.01318 0
2.61885e-14 1.01318 0
-4.99303e-14 1.0108 0
5.24347e-15 1.0108 0
-3.61448e-14 1.01199 0
1.23465e-14 1.01199 0
5.24347e-15 1.0108 0
3.81713e-14 1.0108 0
1.23465e-14 1.01199 0
3.95793e-14 1.01199 0
2.10354e-14 1.01199 0
-2.50754e-14 1.01199 0
2.61885e-14 1.01318 0
-1.61395e-14 1.01318 0
-2.50754e-14 1.01199 0
-8.3203e-15 1.01199 0
-1.61395e-14 1.01318 0
-8.19136e-15 1.01318 0
0 1.01318 0
-7.55354e-15 1.01318 0
0 1.01439 0
-7.08658e-15 1.01439 0
-7.55354e-15 1.01318 0
-2.00567e-14 1.01318 0
-7.08658e-15 1.01439 0
-1.11599e-14 1.01439 0
0 1.01439 0
7.71121e-15 1.01439 0
0 1.01561 0
7.99365e-15 1.01561 0
7.71121e-15 1.01439 0
1.81944e-14 1.01439 0
7.99365e-15 1.01561 0
1.85466e-14 1.01561 0
-2.00567e-14 1.01318 0
8.21093e-15 1.01318 0
-1.11599e-14 1.01439 0
9.93242e-15 1.01439 0
8.21093e-15 1.01318 0
2.21419e-15 1.01318 0
9.93242e-15 1.01439 0
6.21522e-15 1.01439 0
1.81944e-14 1.01439 0
-4.15862e-15 1.01439 0
1.85466e-14 1.01561 0
-3.24212e-17 1.01561 0
-4.15862e-15 1.01439 0
-5.90836e-15 1.01439 0
-3.24212e-17 1.01561 0
6.10421e-16 1.01561 0
3.81713e-14 1.0108 0
-2.09827e-14 1.0108 0
3.95793e-14 1.01199 0
-8.81458e-15 1.01199 0
-2.09827e-14 1.0108 0
-7.10674e-15 1.0108 0
-8.81458e-15 1.01199 0
6.38877e-15 1.01199 0
-8.3203e-15 1.01199 0
1.06181e-14 1.01199 0
-8.19136e-15 1.01318 0
1.79785e-14 1.01318 0
1.06181e-14 1.01199 0
-4.89986e-15 1.01199 0
1.79785e-14 1.01318 0
3.25008e-15 1.01318 0
-7.10674e-15 1.0108 0
-4.30494e-16 1.0108 0
6.38877e-15 1.01199 0
3.80329e-15 1.01199 0
-4.30494e-16 1.0108 0
-4.19137e-15 1.0108 0
3.80329e-15 1.01199 0
5.3725e-15 1.01199 0
-4.89986e-15 1.01199 0
-5.69378e-15 1.01199 0
3.25008e-15 1.01318 0
5.65575e-15 1.01318 0
-5.69378e-15 1.01199 0
-9.68913e-15 1.01199 0
5.65575e-15 1.01318 0
8.37806e-15 1.01318 0
2.21419e-15 1.01318 0
-5.71329e-15 1.01318 0
6.21522e-15 1.01439 0
7.46822e-15 1.01439 0
-5.71329e-15 1.01318 0
-4.60614e-15 1.01318 0
7.46822e-15 1.01439 0
7.10616e-15 1.01439 0
-5.90836e-15 1.01439 0
-7.77075e-15 1.01439 0
6.10421e-16 1.01561 0
1.7013e-15 1.01561 0
-7.77075e-15 1.01439 0
-5.46684e-15 1.01439 0
1.7013e-15 1.01561 0
4.36866e-15 1.01561 0
-4.60614e-15 1.01318 0
-3.59534e-15 1.01318 0
7.10616e-15 1.01439 0
3.90421e-15 1.01439 0
-3.59534e-15 1.01318 0
-6.49687e-15 1.01318 0
3.90421e-15 1.01439 0
5.81568e-15 1.01439 0
-5.46684e-15 1.01439 0
-4.61887e-15 1.01439 0
4.36866e-15 1.01561 0
3.37241e-15 1.01561 0
-4.61887e-15 1.01439 0
-6.81886e-15 1.01439 0
3.37241e-15 1.01561 0
7.57788e-15 1.01561 0
0 1.01561 0
5.85897e-15 1.01561 0
0 1.01685 0
1.87191e-15 1.01685 0
5.85897e-15 1.01561 0
-1.5344e-14 1.01561 0
1.87191e-15 1.01685 0
-9.11037e-15 1.01685 0
0 1.01685 0
-9.94598e-15 1.01685 0
0 1.01807 0
-2.44095e-15 1.01807 0
-9.94598e-15 1.01685 0
9.73182e-15 1.01685 0
-2.44095e-15 1.01807 0
1.22536e-14 1.01807 0
-1.5344e-14 1.01561 0
-1.8059e-15 1.01561 0
-9.11037e-15 1.01685 0
1.85294e-15 1.01685 0
-1.8059e-15 1.01561 0
-8.09641e-15 1.01561 0
1.85294e-15 1.01685 0
3.24433e-15 1.01685 0
9.73182e-15 1.01685 0
1.49049e-15 1.01685 0
1.22536e-14 1.01807 0
2.90554e-15 1.01807 0
1.49049e-15 1.01685 0
3.91521e-16 1.01685 0
2.90554e-15 1.01807 0
2.30035e-15 1.01807 0
0 1.01807 0
5.02873e-15 1.01807 0
0 1.01911 0
3.81315e-15 1.01911 0
5.02873e-15 1.01807 0
-8.79649e-15 1.01807 0
3.81315e-15 1.01911 0
-7.79684e-15 1.01911 0
0 1.01911 0
-9.56286e-16 1.01911 0
0 1.01951 0
-4.79924e-15 1.01951 0
-9.56286e-16 1.01911 0
-5.1935e-16 1.01911 0
-4.79924e-15 1.01951 0
1.10294e-14 1.01951 0
-8.79649e-15 1.01807 0
-9.36657e-17 1.01807 0
-7.79684e-15 1.01911 0
-7.17846e-16 1.01911 0
-9.36657e-17 1.01807 0
-2.35162e-15 1.01807 0
-7.17846e-16 1.01911 0
-1.30466e-16 1.01911 0
-5.1935e-16 1.01911 0
-3.99937e-15 1.01911 0
1.10294e-14 1.01951 0
-5.14134e-15 1.01951 0
-3.99937e-15 1.01911 0
-3.16475e-15 1.01911 0
-5.14134e-15 1.01951 0
1.7002e-15 1.01951 0
-8.09641e-15 1.01561 0
-2.6838e-15 1.01561 0
3.24433e-15 1.01685 0
8.45112e-15 1.01685 0
-2.6838e-15 1.01561 0
-4.26648e-15 1.01561 0
8.45112e-15 1.01685 0
7.05962e-15 1.01685 0
3.91521e-16 1.01685 0
-4.50954e-15 1.01685 0
2.30035e-15 1.01807 0
-1.16657e-15 1.01807 0
-4.50954e-15 1.01685 0
-5.20827e-15 1.01685 0
-1.16657e-15 1.01807 0
3.41006e-15 1.01807 0
-4.26648e-15 1.01561 0
-2.18859e-15 1.01561 0
7.05962e-15 1.01685 0
2.54212e-15 1.01685 0
-2.18859e-15 1.01561 0
-3.76002e-15 1.01561 0
2.54212e-15 1.01685 0
5.52879e-15 1.01685 0
-5.20827e-15 1.01685 0
-5.72329e-15 1.01685 0
3.41006e-15 1.01807 0
2.28286e-15 1.01807 0
-5.72329e-15 1.01685 0
-5.27299e-15 1.01685 0
2.28286e-15 1.01807 0
4.20306e-15 1.01807 0
-2.35162e-15 1.01807 0
-3.48974e-15 1.01807 0
-1.30466e-16 1.01911 0
-6.0284e-16 1.01911 0
-3.48974e-15 1.01807 0
-2.37175e-15 1.01807 0
-6.0284e-16 1.01911 0
1.1118e-15 1.01911 0
-3.16475e-15 1.01911 0
-4.22643e-15 1.01911 0
1.7002e-15 1.01951 0
5.40928e-15 1.01951 0
-4.22643e-15 1.01911 0
-3.0186e-15 1.01911 0
5.40928e-15 1.01951 0
2.00243e-15 1.01951 0
-2.37175e-15 1.01807 0
-2.10639e-15 1.01807 0
1.1118e-15 1.01911 0
-1.79091e-15 1.01911 0
-2.10639e-15 1.01807 0
-1.81639e-15 1.01807 0
-1.79091e-15 1.01911 0
1.70361e-15 1.01911 0
-3.0186e-15 1.01911 0
-3.13159e-15 1.01911 0
2.00243e-15 1.01951 0
4.443e-15 1.01951 0
-3.13159e-15 1.01911 0
-7.0311e-16 1.01911 0
4.443e-15 1.01951 0
-7.62997e-15 1.01951 0
-4.19137e-15 1.0108 0
-3.88969e-15 1.0108 0
5.3725e-15 1.01199 0
7.48681e-15 1.01199 0
-3.88969e-15 1.0108 0
-3.96908e-15 1.0108 0
7.48681e-15 1.01199 0
3.21506e-15 1.01199 0
-9.68913e-15 1.01199 0
-8.73491e-15 1.01199 0
8.37806e-15 1.01318 0
7.84344e-15 1.01318 0
-8.73491e-15 1.01199 0
-1.65905e-15 1.01199 0
7.84344e-15 1.01318 0
5.50036e-15 1.01318 0
-3.96908e-15 1.0108 0
-3.51142e-15 1.0108 0
3.21506e-15 1.01199 0
4.16202e-15 1.01199 0
-3.51142e-15 1.0108 0
-3.8601e-15 1.0108 0
4.16202e-15 1.01199 0
4.99889e-15 1.01199 0
-1.65905e-15 1.01199 0
-2.50938e-15 1.01199 0
5.50036e-15 1.01318 0
1.17216e-15 1.01318 0
-2.50938e-15 1.01199 0
-2.49085e-15 1.01199 0
1.17216e-15 1.01318 0
2.6332e-15 1.01318 0
-6.49687e-15 1.01318 0
-8.28303e-15 1.01318 0
5.81568e-15 1.01439 0
1.0645e-14 1.01439 0
-8.28303e-15 1.01318 0
-6.89637e-15 1.01318 0
1.0645e-14 1.01439 0
4.59052e-15 1.01439 0
-6.81886e-15 1.01439 0
-6.98578e-15 1.01439 0
7.57788e-15 1.01561 0
7.26644e-15 1.01561 0
-6.98578e-15 1.01439 0
4.10987e-16 1.01439 0
7.26644e-15 1.01561 0
3.02694e-15 1.01561 0
-6.89637e-15 1.01318 0
-2.94849e-15 1.01318 0
4.59052e-15 1.01439 0
4.8918e-15 1.01439 0
-2.94849e-15 1.01318 0
-4.46221e-15 1.01318 0
4.8918e-15 1.01439 0
5.197e-15 1.01439 0
4.10987e-16 1.01439 0
-1.1332e-15 1.01439 0
3.02694e-15 1.01561 0
3.7053e-15 1.01561 0
-1.1332e-15 1.01439 0
-2.51103e-15 1.01439 0
3.7053e-15 1.01561 0
6.21874e-15 1.01561 0
-3.8601e-15 1.0108 0
-3.75091e-15 1.0108 0
4.99889e-15 1.01199 0
3.51371e-15 1.01199 0
-3.75091e-15 1.0108 0
-5.26508e-15 1.0108 0
3.51371e-15 1.01199 0
1.48245e-14 1.01199 0
-2.49085e-15 1.01199 0
-9.0091e-16 1.01199 0
2.6332e-15 1.01318 0
3.86293e-15 1.01318 0
-9.0091e-16 1.01199 0
-5.37284e-15 1.01199 0
3.86293e-15 1.01318 0
3.81248e-15 1.01318 0
-5.26508e-15 1.0108 0
2.2548e-15 1.0108 0
1.48245e-14 1.01199 0
4.28087e-15 1.01199 0
2.2548e-15 1.0108 0
1.55072e-15 1.0108 0
4.28087e-15 1.01199 0
2.35829e-15 1.01199 0
-5.37284e-15 1.01199 0
-7.36634e-17 1.01199 0
3.81248e-15 1.01318 0
3.07774e-16 1.01318 0
-7.36634e-17 1.01199 0
-2.14735e-15 1.01199 0
3.07774e-16 1.01318 0
2.91667e-15 1.01318 0
-4.46221e-15 1.01318 0
-3.59181e-15 1.01318 0
5.197e-15 1.01439 0
3.55377e-15 1.01439 0
-3.59181e-15 1.01318 0
-5.14954e-16 1.01318 0
3.55377e-15 1.01439 0
4.02361e-15 1.01439 0
-2.51103e-15 1.01439 0
-2.04767e-15 1.01439 0
6.21874e-15 1.01561 0
3.38936e-15 1.01561 0
-2.04767e-15 1.01439 0
-5.73255e-15 1.01439 0
3.38936e-15 1.01561 0
4.37768e-15 1.01561 0
-5.14954e-16 1.01318 0
8.02257e-16 1.01318 0
4.02361e-15 1.01439 0
6.28529e-16 1.01439 0
8.02257e-16 1.01318 0
-4.30978e-15 1.01318 0
6.28529e-16 1.01439 0
6.14985e-15 1.01439 0
-5.73255e-15 1.01439 0
-1.23373e-15 1.01439 0
4.37768e-15 1.01561 0
1.12477e-15 1.01561 0
-1.23373e-15 1.01439 0
1.58104e-15 1.01439 0
1.12477e-15 1.01561 0
-1.04358e-15 1.01561 0
-3.76002e-15 1.01561 0
-7.14482e-15 1.01561 0
5.52879e-15 1.01685 0
4.55289e-15 1.01685 0
-7.14482e-15 1.01561 0
-4.76218e-15 1.01561 0
4.55289e-15 1.01685 0
3.01673e-15 1.01685 0
-5.27299e-15 1.01685 0
-8.61906e-16 1.01685 0
4.20306e-15 1.01807 0
-3.96063e-16 1.01807 0
-8.61906e-16 1.01685 0
-3.30687e-15 1.01685 0
-3.96063e-16 1.01807 0
2.80497e-15 1.01807 0
-4.76218e-15 1.01561 0
6.51832e-16 1.01561 0
3.01673e-15 1.01685 0
-4.33595e-16 1.01685 0
6.51832e-16 1.01561 0
-8.64625e-15 1.01561 0
-4.33595e-16 1.01685 0