# vtk DataFile Version 3.0
#This file was generated by the deal.II library on 2018/10/12 at 0:53:24
ASCII
DATASET UNSTRUCTURED_GRID

POINTS 5120 double
0 0 0
0.392699 0 0
0 0.603561 0
0.392699 0.603561 0
0.392699 0 0
0.785398 0 0
0.392699 0.603561 0
0.785398 0.603561 0
0 0.603561 0
0.392699 0.603561 0
0 1.23015 0
0.392699 1.23015 0
0.392699 0.603561 0
0.785398 0.603561 0
0.392699 1.23015 0
0.785398 1.23015 0
0.785398 0 0
1.1781 0 0
0.785398 0.603561 0
1.1781 0.603561 0
1.1781 0 0
1.5708 0 0
1.1781 0.603561 0
1.5708 0.603561 0
0.785398 0.603561 0
1.1781 0.603561 0
0.785398 1.23015 0
1.1781 1.23015 0
1.1781 0.603561 0
1.5708 0.603561 0
1.1781 1.23015 0
1.5708 1.23015 0
0 1.23015 0
0.392699 1.23015 0
0 1.85591 0
0.392699 1.85591 0
0.392699 1.23015 0
0.785398 1.23015 0
0.392699 1.85591 0
0.785398 1.85591 0
0 1.85591 0
0.392699 1.85591 0
0 2.48245 0
0.392699 2.48245 0
0.392699 1.85591 0
0.785398 1.85591 0
0.392699 2.48245 0
0.785398 2.48245 0
0.785398 1.23015 0
1.1781 1.23015 0
0.785398 1.85591 0
1.1781 1.85591 0
1.1781 1.23015 0
1.5708 1.23015 0
1.1781 1.85591 0
1.5708 1.85591 0
0.785398 1.85591 0
1.1781 1.85591 0
0.785398 2.48245 0
1.1781 2.48245 0
1.1781 1.85591 0
1.5708 1.85591 0
1.1781 2.48245 0
1.5708 2.48245 0
1.5708 0 0
1.9635 0 0
1.5708 0.603561 0
1.9635 0.603561 0
1.9635 0 0
2.35619 0 0
1.9635 0.603561 0
2.35619 0.603561 0
1.5708 0.603561 0
1.9635 0.603561 0
1.5708 1.23015 0
1.9635 1.23015 0
1.9635 0.603561 0
2.35619 0.603561 0
1.9635 1.23015 0
2.35619 1.23015 0
2.35619 0 0
2.74889 0 0
2.35619 0.603561 0
2.74889 0.603561 0
2.74889 0 0
3.14159 0 0
2.74889 0.603561 0
3.14159 0.603561 0
2.35619 0.603561 0
2.74889 0.603561 0
2.35619 1.23015 0
2.74889 1.23015 0
2.74889 0.603561 0
3.14159 0.603561 0
2.74889 1.23015 0
3.14159 1.23015 0
1.5708 1.23015 0
1.9635 1.23015 0
1.5708 1.85591 0
1.9635 1.85591 0
1.9635 1.23015 0
2.35619 1.23015 0
1.9635 1.85591 0
2.35619 1.85591 0
1.5708 1.85591 0
1.9635 1.85591 0
1.5708 2.48245 0
1.9635 2.48245 0
1.9635 1.85591 0
2.35619 1.85591 0
1.9635 2.48245 0
2.35619 2.48245 0
2.35619 1.23015 0
2.74889 1.23015 0
2.35619 1.85591 0
2.74889 1.85591 0
2.74889 1.23015 0
3.14159 1.23015 0
2.74889 1.85591 0
3.14159 1.85591 0
2.35619 1.85591 0
2.74889 1.85591 0
2.35619 2.48245 0
2.74889 2.48245 0
2.74889 1.85591 0
3.14159 1.85591 0
2.74889 2.48245 0
3.14159 2.48245 0
0 2.48245 0
0.392699 2.48245 0
0 3.10877 0
0.392699 3.10877 0
0.392699 2.48245 0
0.785398 2.48245 0
0.392699 3.10877 0
0.785398 3.10877 0
0 3.10877 0
0.392699 3.10877 0
0 3.73511 0
0.392699 3.73511 0
0.392699 3.10877 0
0.785398 3.10877 0
0.392699 3.73511 0
0.785398 3.73511 0
0.785398 2.48245 0
1.1781 2.48245 0
0.785398 3.10877 0
1.1781 3.10877 0
1.1781 2.48245 0
1.5708 2.48245 0
1.1781 3.10877 0
1.5708 3.10877 0
0.785398 3.10877 0
1.1781 3.10877 0
0.785398 3.73511 0
1.1781 3.73511 0
1.1781 3.10877 0
1.5708 3.10877 0
1.1781 3.73511 0
1.5708 3.73511 0
0 3.73511 0
0.392699 3.73511 0
0 4.36138 0
0.392699 4.36138 0
0.392699 3.73511 0
0.785398 3.73511 0
0.392699 4.36138 0
0.785398 4.36138 0
0 4.36138 0
0.392699 4.36138 0
0 4.9876 0
0.392699 4.9876 0
0.392699 4.36138 0
0.785398 4.36138 0
0.392699 4.9876 0
0.785398 4.9876 0
0.785398 3.73511 0
1.1781 3.73511 0
0.785398 4.36138 0
1.1781 4.36138 0
1.1781 3.73511 0
1.5708 3.73511 0
1.1781 4.36138 0
1.5708 4.36138 0
0.785398 4.36138 0
1.1781 4.36138 0
0.785398 4.9876 0
1.1781 4.9876 0
1.1781 4.36138 0
1.5708 4.36138 0
1.1781 4.9876 0
1.5708 4.9876 0
1.5708 2.48245 0
1.9635 2.48245 0
1.5708 3.10877 0
1.9635 3.10877 0
1.9635 2.48245 0
2.35619 2.48245 0
1.9635 3.10877 0
2.35619 3.10877 0
1.5708 3.10877 0
1.9635 3.10877 0
1.5708 3.73511 0
1.9635 3.73511 0
1.9635 3.10877 0
2.35619 3.10877 0
1.9635 3.73511 0
2.35619 3.73511 0
2.35619 2.48245 0
2.74889 2.48245 0
2.35619 3.10877 0
2.74889 3.10877 0
2.74889 2.48245 0
3.14159 2.48245 0
2.74889 3.10877 0
3.14159 3.10877 0
2.35619 3.10877 0
2.74889 3.10877 0
2.35619 3.73511 0
2.74889 3.73511 0
2.74889 3.10877 0
3.14159 3.10877 0
2.74889 3.73511 0
3.14159 3.73511 0
1.5708 3.73511 0
1.9635 3.73511 0
1.5708 4.36138 0
1.9635 4.36138 0
1.9635 3.73511 0
2.35619 3.73511 0
1.9635 4.36138 0
2.35619 4.36138 0
1.5708 4.36138 0
1.9635 4.36138 0
1.5708 4.9876 0
1.9635 4.9876 0
1.9635 4.36138 0
2.35619 4.36138 0
1.9635 4.9876 0
2.35619 4.9876 0
2.35619 3.73511 0
2.74889 3.73511 0
2.35619 4.36138 0
2.74889 4.36138 0
2.74889 3.73511 0
3.14159 3.73511 0
2.74889 4.36138 0
3.14159 4.36138 0
2.35619 4.36138 0
2.74889 4.36138 0
2.35619 4.9876 0
2.74889 4.9876 0
2.74889 4.36138 0
3.14159 4.36138 0
2.74889 4.9876 0
3.14159 4.9876 0
3.14159 0 0
3.53429 0 0
3.14159 0.603561 0
3.53429 0.603561 0
3.53429 0 0
3.92699 0 0
3.53429 0.603561 0
3.92699 0.603561 0
3.14159 0.603561 0
3.53429 0.603561 0
3.14159 1.23015 0
3.53429 1.23015 0
3.53429 0.603561 0
3.92699 0.603561 0
3.53429 1.23015 0
3.92699 1.23015 0
3.92699 0 0
4.31969 0 0
3.92699 0.603561 0
4.31969 0.603561 0
4.31969 0 0
4.71239 0 0
4.31969 0.603561 0
4.71239 0.603561 0
3.92699 0.603561 0
4.31969 0.603561 0
3.92699 1.23015 0
4.31969 1.23015 0
4.31969 0.603561 0
4.71239 0.603561 0
4.31969 1.23015 0
4.71239 1.23015 0
3.14159 1.23015 0
3.53429 1.23015 0
3.14159 1.85591 0
3.53429 1.85591 0
3.53429 1.23015 0
3.92699 1.23015 0
3.53429 1.85591 0
3.92699 1.85591 0
3.14159 1.85591 0
3.53429 1.85591 0
3.14159 2.48245 0
3.53429 2.48245 0
3.53429 1.85591 0
3.92699 1.85591 0
3.53429 2.48245 0
3.92699 2.48245 0
3.92699 1.23015 0
4.31969 1.23015 0
3.92699 1.85591 0
4.31969 1.85591 0
4.31969 1.23015 0
4.71239 1.23015 0
4.31969 1.85591 0
4.71239 1.85591 0
3.92699 1.85591 0
4.31969 1.85591 0
3.92699 2.48245 0
4.31969 2.48245 0
4.31969 1.85591 0
4.71239 1.85591 0
4.31969 2.48245 0
4.71239 2.48245 0
4.71239 0 0
5.10509 0 0
4.71239 0.603561 0
5.10509 0.603561 0
5.10509 0 0
5.49779 0 0
5.10509 0.603561 0
5.49779 0.603561 0
4.71239 0.603561 0
5.10509 0.603561 0
4.71239 1.23015 0
5.10509 1.23015 0
5.10509 0.603561 0
5.49779 0.603561 0
5.10509 1.23015 0
5.49779 1.23015 0
5.49779 0 0
5.89049 0 0
5.49779 0.603561 0
5.89049 0.603561 0
5.89049 0 0
6.28319 0 0
5.89049 0.603561 0
6.28319 0.603561 0
5.49779 0.603561 0
5.89049 0.603561 0
5.49779 1.23015 0
5.89049 1.23015 0
5.89049 0.603561 0
6.28319 0.603561 0
5.89049 1.23015 0
6.28319 1.23015 0
4.71239 1.23015 0
5.10509 1.23015 0
4.71239 1.85591 0
5.10509 1.85591 0
5.10509 1.23015 0
5.49779 1.23015 0
5.10509 1.85591 0
5.49779 1.85591 0
4.71239 1.85591 0
5.10509 1.85591 0
4.71239 2.48245 0
5.10509 2.48245 0
5.10509 1.85591 0
5.49779 1.85591 0
5.10509 2.48245 0
5.49779 2.48245 0
5.49779 1.23015 0
5.89049 1.23015 0
5.49779 1.85591 0
5.89049 1.85591 0
5.89049 1.23015 0
6.28319 1.23015 0
5.89049 1.85591 0
6.28319 1.85591 0
5.49779 1.85591 0
5.89049 1.85591 0
5.49779 2.48245 0
5.89049 2.48245 0
5.89049 1.85591 0
6.28319 1.85591 0
5.89049 2.48245 0
6.28319 2.48245 0
3.14159 2.48245 0
3.53429 2.48245 0
3.14159 3.10877 0
3.53429 3.10877 0
3.53429 2.48245 0
3.92699 2.48245 0
3.53429 3.10877 0
3.92699 3.10877 0
3.14159 3.10877 0
3.53429 3.10877 0
3.14159 3.73511 0
3.53429 3.73511 0
3.53429 3.10877 0
3.92699 3.10877 0
3.53429 3.73511 0
3.92699 3.73511 0
3.92699 2.48245 0
4.31969 2.48245 0
3.92699 3.10877 0
4.31969 3.10877 0
4.31969 2.48245 0
4.71239 2.48245 0
4.31969 3.10877 0
4.71239 3.10877 0
3.92699 3.10877 0
4.31969 3.10877 0
3.92699 3.73511 0
4.31969 3.73511 0
4.31969 3.10877 0
4.71239 3.10877 0
4.31969 3.73511 0
4.71239 3.73511 0
3.14159 3.73511 0
3.53429 3.73511 0
3.14159 4.36138 0
3.53429 4.36138 0
3.53429 3.73511 0
3.92699 3.73511 0
3.53429 4.36138 0
3.92699 4.36138 0
3.14159 4.36138 0
3.53429 4.36138 0
3.14159 4.9876 0
3.53429 4.9876 0
3.53429 4.36138 0
3.92699 4.36138 0
3.53429 4.9876 0
3.92699 4.9876 0
3.92699 3.73511 0
4.31969 3.73511 0
3.92699 4.36138 0
4.31969 4.36138 0
4.31969 3.73511 0
4.71239 3.73511 0
4.31969 4.36138 0
4.71239 4.36138 0
3.92699 4.36138 0
4.31969 4.36138 0
3.92699 4.9876 0
4.31969 4.9876 0
4.31969 4.36138 0
4.71239 4.36138 0
4.31969 4.9876 0
4.71239 4.9876 0
4.71239 2.48245 0
5.10509 2.48245 0
4.71239 3.10877 0
5.10509 3.10877 0
5.10509 2.48245 0
5.49779 2.48245 0
5.10509 3.10877 0
5.49779 3.10877 0
4.71239 3.10877 0
5.10509 3.10877 0
4.71239 3.73511 0
5.10509 3.73511 0
5.10509 3.10877 0
5.49779 3.10877 0
5.10509 3.73511 0
5.49779 3.73511 0
5.49779 2.48245 0
5.89049 2.48245 0
5.49779 3.10877 0
5.89049 3.10877 0
5.89049 2.48245 0
6.28319 2.48245 0
5.89049 3.10877 0
6.28319 3.10877 0
5.49779 3.10877 0
5.89049 3.10877 0
5.49779 3.73511 0
5.89049 3.73511 0
5.89049 3.10877 0
6.28319 3.10877 0
5.89049 3.73511 0
6.28319 3.73511 0
4.71239 3.73511 0
5.10509 3.73511 0
4.71239 4.36138 0
5.10509 4.36138 0
5.10509 3.73511 0
5.49779 3.73511 0
5.10509 4.36138 0
5.49779 4.36138 0
4.71239 4.36138 0
5.10509 4.36138 0
4.71239 4.9876 0
5.10509 4.9876 0
5.10509 4.36138 0
5.49779 4.36138 0
5.10509 4.9876 0
5.49779 4.9876 0
5.49779 3.73511 0
5.89049 3.73511 0
5.49779 4.36138 0
5.89049 4.36138 0
5.89049 3.73511 0
6.28319 3.73511 0
5.89049 4.36138 0
6.28319 4.36138 0
5.49779 4.36138 0
5.89049 4.36138 0
5.49779 4.9876 0
5.89049 4.9876 0
5.89049 4.36138 0
6.28319 4.36138 0
5.89049 4.9876 0
6.28319 4.9876 0
0 4.9876 0
0.392699 4.9876 0
0 5.61375 0
0.392699 5.61375 0
0.392699 4.9876 0
0.785398 4.9876 0
0.392699 5.61375 0
0.785398 5.61375 0
0 5.61375 0
0.392699 5.61375 0
0 6.23983 0
0.392699 6.23983 0
0.392699 5.61375 0
0.785398 5.61375 0
0.392699 6.23983 0
0.785398 6.23983 0
0.785398 4.9876 0
1.1781 4.9876 0
0.785398 5.61375 0
1.1781 5.61375 0
1.1781 4.9876 0
1.5708 4.9876 0
1.1781 5.61375 0
1.5708 5.61375 0
0.785398 5.61375 0
1.1781 5.61375 0
0.785398 6.23983 0
1.1781 6.23983 0
1.1781 5.61375 0
1.5708 5.61375 0
1.1781 6.23983 0
1.5708 6.23983 0
0 6.23983 0
0.392699 6.23983 0
0 6.86587 0
0.392699 6.86587 0
0.392699 6.23983 0
0.785398 6.23983 0
0.392699 6.86587 0
0.785398 6.86587 0
0 6.86587 0
0.392699 6.86587 0
0 7.49191 0
0.392699 7.49191 0
0.392699 6.86587 0
0.785398 6.86587 0
0.392699 7.49191 0
0.785398 7.49191 0
0.785398 6.23983 0
1.1781 6.23983 0
0.785398 6.86587 0
1.1781 6.86587 0
1.1781 6.23983 0
[...]
POINT_DATA 5120
VECTORS uf double
0 1 0
-8.09505e-14 1 0
0 1.00242 0
-7.80783e-14 1.00242 0
-8.09505e-14 1 0
-1.05558e-14 1 0
-7.80783e-14 1.00242 0
-6.54488e-15 1.00242 0
0 1.00242 0
3.4175e-14 1.00242 0
0 1.00365 0
2.40793e-14 1.00365 0
3.4175e-14 1.00242 0
1.46515e-14 1.00242 0
2.40793e-14 1.00365 0
4.22501e-15 1.00365 0
-1.05558e-14 1 0
1.54637e-13 1 0
-6.54488e-15 1.00242 0
1.49034e-13 1.00242 0
1.54637e-13 1 0
5.25429e-14 1 0
1.49034e-13 1.00242 0
5.47326e-14 1.00242 0
1.46515e-14 1.00242 0
-1.5937e-13 1.00242 0
4.22501e-15 1.00365 0
-1.46155e-13 1.00365 0
-1.5937e-13 1.00242 0
-5.76185e-14 1.00242 0
-1.46155e-13 1.00365 0
-4.59548e-14 1.00365 0
0 1.00365 0
3.34661e-14 1.00365 0
0 1.00515 0
1.75473e-14 1.00515 0
3.34661e-14 1.00365 0
1.17448e-14 1.00365 0
1.75473e-14 1.00515 0
7.91595e-15 1.00515 0
0 1.00515 0
3.68364e-14 1.00515 0
0 1.00655 0
3.78206e-14 1.00655 0
3.68364e-14 1.00515 0
5.31578e-14 1.00515 0
3.78206e-14 1.00655 0
5.43408e-14 1.00655 0
1.17448e-14 1.00365 0
-2.50841e-15 1.00365 0
7.91595e-15 1.00515 0
1.0445e-14 1.00515 0
-2.50841e-15 1.00365 0
-5.21757e-15 1.00365 0
1.0445e-14 1.00515 0
4.23682e-15 1.00515 0
5.31578e-14 1.00515 0
7.17312e-15 1.00515 0
5.43408e-14 1.00655 0
8.3384e-15 1.00655 0
7.17312e-15 1.00515 0
-2.70188e-14 1.00515 0
8.3384e-15 1.00655 0
-2.22411e-14 1.00655 0
5.25429e-14 1 0
-3.15055e-14 1 0
5.47326e-14 1.00242 0
-1.45424e-14 1.00242 0
-3.15055e-14 1 0
-6.7715e-15 1 0
-1.45424e-14 1.00242 0
2.39746e-15 1.00242 0
-5.76185e-14 1.00242 0
2.82655e-14 1.00242 0
-4.59548e-14 1.00365 0
1.69093e-14 1.00365 0
2.82655e-14 1.00242 0
-1.93276e-15 1.00242 0
1.69093e-14 1.00365 0
7.56142e-15 1.00365 0
-6.7715e-15 1 0
6.04512e-16 1 0
2.39746e-15 1.00242 0
-2.68529e-15 1.00242 0
6.04512e-16 1 0
1.13488e-15 1 0
-2.68529e-15 1.00242 0
-1.70292e-15 1.00242 0
-1.93276e-15 1.00242 0
-5.91665e-16 1.00242 0
7.56142e-15 1.00365 0
-7.44376e-16 1.00365 0
-5.91665e-16 1.00242 0
-1.15008e-15 1.00242 0
-7.44376e-16 1.00365 0
1.04864e-14 1.00365 0
-5.21757e-15 1.00365 0
2.54367e-14 1.00365 0
4.23682e-15 1.00515 0
3.26731e-14 1.00515 0
2.54367e-14 1.00365 0
1.22744e-15 1.00365 0
3.26731e-14 1.00515 0
4.96333e-15 1.00515 0
-2.70188e-14 1.00515 0
-6.11949e-15 1.00515 0
-2.22411e-14 1.00655 0
-3.3515e-15 1.00655 0
-6.11949e-15 1.00515 0
-4.4706e-15 1.00515 0
-3.3515e-15 1.00655 0
6.49367e-15 1.00655 0
1.22744e-15 1.00365 0
4.69182e-15 1.00365 0
4.96333e-15 1.00515 0
1.35385e-15 1.00515 0
4.69182e-15 1.00365 0
-6.57783e-15 1.00365 0
1.35385e-15 1.00515 0
1.05647e-14 1.00515 0
-4.4706e-15 1.00515 0
3.25582e-15 1.00515 0
6.49367e-15 1.00655 0
9.21579e-16 1.00655 0
3.25582e-15 1.00515 0
-8.98866e-15 1.00515 0
9.21579e-16 1.00655 0
9.9038e-15 1.00655 0
0 1.00655 0
-5.78864e-14 1.00655 0
0 1.00794 0
-5.46455e-14 1.00794 0
-5.78864e-14 1.00655 0
-8.08636e-14 1.00655 0
-5.46455e-14 1.00794 0
-7.21395e-14 1.00794 0
0 1.00794 0
3.46248e-14 1.00794 0
0 1.0093 0
3.79852e-14 1.0093 0
3.46248e-14 1.00794 0
8.15299e-14 1.00794 0
3.79852e-14 1.0093 0
8.81994e-14 1.0093 0
-8.08636e-14 1.00655 0
-2.06478e-14 1.00655 0
-7.21395e-14 1.00794 0
-8.54042e-15 1.00794 0
-2.06478e-14 1.00655 0
6.4119e-14 1.00655 0
-8.54042e-15 1.00794 0
4.05217e-14 1.00794 0
8.15299e-14 1.00794 0
2.32214e-14 1.00794 0
8.81994e-14 1.0093 0
2.20519e-14 1.0093 0
2.32214e-14 1.00794 0
-6.64821e-14 1.00794 0
2.20519e-14 1.0093 0
-5.28775e-14 1.0093 0
0 1.0093 0
2.49603e-14 1.0093 0
0 1.01064 0
1.88617e-14 1.01064 0
2.49603e-14 1.0093 0
-1.7332e-13 1.0093 0
1.88617e-14 1.01064 0
-1.62429e-13 1.01064 0
0 1.01064 0
-1.38158e-14 1.01064 0
0 1.01197 0
-9.92069e-15 1.01197 0
-1.38158e-14 1.01064 0
1.49524e-13 1.01064 0
-9.92069e-15 1.01197 0
1.59876e-13 1.01197 0
-1.7332e-13 1.0093 0
-1.35512e-14 1.0093 0
-1.62429e-13 1.01064 0
-8.94067e-15 1.01064 0
-1.35512e-14 1.0093 0
1.11497e-13 1.0093 0
-8.94067e-15 1.01064 0
1.18595e-13 1.01064 0
1.49524e-13 1.01064 0
1.7707e-14 1.01064 0
1.59876e-13 1.01197 0
1.8257e-14 1.01197 0
1.7707e-14 1.01064 0
-1.55297e-13 1.01064 0
1.8257e-14 1.01197 0
-1.3795e-13 1.01197 0
6.4119e-14 1.00655 0
-1.75007e-14 1.00655 0
4.05217e-14 1.00794 0
-1.47201e-14 1.00794 0
-1.75007e-14 1.00655 0
-6.51315e-15 1.00655 0
-1.47201e-14 1.00794 0
-3.74322e-16 1.00794 0
-6.64821e-14 1.00794 0
5.82844e-15 1.00794 0
-5.28775e-14 1.0093 0
9.49417e-15 1.0093 0
5.82844e-15 1.00794 0
1.51273e-15 1.00794 0
9.49417e-15 1.0093 0
-3.44275e-16 1.0093 0
-6.51315e-15 1.00655 0
-6.01268e-15 1.00655 0
-3.74322e-16 1.00794 0
2.81026e-15 1.00794 0
-6.01268e-15 1.00655 0
-6.8403e-15 1.00655 0
2.81026e-15 1.00794 0
8.41132e-15 1.00794 0
1.51273e-15 1.00794 0
1.8528e-15 1.00794 0
-3.44275e-16 1.0093 0
5.20377e-15 1.0093 0
1.8528e-15 1.00794 0
1.90634e-15 1.00794 0
5.20377e-15 1.0093 0
1.53144e-14 1.0093 0
1.11497e-13 1.0093 0
-2.35809e-14 1.0093 0
1.18595e-13 1.01064 0
-1.9391e-14 1.01064 0
-2.35809e-14 1.0093 0
-7.0573e-16 1.0093 0
-1.9391e-14 1.01064 0
5.62752e-15 1.01064 0
-1.55297e-13 1.01064 0
-2.07006e-14 1.01064 0
-1.3795e-13 1.01197 0
-2.16899e-14 1.01197 0
-2.07006e-14 1.01064 0
-4.81232e-15 1.01064 0
-2.16899e-14 1.01197 0
1.06985e-14 1.01197 0
-7.0573e-16 1.0093 0
4.26931e-15 1.0093 0
5.62752e-15 1.01064 0
4.00292e-15 1.01064 0
4.26931e-15 1.0093 0
-7.23489e-15 1.0093 0
4.00292e-15 1.01064 0
7.89585e-15 1.01064 0
-4.81232e-15 1.01064 0
-3.80539e-15 1.01064 0
1.06985e-14 1.01197 0
5.50322e-15 1.01197 0
-3.80539e-15 1.01064 0
-1.1876e-14 1.01064 0
5.50322e-15 1.01197 0
3.07883e-15 1.01197 0
1.13488e-15 1 0
-1.34043e-16 1 0
-1.70292e-15 1.00242 0
4.17706e-15 1.00242 0
-1.34043e-16 1 0
2.17247e-16 1 0
4.17706e-15 1.00242 0
7.51308e-15 1.00242 0
-1.15008e-15 1.00242 0
3.75016e-15 1.00242 0
1.04864e-14 1.00365 0
8.7856e-15 1.00365 0
3.75016e-15 1.00242 0
6.76557e-16 1.00242 0
8.7856e-15 1.00365 0
-3.97357e-15 1.00365 0
2.17247e-16 1 0
9.05952e-15 1 0
7.51308e-15 1.00242 0
-4.74788e-15 1.00242 0
9.05952e-15 1 0
-2.06819e-15 1 0
-4.74788e-15 1.00242 0
9.83076e-15 1.00242 0
6.76557e-16 1.00242 0
-3.43629e-15 1.00242 0
-3.97357e-15 1.00365 0
9.42956e-15 1.00365 0
-3.43629e-15 1.00242 0
-3.12496e-16 1.00242 0
9.42956e-15 1.00365 0
5.57843e-15 1.00365 0
-6.57783e-15 1.00365 0
-1.03947e-14 1.00365 0
1.05647e-14 1.00515 0
1.14971e-14 1.00515 0
-1.03947e-14 1.00365 0
8.41969e-15 1.00365 0
1.14971e-14 1.00515 0
9.85015e-16 1.00515 0
-8.98866e-15 1.00515 0
2.04737e-15 1.00515 0
9.9038e-15 1.00655 0
7.63013e-15 1.00655 0
2.04737e-15 1.00515 0
3.38417e-15 1.00515 0
7.63013e-15 1.00655 0
2.02356e-15 1.00655 0
8.41969e-15 1.00365 0
1.08764e-14 1.00365 0
9.85015e-16 1.00515 0
-1.24574e-15 1.00515 0
1.08764e-14 1.00365 0
-1.64939e-16 1.00365 0
-1.24574e-15 1.00515 0
6.97032e-15 1.00515 0
3.38417e-15 1.00515 0
-1.31118e-15 1.00515 0
2.02356e-15 1.00655 0
7.53829e-16 1.00655 0
-1.31118e-15 1.00515 0
1.8198e-15 1.00515 0
7.53829e-16 1.00655 0
1.30525e-14 1.00655 0
-2.06819e-15 1 0
4.17391e-15 1 0
9.83076e-15 1.00242 0
1.09667e-14 1.00242 0
4.17391e-15 1 0
4.8156e-15 1 0
1.09667e-14 1.00242 0
6.85111e-15 1.00242 0
-3.12496e-16 1.00242 0
-2.60136e-15 1.00242 0
5.57843e-15 1.00365 0
3.06383e-15 1.00365 0
-2.60136e-15 1.00242 0
-3.55255e-15 1.00242 0
3.06383e-15 1.00365 0
1.11064e-14 1.00365 0
4.8156e-15 1 0
2.57231e-15 1 0
6.85111e-15 1.00242 0
1.08486e-14 1.00242 0
2.57231e-15 1 0
7.19866e-15 1 0
1.08486e-14 1.00242 0
5.4077e-15 1.00242 0
-3.55255e-15 1.00242 0
3.32755e-15 1.00242 0
1.11064e-14 1.00365 0
6.81001e-15 1.00365 0
3.32755e-15 1.00242 0
1.29791e-15 1.00242 0
6.81001e-15 1.00365 0
4.22519e-15 1.00365 0
-1.64939e-16 1.00365 0
-8.41674e-15 1.00365 0
6.97032e-15 1.00515 0
1.04737e-14 1.00515 0
-8.41674e-15 1.00365 0
4.17247e-15 1.00365 0
1.04737e-14 1.00515 0
7.66184e-16 1.00515 0
1.8198e-15 1.00515 0
3.10981e-15 1.00515 0
1.30525e-14 1.00655 0
5.58491e-15 1.00655 0
3.10981e-15 1.00515 0
-2.08104e-15 1.00515 0
5.58491e-15 1.00655 0
5.93464e-15 1.00655 0
4.17247e-15 1.00365 0
-1.20563e-14 1.00365 0
7.66184e-16 1.00515 0
1.06679e-14 1.00515 0
-1.20563e-14 1.00365 0
-7.94774e-15 1.00365 0
1.06679e-14 1.00515 0
1.40289e-14 1.00515 0
-2.08104e-15 1.00515 0
3.35512e-15 1.00515 0
5.93464e-15 1.00655 0
7.78944e-15 1.00655 0
3.35512e-15 1.00515 0
-4.44991e-15 1.00515 0
7.78944e-15 1.00655 0
4.71312e-15 1.00655 0
-6.8403e-15 1.00655 0
-4.26817e-15 1.00655 0
8.41132e-15 1.00794 0
3.70794e-15 1.00794 0
-4.26817e-15 1.00655 0
2.8305e-16 1.00655 0
3.70794e-15 1.00794 0
-1.8007e-16 1.00794 0
1.90634e-15 1.00794 0
-7.64855e-15 1.00794 0
1.53144e-14 1.0093 0
7.56585e-15 1.0093 0
-7.64855e-15 1.00794 0
4.20107e-15 1.00794 0
7.56585e-15 1.0093 0
5.06499e-15 1.0093 0
2.8305e-16 1.00655 0
5.28534e-15 1.00655 0
-1.8007e-16 1.00794 0
3.58141e-15 1.00794 0
5.28534e-15 1.00655 0
-9.07023e-15 1.00655 0
3.58141e-15 1.00794 0
5.96664e-15 1.00794 0
4.20107e-15 1.00794 0
-1.6257e-15 1.00794 0
5.06499e-15 1.0093 0
6.63463e-15 1.0093 0
-1.6257e-15 1.00794 0
-2.59483e-16 1.00794 0
6.63463e-15 1.0093 0
2.27678e-15 1.0093 0
-7.23489e-15 1.0093 0
4.7944e-15 1.0093 0
7.89585e-15 1.01064 0
9.79269e-15 1.01064 0
4.7944e-15 1.0093 0
-5.79916e-15 1.0093 0
9.79269e-15 1.01064 0
1.11727e-14 1.01064 0
-1.1876e-14 1.01064 0
-6.80953e-15 1.01064 0
3.07883e-15 1.01197 0
8.41543e-16 1.01197 0
-6.80953e-15 1.01064 0
-4.10159e-16 1.01064 0
8.41543e-16 1.01197 0
1.24011e-14 1.01197 0
-5.79916e-15 1.0093 0
-6.18397e-15 1.0093 0
1.11727e-14 1.01064 0
6.30853e-15 1.01064 0
-6.18397e-15 1.0093 0
-4.13729e-16 1.0093 0
6.30853e-15 1.01064 0
5.98118e-15 1.01064 0
-4.10159e-16 1.01064 0
4.79877e-15 1.01064 0
1.24011e-14 1.01197 0
1.30865e-15 1.01197 0
4.79877e-15 1.01064 0
-7.8655e-15 1.01064 0
1.30865e-15 1.01197 0
4.85795e-15 1.01197 0
-9.07023e-15 1.00655 0
-7.26231e-16 1.00655 0
5.96664e-15 1.00794 0
2.94557e-15 1.00794 0
-7.26231e-16 1.00655 0
2.66499e-15 1.00655 0
2.94557e-15 1.00794 0
3.56536e-15 1.00794 0
-2.59483e-16 1.00794 0
-2.05451e-15 1.00794 0
2.27678e-15 1.0093 0
3.24342e-15 1.0093 0
-2.05451e-15 1.00794 0
9.02473e-16 1.00794 0
3.24342e-15 1.0093 0
-1.17005e-15 1.0093 0
2.66499e-15 1.00655 0
4.84325e-15 1.00655 0
3.56536e-15 1.00794 0
4.23307e-16 1.00794 0
4.84325e-15 1.00655 0
7.7536e-15 1.00655 0
4.23307e-16 1.00794 0
-2.3428e-15 1.00794 0
9.02473e-16 1.00794 0
-7.61955e-15 1.00794 0
-1.17005e-15 1.0093 0
1.17269e-14 1.0093 0
-7.61955e-15 1.00794 0
2.5599e-15 1.00794 0
1.17269e-14 1.0093 0
4.2966e-15 1.0093 0
-4.13729e-16 1.0093 0
2.1233e-15 1.0093 0
5.98118e-15 1.01064 0
1.25683e-15 1.01064 0
2.1233e-15 1.0093 0
-5.3821e-15 1.0093 0
1.25683e-15 1.01064 0
7.82984e-15 1.01064 0
-7.8655e-15 1.01064 0
-3.24006e-15 1.01064 0
4.85795e-15 1.01197 0
5.50477e-15 1.01197 0
-3.24006e-15 1.01064 0
-5.08574e-15 1.01064 0
5.50477e-15 1.01197 0
7.66905e-15 1.01197 0
-5.3821e-15 1.0093 0
4.32883e-16 1.0093 0
7.82984e-15 1.01064 0
1.88084e-15 1.01064 0
4.32883e-16 1.0093 0
-2.14756e-15 1.0093 0
1.88084e-15 1.01064 0
2.86825e-15 1.01064 0
-5.08574e-15 1.01064 0
-1.35353e-15 1.01064 0
7.66905e-15 1.01197 0
1.47602e-16 1.01197 0
-1.35353e-15 1.01064 0
1.83587e-15 1.01064 0
1.47602e-16 1.01197 0
6.26506e-16 1.01197 0
0 1.01197 0
-1.00102e-14 1.01197 0
0 1.01328 0
-6.94541e-15 1.01328 0
-1.00102e-14 1.01197 0
-1.10733e-13 1.01197 0
-6.94541e-15 1.01328 0
-9.97278e-14 1.01328 0
0 1.01328 0
1.30353e-14 1.01328 0
0 1.01458 0
1.33622e-14 1.01458 0
1.30353e-14 1.01328 0
9.48978e-14 1.01328 0
1.33622e-14 1.01458 0
8.9066e-14 1.01458 0
-1.10733e-13 1.01197 0
1.38376e-14 1.01197 0
-9.97278e-14 1.01328 0
1.15728e-14 1.01328 0
1.38376e-14 1.01197 0
1.04395e-13 1.01197 0
1.15728e-14 1.01328 0
1.02765e-13 1.01328 0
9.48978e-14 1.01328 0
-3.68603e-14 1.01328 0
8.9066e-14 1.01458 0
-2.74162e-14 1.01458 0
-3.68603e-14 1.01328 0
-2.53814e-14 1.01328 0
-2.74162e-14 1.01458 0
-2.95966e-14 1.01458 0
0 1.01458 0
-1.90874e-14 1.01458 0
0 1.01589 0
-1.99742e-14 1.01589 0
-1.90874e-14 1.01458 0
-6.20696e-14 1.01458 0
-1.99742e-14 1.01589 0
-6.11114e-14 1.01589 0
0 1.01589 0
-6.29535e-17 1.01589 0
0 1.01722 0
2.6602e-15 1.01722 0
-6.29535e-17 1.01589 0
2.20271e-14 1.01589 0
2.6602e-15 1.01722 0
2.06433e-14 1.01722 0
-6.20696e-14 1.01458 0
5.88889e-15 1.01458 0
-6.11114e-14 1.01589 0
5.95897e-15 1.01589 0
5.88889e-15 1.01458 0
7.82642e-15 1.01458 0
5.95897e-15 1.01589 0
4.85484e-15 1.01589 0
2.20271e-14 1.01589 0
-7.91568e-15 1.01589 0
2.06433e-14 1.01722 0
-4.59205e-15 1.01722 0
-7.91568e-15 1.01589 0
-2.50272e-15 1.01589 0
-4.59205e-15 1.01722 0
-3.04127e-15 1.01722 0
1.04395e-13 1.01197 0
1.89593e-14 1.01197 0
1.02765e-13 1.01328 0
1.55087e-14 1.01328 0
1.89593e-14 1.01197 0
-3.96951e-15 1.01197 0
1.55087e-14 1.01328 0
5.91402e-15 1.01328 0
-2.53814e-14 1.01328 0
2.83716e-14 1.01328 0
-2.95966e-14 1.01458 0
2.71197e-14 1.01458 0
2.83716e-14 1.01328 0
-6.28027e-15 1.01328 0
2.71197e-14 1.01458 0
3.47653e-15 1.01458 0
-3.96951e-15 1.01197 0
2.65573e-16 1.01197 0
5.91402e-15 1.01328 0
2.75557e-15 1.01328 0
2.65573e-16 1.01197 0
8.25253e-15 1.01197 0
2.75557e-15 1.01328 0
4.59994e-15 1.01328 0
-6.28027e-15 1.01328 0
7.8226e-17 1.01328 0
3.47653e-15 1.01458 0
3.45767e-15 1.01458 0
7.8226e-17 1.01328 0
-2.70301e-15 1.01328 0
3.45767e-15 1.01458 0
9.37924e-16 1.01458 0
7.82642e-15 1.01458 0
-1.32044e-14 1.01458 0
4.85484e-15 1.01589 0
-1.01545e-14 1.01589 0
-1.32044e-14 1.01458 0
-1.83763e-16 1.01458 0
-1.01545e-14 1.01589 0
4.49624e-16 1.01589 0
-2.50272e-15 1.01589 0
-3.18162e-15 1.01589 0
-3.04127e-15 1.01722 0
5.377e-16 1.01722 0
-3.18162e-15 1.01589 0
-3.30961e-16 1.01589 0
5.377e-16 1.01722 0
1.47865e-15 1.01722 0
-1.83763e-16 1.01458 0
-1.38074e-15 1.01458 0
4.49624e-16 1.01589 0
4.48612e-15 1.01589 0
-1.38074e-15 1.01458 0
-3.4602e-15 1.01458 0
4.48612e-15 1.01589 0
3.741e-15 1.01589 0
-3.30961e-16 1.01589 0
-2.79769e-15 1.01589 0
1.47865e-15 1.01722 0
1.65479e-15 1.01722 0
-2.79769e-15 1.01589 0
-1.44206e-15 1.01589 0
1.65479e-15 1.01722 0
4.4538e-15 1.01722 0
0 1.01722 0
2.33771e-14 1.01722 0
0 1.01856 0
2.29805e-14 1.01856 0
2.33771e-14 1.01722 0
-2.24703e-14 1.01722 0
2.29805e-14 1.01856 0
-2.10061e-14 1.01856 0
0 1.01856 0
-2.54905e-14 1.01856 0
0 1.01987 0
-2.14168e-14 1.01987 0
-2.54905e-14 1.01856 0
3.90714e-14 1.01856 0
-2.14168e-14 1.01987 0
3.41483e-14 1.01987 0
-2.24703e-14 1.01722 0
-7.14141e-16 1.01722 0
-2.10061e-14 1.01856 0
1.52786e-15 1.01856 0
-7.14141e-16 1.01722 0
-1.4107e-14 1.01722 0
1.52786e-15 1.01856 0
-4.99215e-15 1.01856 0
3.90714e-14 1.01856 0
2.01074e-15 1.01856 0
3.41483e-14 1.01987 0
7.48418e-15 1.01987 0
2.01074e-15 1.01856 0
2.84305e-15 1.01856 0
7.48418e-15 1.01987 0
1.29055e-15 1.01987 0
0 1.01987 0
1.66348e-14 1.01987 0
0 1.02101 0
1.38729e-14 1.02101 0
1.66348e-14 1.01987 0
-2.1086e-14 1.01987 0
1.38729e-14 1.02101 0
-2.02355e-14 1.02101 0
0 1.02101 0
-1.06417e-15 1.02101 0
0 1.02149 0
-1.44811e-14 1.02149 0
-1.06417e-15 1.02101 0
-1.94787e-15 1.02101 0
-1.44811e-14 1.02149 0
1.55897e-14 1.02149 0
-2.1086e-14 1.01987 0
3.37854e-17 1.01987 0
-2.02355e-14 1.02101 0
-6.6233e-16 1.02101 0
3.37854e-17 1.01987 0
1.66168e-15 1.01987 0
-6.6233e-16 1.02101 0
3.45331e-15 1.02101 0
-1.94787e-15 1.02101 0
-3.06499e-15 1.02101 0
1.55897e-14 1.02149 0
-1.39729e-14 1.02149 0
-3.06499e-15 1.02101 0
-5.61666e-16 1.02101 0
-1.39729e-14 1.02149 0
1.35667e-14 1.02149 0
-1.4107e-14 1.01722 0
-6.13462e-15 1.01722 0
-4.99215e-15 1.01856 0
2.65509e-15 1.01856 0
-6.13462e-15 1.01722 0
1.34867e-15 1.01722 0
2.65509e-15 1.01856 0
2.23074e-15 1.01856 0
2.84305e-15 1.01856 0
-1.96509e-15 1.01856 0
1.29055e-15 1.01987 0
2.87307e-15 1.01987 0
-1.96509e-15 1.01856 0
-5.07928e-15 1.01856 0
2.87307e-15 1.01987 0
3.68518e-15 1.01987 0
1.34867e-15 1.01722 0
2.36513e-15 1.01722 0
2.23074e-15 1.01856 0
4.9476e-16 1.01856 0
2.36513e-15 1.01722 0
-8.26624e-16 1.01722 0
4.9476e-16 1.01856 0
9.36307e-16 1.01856 0
-5.07928e-15 1.01856 0
-5.25541e-15 1.01856 0
3.68518e-15 1.01987 0
1.4453e-15 1.01987 0
-5.25541e-15 1.01856 0
-1.03817e-15 1.01856 0
1.4453e-15 1.01987 0
8.97996e-16 1.01987 0
1.66168e-15 1.01987 0
-1.08443e-15 1.01987 0
3.45331e-15 1.02101 0
2.62735e-15 1.02101 0
-1.08443e-15 1.01987 0
-7.17453e-16 1.01987 0
2.62735e-15 1.02101 0
2.17444e-15 1.02101 0
-5.61666e-16 1.02101 0
-3.86067e-15 1.02101 0
1.35667e-14 1.02149 0
3.7874e-15 1.02149 0
-3.86067e-15 1.02101 0
-4.30075e-16 1.02101 0
3.7874e-15 1.02149 0
-8.56589e-16 1.02149 0
-7.17453e-16 1.01987 0
-2.27984e-15 1.01987 0
2.17444e-15 1.02101 0
3.11393e-15 1.02101 0
-2.27984e-15 1.01987 0
-2.59259e-15 1.01987 0
3.11393e-15 1.02101 0
5.1084e-15 1.02101 0
-4.30075e-16 1.02101 0
-1.13532e-15 1.02101 0
-8.56589e-16 1.02149 0
5.24911e-15 1.02149 0
-1.13532e-15 1.02101 0
8.84173e-16 1.02101 0
5.24911e-15 1.02149 0
-1.61018e-14 1.02149 0
8.25253e-15 1.01197 0
5.51638e-15 1.01197 0
4.59994e-15 1.01328 0
7.02251e-15 1.01328 0
5.51638e-15 1.01197 0
-7.67461e-15 1.01197 0
7.02251e-15 1.01328 0
-4.20447e-15 1.01328 0
-2.70301e-15 1.01328 0
-3.904e-15 1.01328 0
9.37924e-16 1.01458 0
4.07638e-15 1.01458 0
-3.904e-15 1.01328 0
-1.51235e-15 1.01328 0
4.07638e-15 1.01458 0
5.74065e-15 1.01458 0
-7.67461e-15 1.01197 0
-5.24406e-15 1.01197 0
-4.20447e-15 1.01328 0
2.761e-15 1.01328 0
-5.24406e-15 1.01197 0
-9.8458e-16 1.01197 0
2.761e-15 1.01328 0
3.30655e-15 1.01328 0
-1.51235e-15 1.01328 0
-4.66225e-15 1.01328 0
5.74065e-15 1.01458 0
2.89621e-15 1.01458 0
-4.66225e-15 1.01328 0
-2.17497e-15 1.01328 0
2.89621e-15 1.01458 0
3.86333e-15 1.01458 0
-3.4602e-15 1.01458 0
-2.14978e-15 1.01458 0
3.741e-15 1.01589 0
5.02873e-15 1.01589 0
-2.14978e-15 1.01458 0
-5.52061e-15 1.01458 0
5.02873e-15 1.01589 0
2.8881e-15 1.01589 0
-1.44206e-15 1.01589 0
-4.52672e-15 1.01589 0
4.4538e-15 1.01722 0
5.36903e-15 1.01722 0
-4.52672e-15 1.01589 0
-5.17884e-16 1.01589 0
5.36903e-15 1.01722 0
-5.4679e-17 1.01722 0
-5.52061e-15 1.01458 0
-4.44202e-16 1.01458 0
2.8881e-15 1.01589 0
4.85711e-15 1.01589 0
-4.44202e-16 1.01458 0
-4.6029e-15 1.01458 0
4.85711e-15 1.01589 0
3.04595e-15 1.01589 0
-5.17884e-16 1.01589 0
-3.14783e-15 1.01589 0
-5.4679e-17 1.01722 0
2.41525e-15 1.01722 0
-3.14783e-15 1.01589 0
1.41829e-15 1.01589 0
2.41525e-15 1.01722 0
-7.15606e-16 1.01722 0
-9.8458e-16 1.01197 0
-3.89295e-16 1.01197 0
3.30655e-15 1.01328 0
2.64418e-15 1.01328 0
-3.89295e-16 1.01197 0
-1.20791e-15 1.01197 0
2.64418e-15 1.01328 0
7.91033e-15 1.01328 0
-2.17497e-15 1.01328 0
-4.19858e-15 1.01328 0
3.86333e-15 1.01458 0
3.12468e-15 1.01458 0
-4.19858e-15 1.01328 0
1.86026e-15 1.01328 0
3.12468e-15 1.01458 0
-1.5967e-15 1.01458 0
-1.20791e-15 1.01197 0
-1.58879e-15 1.01197 0
7.91033e-15 1.01328 0
4.58912e-15 1.01328 0
-1.58879e-15 1.01197 0
4.395e-15 1.01197 0
4.58912e-15 1.01328 0
1.43985e-15 1.01328 0
1.86026e-15 1.01328 0
4.16167e-15 1.01328 0
-1.5967e-15 1.01458 0
-1.66041e-15 1.01458 0
4.16167e-15 1.01328 0
-7.11275e-16 1.01328 0
-1.66041e-15 1.01458 0
2.9298e-15 1.01458 0
-4.6029e-15 1.01458 0
1.19392e-16 1.01458 0
3.04595e-15 1.01589 0
-8.46448e-16 1.01589 0
1.19392e-16 1.01458 0
8.21422e-16 1.01458 0
-8.46448e-16 1.01589 0
4.74916e-15 1.01589 0
1.41829e-15 1.01589 0
1.74259e-15 1.01589 0
-7.15606e-16 1.01722 0
1.269e-15 1.01722 0
1.74259e-15 1.01589 0
-5.81729e-15 1.01589 0
1.269e-15 1.01722 0
5.51989e-15 1.01722 0
8.21422e-16 1.01458 0
3.00156e-15 1.01458 0
4.74916e-15 1.01589 0
-4.62582e-16 1.01589 0
3.00156e-15 1.01458 0
-2.07847e-15 1.01458 0
-4.62582e-16 1.01589 0
4.8258e-15 1.01589 0
-5.81729e-15 1.01589 0
-1.76847e-15 1.01589 0
5.51989e-15 1.01722 0
5.53562e-16 1.01722 0
-1.76847e-15 1.01589 0
2.39955e-15 1.01589 0
5.53562e-16 1.01722 0
5.09795e-16 1.01722 0
-8.26624e-16 1.01722 0
-5.80947e-15 1.01722 0
9.36307e-16 1.01856 0
3.62856e-15 1.01856 0
-5.80947e-15 1.01722 0
-3.14621e-15 1.01722 0
3.62856e-15 1.01856 0
2.10411e-15 1.01856 0
-1.03817e-15 1.01856 0
2.48675e-16 1.01856 0
8.97996e-16 1.01987 0
-4.66938e-16 1.01987 0
2.48675e-16 1.01856 0
-1.23566e-15 1.01856 0
-4.66938e-16 1.01987 0
2.17105e-15 1.01987 0
-3.14621e-15 1.01722 0
1.24853e-16 1.01722 0
2.10411e-15 1.01856 0
2.80811e-15 1.01856 0
1.24853e-16 1.01722 0
-3.13199e-15 1.01722 0
2.80811e-15 1.01856 0
5.41358e-15 1.01856 0
-1.23566e-15 1.01856 0
-3.91317e-15 1.01856 0