# vtk DataFile Version 3.0
#This file was generated by the deal.II library on 2018/10/12 at 0:13:36
ASCII
DATASET UNSTRUCTURED_GRID

POINTS 5120 double
0 0 0
0.392699 0 0
0 0.614117 0
0.392699 0.614117 0
0.392699 0 0
0.785398 0 0
0.392699 0.614117 0
0.785398 0.614117 0
0 0.614117 0
0.392699 0.614117 0
0 1.23994 0
0.392699 1.23994 0
0.392699 0.614117 0
0.785398 0.614117 0
0.392699 1.23994 0
0.785398 1.23994 0
0.785398 0 0
1.1781 0 0
0.785398 0.614117 0
1.1781 0.614117 0
1.1781 0 0
1.5708 0 0
1.1781 0.614117 0
1.5708 0.614117 0
0.785398 0.614117 0
1.1781 0.614117 0
0.785398 1.23994 0
1.1781 1.23994 0
1.1781 0.614117 0
1.5708 0.614117 0
1.1781 1.23994 0
1.5708 1.23994 0
0 1.23994 0
0.392699 1.23994 0
0 1.86528 0
0.392699 1.86528 0
0.392699 1.23994 0
0.785398 1.23994 0
0.392699 1.86528 0
0.785398 1.86528 0
0 1.86528 0
0.392699 1.86528 0
0 2.49101 0
0.392699 2.49101 0
0.392699 1.86528 0
0.785398 1.86528 0
0.392699 2.49101 0
0.785398 2.49101 0
0.785398 1.23994 0
1.1781 1.23994 0
0.785398 1.86528 0
1.1781 1.86528 0
1.1781 1.23994 0
1.5708 1.23994 0
1.1781 1.86528 0
1.5708 1.86528 0
0.785398 1.86528 0
1.1781 1.86528 0
0.785398 2.49101 0
1.1781 2.49101 0
1.1781 1.86528 0
1.5708 1.86528 0
1.1781 2.49101 0
1.5708 2.49101 0
1.5708 0 0
1.9635 0 0
1.5708 0.614117 0
1.9635 0.614117 0
1.9635 0 0
2.35619 0 0
1.9635 0.614117 0
2.35619 0.614117 0
1.5708 0.614117 0
1.9635 0.614117 0
1.5708 1.23994 0
1.9635 1.23994 0
1.9635 0.614117 0
2.35619 0.614117 0
1.9635 1.23994 0
2.35619 1.23994 0
2.35619 0 0
2.74889 0 0
2.35619 0.614117 0
2.74889 0.614117 0
2.74889 0 0
3.14159 0 0
2.74889 0.614117 0
3.14159 0.614117 0
2.35619 0.614117 0
2.74889 0.614117 0
2.35619 1.23994 0
2.74889 1.23994 0
2.74889 0.614117 0
3.14159 0.614117 0
2.74889 1.23994 0
3.14159 1.23994 0
1.5708 1.23994 0
1.9635 1.23994 0
1.5708 1.86528 0
1.9635 1.86528 0
1.9635 1.23994 0
2.35619 1.23994 0
1.9635 1.86528 0
2.35619 1.86528 0
1.5708 1.86528 0
1.9635 1.86528 0
1.5708 2.49101 0
1.9635 2.49101 0
1.9635 1.86528 0
2.35619 1.86528 0
1.9635 2.49101 0
2.35619 2.49101 0
2.35619 1.23994 0
2.74889 1.23994 0
2.35619 1.86528 0
2.74889 1.86528 0
2.74889 1.23994 0
3.14159 1.23994 0
2.74889 1.86528 0
3.14159 1.86528 0
2.35619 1.86528 0
2.74889 1.86528 0
2.35619 2.49101 0
2.74889 2.49101 0
2.74889 1.86528 0
3.14159 1.86528 0
2.74889 2.49101 0
3.14159 2.49101 0
0 2.49101 0
0.392699 2.49101 0
0 3.11663 0
0.392699 3.11663 0
0.392699 2.49101 0
0.785398 2.49101 0
0.392699 3.11663 0
0.785398 3.11663 0
0 3.11663 0
0.392699 3.11663 0
0 3.74225 0
0.392699 3.74225 0
0.392699 3.11663 0
0.785398 3.11663 0
0.392699 3.74225 0
0.785398 3.74225 0
0.785398 2.49101 0
1.1781 2.49101 0
0.785398 3.11663 0
1.1781 3.11663 0
1.1781 2.49101 0
1.5708 2.49101 0
1.1781 3.11663 0
1.5708 3.11663 0
0.785398 3.11663 0
1.1781 3.11663 0
0.785398 3.74225 0
1.1781 3.74225 0
1.1781 3.11663 0
1.5708 3.11663 0
1.1781 3.74225 0
1.5708 3.74225 0
0 3.74225 0
0.392699 3.74225 0
0 4.36784 0
0.392699 4.36784 0
0.392699 3.74225 0
0.785398 3.74225 0
0.392699 4.36784 0
0.785398 4.36784 0
0 4.36784 0
0.392699 4.36784 0
0 4.9934 0
0.392699 4.9934 0
0.392699 4.36784 0
0.785398 4.36784 0
0.392699 4.9934 0
0.785398 4.9934 0
0.785398 3.74225 0
1.1781 3.74225 0
0.785398 4.36784 0
1.1781 4.36784 0
1.1781 3.74225 0
1.5708 3.74225 0
1.1781 4.36784 0
1.5708 4.36784 0
0.785398 4.36784 0
1.1781 4.36784 0
0.785398 4.9934 0
1.1781 4.9934 0
1.1781 4.36784 0
1.5708 4.36784 0
1.1781 4.9934 0
1.5708 4.9934 0
1.5708 2.49101 0
1.9635 2.49101 0
1.5708 3.11663 0
1.9635 3.11663 0
1.9635 2.49101 0
2.35619 2.49101 0
1.9635 3.11663 0
2.35619 3.11663 0
1.5708 3.11663 0
1.9635 3.11663 0
1.5708 3.74225 0
1.9635 3.74225 0
1.9635 3.11663 0
2.35619 3.11663 0
1.9635 3.74225 0
2.35619 3.74225 0
2.35619 2.49101 0
2.74889 2.49101 0
2.35619 3.11663 0
2.74889 3.11663 0
2.74889 2.49101 0
3.14159 2.49101 0
2.74889 3.11663 0
3.14159 3.11663 0
2.35619 3.11663 0
2.74889 3.11663 0
2.35619 3.74225 0
2.74889 3.74225 0
2.74889 3.11663 0
3.14159 3.11663 0
2.74889 3.74225 0
3.14159 3.74225 0
1.5708 3.74225 0
1.9635 3.74225 0
1.5708 4.36784 0
1.9635 4.36784 0
1.9635 3.74225 0
2.35619 3.74225 0
1.9635 4.36784 0
2.35619 4.36784 0
1.5708 4.36784 0
1.9635 4.36784 0
1.5708 4.9934 0
1.9635 4.9934 0
1.9635 4.36784 0
2.35619 4.36784 0
1.9635 4.9934 0
2.35619 4.9934 0
2.35619 3.74225 0
2.74889 3.74225 0
2.35619 4.36784 0
2.74889 4.36784 0
2.74889 3.74225 0
3.14159 3.74225 0
2.74889 4.36784 0
3.14159 4.36784 0
2.35619 4.36784 0
2.74889 4.36784 0
2.35619 4.9934 0
2.74889 4.9934 0
2.74889 4.36784 0
3.14159 4.36784 0
2.74889 4.9934 0
3.14159 4.9934 0
3.14159 0 0
3.53429 0 0
3.14159 0.614117 0
3.53429 0.614117 0
3.53429 0 0
3.92699 0 0
3.53429 0.614117 0
3.92699 0.614117 0
3.14159 0.614117 0
3.53429 0.614117 0
3.14159 1.23994 0
3.53429 1.23994 0
3.53429 0.614117 0
3.92699 0.614117 0
3.53429 1.23994 0
3.92699 1.23994 0
3.92699 0 0
4.31969 0 0
3.92699 0.614117 0
4.31969 0.614117 0
4.31969 0 0
4.71239 0 0
4.31969 0.614117 0
4.71239 0.614117 0
3.92699 0.614117 0
4.31969 0.614117 0
3.92699 1.23994 0
4.31969 1.23994 0
4.31969 0.614117 0
4.71239 0.614117 0
4.31969 1.23994 0
4.71239 1.23994 0
3.14159 1.23994 0
3.53429 1.23994 0
3.14159 1.86528 0
3.53429 1.86528 0
3.53429 1.23994 0
3.92699 1.23994 0
3.53429 1.86528 0
3.92699 1.86528 0
3.14159 1.86528 0
3.53429 1.86528 0
3.14159 2.49101 0
3.53429 2.49101 0
3.53429 1.86528 0
3.92699 1.86528 0
3.53429 2.49101 0
3.92699 2.49101 0
3.92699 1.23994 0
4.31969 1.23994 0
3.92699 1.86528 0
4.31969 1.86528 0
4.31969 1.23994 0
4.71239 1.23994 0
4.31969 1.86528 0
4.71239 1.86528 0
3.92699 1.86528 0
4.31969 1.86528 0
3.92699 2.49101 0
4.31969 2.49101 0
4.31969 1.86528 0
4.71239 1.86528 0
4.31969 2.49101 0
4.71239 2.49101 0
4.71239 0 0
5.10509 0 0
4.71239 0.614117 0
5.10509 0.614117 0
5.10509 0 0
5.49779 0 0
5.10509 0.614117 0
5.49779 0.614117 0
4.71239 0.614117 0
5.10509 0.614117 0
4.71239 1.23994 0
5.10509 1.23994 0
5.10509 0.614117 0
5.49779 0.614117 0
5.10509 1.23994 0
5.49779 1.23994 0
5.49779 0 0
5.89049 0 0
5.49779 0.614117 0
5.89049 0.614117 0
5.89049 0 0
6.28319 0 0
5.89049 0.614117 0
6.28319 0.614117 0
5.49779 0.614117 0
5.89049 0.614117 0
5.49779 1.23994 0
5.89049 1.23994 0
5.89049 0.614117 0
6.28319 0.614117 0
5.89049 1.23994 0
6.28319 1.23994 0
4.71239 1.23994 0
5.10509 1.23994 0
4.71239 1.86528 0
5.10509 1.86528 0
5.10509 1.23994 0
5.49779 1.23994 0
5.10509 1.86528 0
5.49779 1.86528 0
4.71239 1.86528 0
5.10509 1.86528 0
4.71239 2.49101 0
5.10509 2.49101 0
5.10509 1.86528 0
5.49779 1.86528 0
5.10509 2.49101 0
5.49779 2.49101 0
5.49779 1.23994 0
5.89049 1.23994 0
5.49779 1.86528 0
5.89049 1.86528 0
5.89049 1.23994 0
6.28319 1.23994 0
5.89049 1.86528 0
6.28319 1.86528 0
5.49779 1.86528 0
5.89049 1.86528 0
5.49779 2.49101 0
5.89049 2.49101 0
5.89049 1.86528 0
6.28319 1.86528 0
5.89049 2.49101 0
6.28319 2.49101 0
3.14159 2.49101 0
3.53429 2.49101 0
3.14159 3.11663 0
3.53429 3.11663 0
3.53429 2.49101 0
3.92699 2.49101 0
3.53429 3.11663 0
3.92699 3.11663 0
3.14159 3.11663 0
3.53429 3.11663 0
3.14159 3.74225 0
3.53429 3.74225 0
3.53429 3.11663 0
3.92699 3.11663 0
3.53429 3.74225 0
3.92699 3.74225 0
3.92699 2.49101 0
4.31969 2.49101 0
3.92699 3.11663 0
4.31969 3.11663 0
4.31969 2.49101 0
4.71239 2.49101 0
4.31969 3.11663 0
4.71239 3.11663 0
3.92699 3.11663 0
4.31969 3.11663 0
3.92699 3.74225 0
4.31969 3.74225 0
4.31969 3.11663 0
4.71239 3.11663 0
4.31969 3.74225 0
4.71239 3.74225 0
3.14159 3.74225 0
3.53429 3.74225 0
3.14159 4.36784 0
3.53429 4.36784 0
3.53429 3.74225 0
3.92699 3.74225 0
3.53429 4.36784 0
3.92699 4.36784 0
3.14159 4.36784 0
3.53429 4.36784 0
3.14159 4.9934 0
3.53429 4.9934 0
3.53429 4.36784 0
3.92699 4.36784 0
3.53429 4.9934 0
3.92699 4.9934 0
3.92699 3.74225 0
4.31969 3.74225 0
3.92699 4.36784 0
4.31969 4.36784 0
4.31969 3.74225 0
4.71239 3.74225 0
4.31969 4.36784 0
4.71239 4.36784 0
3.92699 4.36784 0
4.31969 4.36784 0
3.92699 4.9934 0
4.31969 4.9934 0
4.31969 4.36784 0
4.71239 4.36784 0
4.31969 4.9934 0
4.71239 4.9934 0
4.71239 2.49101 0
5.10509 2.49101 0
4.71239 3.11663 0
5.10509 3.11663 0
5.10509 2.49101 0
5.49779 2.49101 0
5.10509 3.11663 0
5.49779 3.11663 0
4.71239 3.11663 0
5.10509 3.11663 0
4.71239 3.74225 0
5.10509 3.74225 0
5.10509 3.11663 0
5.49779 3.11663 0
5.10509 3.74225 0
5.49779 3.74225 0
5.49779 2.49101 0
5.89049 2.49101 0
5.49779 3.11663 0
5.89049 3.11663 0
5.89049 2.49101 0
6.28319 2.49101 0
5.89049 3.11663 0
6.28319 3.11663 0
5.49779 3.11663 0
5.89049 3.11663 0
5.49779 3.74225 0
5.89049 3.74225 0
5.89049 3.11663 0
6.28319 3.11663 0
5.89049 3.74225 0
6.28319 3.74225 0
4.71239 3.74225 0
5.10509 3.74225 0
4.71239 4.36784 0
5.10509 4.36784 0
5.10509 3.74225 0
5.49779 3.74225 0
5.10509 4.36784 0
5.49779 4.36784 0
4.71239 4.36784 0
5.10509 4.36784 0
4.71239 4.9934 0
5.10509 4.9934 0
5.10509 4.36784 0
5.49779 4.36784 0
5.10509 4.9934 0
5.49779 4.9934 0
5.49779 3.74225 0
5.89049 3.74225 0
5.49779 4.36784 0
5.89049 4.36784 0
5.89049 3.74225 0
6.28319 3.74225 0
5.89049 4.36784 0
6.28319 4.36784 0
5.49779 4.36784 0
5.89049 4.36784 0
5.49779 4.9934 0
5.89049 4.9934 0
5.89049 4.36784 0
6.28319 4.36784 0
5.89049 4.9934 0
6.28319 4.9934 0
0 4.9934 0
0.392699 4.9934 0
0 5.61893 0
0.392699 5.61893 0
0.392699 4.9934 0
0.785398 4.9934 0
0.392699 5.61893 0
0.785398 5.61893 0
0 5.61893 0
0.392699 5.61893 0
0 6.24441 0
0.392699 6.24441 0
0.392699 5.61893 0
0.785398 5.61893 0
0.392699 6.24441 0
0.785398 6.24441 0
0.785398 4.9934 0
1.1781 4.9934 0
0.785398 5.61893 0
1.1781 5.61893 0
1.1781 4.9934 0
1.5708 4.9934 0
1.1781 5.61893 0
1.5708 5.61893 0
0.785398 5.61893 0
1.1781 5.61893 0
0.785398 6.24441 0
1.1781 6.24441 0
1.1781 5.61893 0
1.5708 5.61893 0
1.1781 6.24441 0
1.5708 6.24441 0
0 6.24441 0
0.392699 6.24441 0
0 6.86988 0
0.392699 6.86988 0
0.392699 6.24441 0
0.785398 6.24441 0
0.392699 6.86988 0
0.785398 6.86988 0
0 6.86988 0
0.392699 6.86988 0
0 7.49534 0
0.392699 7.49534 0
0.392699 6.86988 0
0.785398 6.86988 0
0.392699 7.49534 0
0.785398 7.49534 0
0.785398 6.24441 0
1.1781 6.24441 0
0.785398 6.86988 0
1.1781 6.86988 0
1.1781 6.24441 0
[...]
POINT_DATA 5120
VECTORS velocity double
0 0 0
0 0 0
0 -0.00210912 0
-7.60645e-15 -0.00210912 0
0 0 0
0 0 0
-7.60645e-15 -0.00210912 0
-8.27869e-16 -0.00210912 0
0 -0.00210912 0
-7.60645e-15 -0.00210912 0
0 -0.0019461 0
-1.16042e-14 -0.0019461 0
-7.60645e-15 -0.00210912 0
-8.27869e-16 -0.00210912 0
-1.16042e-14 -0.0019461 0
1.6798e-16 -0.0019461 0
0 0 0
0 0 0
-8.27869e-16 -0.00210912 0
1.09241e-14 -0.00210912 0
0 0 0
0 0 0
1.09241e-14 -0.00210912 0
5.13466e-15 -0.00210912 0
-8.27869e-16 -0.00210912 0
1.09241e-14 -0.00210912 0
1.6798e-16 -0.0019461 0
-7.14895e-16 -0.0019461 0
1.09241e-14 -0.00210912 0
5.13466e-15 -0.00210912 0
-7.14895e-16 -0.0019461 0
-7.02744e-15 -0.0019461 0
0 -0.0019461 0
-1.16042e-14 -0.0019461 0
0 -0.001864 0
-1.45135e-14 -0.001864 0
-1.16042e-14 -0.0019461 0
1.6798e-16 -0.0019461 0
-1.45135e-14 -0.001864 0
-5.63247e-15 -0.001864 0
0 -0.001864 0
-1.45135e-14 -0.001864 0
0 -0.00170533 0
3.43483e-16 -0.00170533 0
-1.45135e-14 -0.001864 0
-5.63247e-15 -0.001864 0
3.43483e-16 -0.00170533 0
4.91113e-15 -0.00170533 0
1.6798e-16 -0.0019461 0
-7.14895e-16 -0.0019461 0
-5.63247e-15 -0.001864 0
-7.06941e-15 -0.001864 0
-7.14895e-16 -0.0019461 0
-7.02744e-15 -0.0019461 0
-7.06941e-15 -0.001864 0
-1.01778e-14 -0.001864 0
-5.63247e-15 -0.001864 0
-7.06941e-15 -0.001864 0
4.91113e-15 -0.00170533 0
2.92629e-15 -0.00170533 0
-7.06941e-15 -0.001864 0
-1.01778e-14 -0.001864 0
2.92629e-15 -0.00170533 0
-8.80483e-15 -0.00170533 0
0 0 0
0 0 0
5.13466e-15 -0.00210912 0
-1.01195e-14 -0.00210912 0
0 0 0
0 0 0
-1.01195e-14 -0.00210912 0
-1.34533e-14 -0.00210912 0
5.13466e-15 -0.00210912 0
-1.01195e-14 -0.00210912 0
-7.02744e-15 -0.0019461 0
-3.12535e-16 -0.0019461 0
-1.01195e-14 -0.00210912 0
-1.34533e-14 -0.00210912 0
-3.12535e-16 -0.0019461 0
-8.67374e-17 -0.0019461 0
0 0 0
0 0 0
-1.34533e-14 -0.00210912 0
2.39941e-15 -0.00210912 0
0 0 0
0 0 0
2.39941e-15 -0.00210912 0
-2.03396e-15 -0.00210912 0
-1.34533e-14 -0.00210912 0
2.39941e-15 -0.00210912 0
-8.67374e-17 -0.0019461 0
-9.44162e-16 -0.0019461 0
2.39941e-15 -0.00210912 0
-2.03396e-15 -0.00210912 0
-9.44162e-16 -0.0019461 0
-1.06039e-14 -0.0019461 0
-7.02744e-15 -0.0019461 0
-3.12535e-16 -0.0019461 0
-1.01778e-14 -0.001864 0
2.62566e-15 -0.001864 0
-3.12535e-16 -0.0019461 0
-8.67374e-17 -0.0019461 0
2.62566e-15 -0.001864 0
3.24194e-15 -0.001864 0
-1.01778e-14 -0.001864 0
2.62566e-15 -0.001864 0
-8.80483e-15 -0.00170533 0
3.33333e-15 -0.00170533 0
2.62566e-15 -0.001864 0
3.24194e-15 -0.001864 0
3.33333e-15 -0.00170533 0
4.25495e-16 -0.00170533 0
-8.67374e-17 -0.0019461 0
-9.44162e-16 -0.0019461 0
3.24194e-15 -0.001864 0
-9.22138e-15 -0.001864 0
-9.44162e-16 -0.0019461 0
-1.06039e-14 -0.0019461 0
-9.22138e-15 -0.001864 0
-4.36312e-15 -0.001864 0
3.24194e-15 -0.001864 0
-9.22138e-15 -0.001864 0
4.25495e-16 -0.00170533 0
-6.89278e-15 -0.00170533 0
-9.22138e-15 -0.001864 0
-4.36312e-15 -0.001864 0
-6.89278e-15 -0.00170533 0
-1.44379e-15 -0.00170533 0
0 -0.00170533 0
3.43483e-16 -0.00170533 0
0 -0.00156728 0
-7.11516e-16 -0.00156728 0
3.43483e-16 -0.00170533 0
4.91113e-15 -0.00170533 0
-7.11516e-16 -0.00156728 0
-5.052e-16 -0.00156728 0
0 -0.00156728 0
-7.11516e-16 -0.00156728 0
0 -0.00142779 0
9.50607e-16 -0.00142779 0
-7.11516e-16 -0.00156728 0
-5.052e-16 -0.00156728 0
9.50607e-16 -0.00142779 0
8.09207e-15 -0.00142779 0
4.91113e-15 -0.00170533 0
2.92629e-15 -0.00170533 0
-5.052e-16 -0.00156728 0
-3.98511e-16 -0.00156728 0
2.92629e-15 -0.00170533 0
-8.80483e-15 -0.00170533 0
-3.98511e-16 -0.00156728 0
4.22981e-15 -0.00156728 0
-5.052e-16 -0.00156728 0
-3.98511e-16 -0.00156728 0
8.09207e-15 -0.00142779 0
9.9573e-16 -0.00142779 0
-3.98511e-16 -0.00156728 0
4.22981e-15 -0.00156728 0
9.9573e-16 -0.00142779 0
-8.85877e-15 -0.00142779 0
0 -0.00142779 0
9.50607e-16 -0.00142779 0
0 -0.00129455 0
6.59005e-16 -0.00129455 0
9.50607e-16 -0.00142779 0
8.09207e-15 -0.00142779 0
6.59005e-16 -0.00129455 0
-1.2549e-14 -0.00129455 0
0 -0.00129455 0
6.59005e-16 -0.00129455 0
0 -0.00116645 0
-7.09306e-15 -0.00116645 0
6.59005e-16 -0.00129455 0
-1.2549e-14 -0.00129455 0
-7.09306e-15 -0.00116645 0
3.52051e-15 -0.00116645 0
8.09207e-15 -0.00142779 0
9.9573e-16 -0.00142779 0
-1.2549e-14 -0.00129455 0
4.20375e-15 -0.00129455 0
9.9573e-16 -0.00142779 0
-8.85877e-15 -0.00142779 0
4.20375e-15 -0.00129455 0
1.39932e-14 -0.00129455 0
-1.2549e-14 -0.00129455 0
4.20375e-15 -0.00129455 0
3.52051e-15 -0.00116645 0
1.39701e-14 -0.00116645 0
4.20375e-15 -0.00129455 0
1.39932e-14 -0.00129455 0
1.39701e-14 -0.00116645 0
-2.20259e-14 -0.00116645 0
-8.80483e-15 -0.00170533 0
3.33333e-15 -0.00170533 0
4.22981e-15 -0.00156728 0
2.49515e-15 -0.00156728 0
3.33333e-15 -0.00170533 0
4.25495e-16 -0.00170533 0
2.49515e-15 -0.00156728 0
1.68265e-16 -0.00156728 0
4.22981e-15 -0.00156728 0
2.49515e-15 -0.00156728 0
-8.85877e-15 -0.00142779 0
8.92828e-15 -0.00142779 0
2.49515e-15 -0.00156728 0
1.68265e-16 -0.00156728 0
8.92828e-15 -0.00142779 0
-1.23221e-14 -0.00142779 0
4.25495e-16 -0.00170533 0
-6.89278e-15 -0.00170533 0
1.68265e-16 -0.00156728 0
-5.44425e-15 -0.00156728 0
-6.89278e-15 -0.00170533 0
-1.44379e-15 -0.00170533 0
-5.44425e-15 -0.00156728 0
-9.52388e-15 -0.00156728 0
1.68265e-16 -0.00156728 0
-5.44425e-15 -0.00156728 0
-1.23221e-14 -0.00142779 0
-6.12873e-15 -0.00142779 0
-5.44425e-15 -0.00156728 0
-9.52388e-15 -0.00156728 0
-6.12873e-15 -0.00142779 0
-6.30546e-15 -0.00142779 0
-8.85877e-15 -0.00142779 0
8.92828e-15 -0.00142779 0
1.39932e-14 -0.00129455 0
-6.48631e-15 -0.00129455 0
8.92828e-15 -0.00142779 0
-1.23221e-14 -0.00142779 0
-6.48631e-15 -0.00129455 0
-3.03253e-15 -0.00129455 0
1.39932e-14 -0.00129455 0
-6.48631e-15 -0.00129455 0
-2.20259e-14 -0.00116645 0
5.74554e-15 -0.00116645 0
-6.48631e-15 -0.00129455 0
-3.03253e-15 -0.00129455 0
5.74554e-15 -0.00116645 0
2.39427e-15 -0.00116645 0
-1.23221e-14 -0.00142779 0
-6.12873e-15 -0.00142779 0
-3.03253e-15 -0.00129455 0
4.89475e-16 -0.00129455 0
-6.12873e-15 -0.00142779 0
-6.30546e-15 -0.00142779 0
4.89475e-16 -0.00129455 0
-7.20492e-15 -0.00129455 0
-3.03253e-15 -0.00129455 0
4.89475e-16 -0.00129455 0
2.39427e-15 -0.00116645 0
-2.45123e-18 -0.00116645 0
4.89475e-16 -0.00129455 0
-7.20492e-15 -0.00129455 0
-2.45123e-18 -0.00116645 0
-1.06378e-14 -0.00116645 0
0 0 0
0 0 0
-2.03396e-15 -0.00210912 0
-4.3125e-15 -0.00210912 0
0 0 0
0 0 0
-4.3125e-15 -0.00210912 0
5.1185e-15 -0.00210912 0
-2.03396e-15 -0.00210912 0
-4.3125e-15 -0.00210912 0
-1.06039e-14 -0.0019461 0
3.12343e-15 -0.0019461 0
-4.3125e-15 -0.00210912 0
5.1185e-15 -0.00210912 0
3.12343e-15 -0.0019461 0
8.08677e-16 -0.0019461 0
0 0 0
0 0 0
5.1185e-15 -0.00210912 0
1.074e-14 -0.00210912 0
0 0 0
0 0 0
1.074e-14 -0.00210912 0
-2.56846e-15 -0.00210912 0
5.1185e-15 -0.00210912 0
1.074e-14 -0.00210912 0
8.08677e-16 -0.0019461 0
-1.84685e-14 -0.0019461 0
1.074e-14 -0.00210912 0
-2.56846e-15 -0.00210912 0
-1.84685e-14 -0.0019461 0
-5.30042e-15 -0.0019461 0
-1.06039e-14 -0.0019461 0
3.12343e-15 -0.0019461 0
-4.36312e-15 -0.001864 0
-1.43569e-14 -0.001864 0
3.12343e-15 -0.0019461 0
8.08677e-16 -0.0019461 0
-1.43569e-14 -0.001864 0
-5.01564e-15 -0.001864 0
-4.36312e-15 -0.001864 0
-1.43569e-14 -0.001864 0
-1.44379e-15 -0.00170533 0
-7.17784e-15 -0.00170533 0
-1.43569e-14 -0.001864 0
-5.01564e-15 -0.001864 0
-7.17784e-15 -0.00170533 0
1.74183e-15 -0.00170533 0
8.08677e-16 -0.0019461 0
-1.84685e-14 -0.0019461 0
-5.01564e-15 -0.001864 0
1.15163e-14 -0.001864 0
-1.84685e-14 -0.0019461 0
-5.30042e-15 -0.0019461 0
1.15163e-14 -0.001864 0
-1.39928e-14 -0.001864 0
-5.01564e-15 -0.001864 0
1.15163e-14 -0.001864 0
1.74183e-15 -0.00170533 0
-1.2463e-14 -0.00170533 0
1.15163e-14 -0.001864 0
-1.39928e-14 -0.001864 0
-1.2463e-14 -0.00170533 0
7.47655e-16 -0.00170533 0
0 0 0
0 0 0
-2.56846e-15 -0.00210912 0
-5.35407e-15 -0.00210912 0
0 0 0
0 0 0
-5.35407e-15 -0.00210912 0
4.53423e-15 -0.00210912 0
-2.56846e-15 -0.00210912 0
-5.35407e-15 -0.00210912 0
-5.30042e-15 -0.0019461 0
4.90032e-15 -0.0019461 0
-5.35407e-15 -0.00210912 0
4.53423e-15 -0.00210912 0
4.90032e-15 -0.0019461 0
-1.90111e-14 -0.0019461 0
0 0 0
0 0 0
4.53423e-15 -0.00210912 0
2.56053e-16 -0.00210912 0
0 0 0
0 0 0
2.56053e-16 -0.00210912 0
6.1309e-15 -0.00210912 0
4.53423e-15 -0.00210912 0
2.56053e-16 -0.00210912 0
-1.90111e-14 -0.0019461 0
-4.08739e-15 -0.0019461 0
2.56053e-16 -0.00210912 0
6.1309e-15 -0.00210912 0
-4.08739e-15 -0.0019461 0
4.06784e-15 -0.0019461 0
-5.30042e-15 -0.0019461 0
4.90032e-15 -0.0019461 0
-1.39928e-14 -0.001864 0
-1.08284e-14 -0.001864 0
4.90032e-15 -0.0019461 0
-1.90111e-14 -0.0019461 0
-1.08284e-14 -0.001864 0
1.08803e-14 -0.001864 0
-1.39928e-14 -0.001864 0
-1.08284e-14 -0.001864 0
7.47655e-16 -0.00170533 0
-1.15904e-14 -0.00170533 0
-1.08284e-14 -0.001864 0
1.08803e-14 -0.001864 0
-1.15904e-14 -0.00170533 0
-3.43107e-15 -0.00170533 0
-1.90111e-14 -0.0019461 0
-4.08739e-15 -0.0019461 0
1.08803e-14 -0.001864 0
-1.35101e-14 -0.001864 0
-4.08739e-15 -0.0019461 0
4.06784e-15 -0.0019461 0
-1.35101e-14 -0.001864 0
-8.83033e-15 -0.001864 0
1.08803e-14 -0.001864 0
-1.35101e-14 -0.001864 0
-3.43107e-15 -0.00170533 0
-4.1549e-15 -0.00170533 0
-1.35101e-14 -0.001864 0
-8.83033e-15 -0.001864 0
-4.1549e-15 -0.00170533 0
-9.0699e-15 -0.00170533 0
-1.44379e-15 -0.00170533 0
-7.17784e-15 -0.00170533 0
-9.52388e-15 -0.00156728 0
-6.16078e-15 -0.00156728 0
-7.17784e-15 -0.00170533 0
1.74183e-15 -0.00170533 0
-6.16078e-15 -0.00156728 0
-7.68948e-15 -0.00156728 0
-9.52388e-15 -0.00156728 0
-6.16078e-15 -0.00156728 0
-6.30546e-15 -0.00142779 0
-1.52512e-14 -0.00142779 0
-6.16078e-15 -0.00156728 0
-7.68948e-15 -0.00156728 0
-1.52512e-14 -0.00142779 0
-1.30211e-14 -0.00142779 0
1.74183e-15 -0.00170533 0
-1.2463e-14 -0.00170533 0
-7.68948e-15 -0.00156728 0
-7.47071e-15 -0.00156728 0
-1.2463e-14 -0.00170533 0
7.47655e-16 -0.00170533 0
-7.47071e-15 -0.00156728 0
-5.82777e-16 -0.00156728 0
-7.68948e-15 -0.00156728 0
-7.47071e-15 -0.00156728 0
-1.30211e-14 -0.00142779 0
-1.00751e-14 -0.00142779 0
-7.47071e-15 -0.00156728 0
-5.82777e-16 -0.00156728 0
-1.00751e-14 -0.00142779 0
-1.38616e-14 -0.00142779 0
-6.30546e-15 -0.00142779 0
-1.52512e-14 -0.00142779 0
-7.20492e-15 -0.00129455 0
-8.01802e-15 -0.00129455 0
-1.52512e-14 -0.00142779 0
-1.30211e-14 -0.00142779 0
-8.01802e-15 -0.00129455 0
-1.0123e-14 -0.00129455 0
-7.20492e-15 -0.00129455 0
-8.01802e-15 -0.00129455 0
-1.06378e-14 -0.00116645 0
-6.93684e-16 -0.00116645 0
-8.01802e-15 -0.00129455 0
-1.0123e-14 -0.00129455 0
-6.93684e-16 -0.00116645 0
-1.49053e-14 -0.00116645 0
-1.30211e-14 -0.00142779 0
-1.00751e-14 -0.00142779 0
-1.0123e-14 -0.00129455 0
-1.30625e-14 -0.00129455 0
-1.00751e-14 -0.00142779 0
-1.38616e-14 -0.00142779 0
-1.30625e-14 -0.00129455 0
-1.93975e-14 -0.00129455 0
-1.0123e-14 -0.00129455 0
-1.30625e-14 -0.00129455 0
-1.49053e-14 -0.00116645 0
9.89714e-16 -0.00116645 0
-1.30625e-14 -0.00129455 0
-1.93975e-14 -0.00129455 0
9.89714e-16 -0.00116645 0
-5.54871e-15 -0.00116645 0
7.47655e-16 -0.00170533 0
-1.15904e-14 -0.00170533 0
-5.82777e-16 -0.00156728 0
-7.12564e-15 -0.00156728 0
-1.15904e-14 -0.00170533 0
-3.43107e-15 -0.00170533 0
-7.12564e-15 -0.00156728 0
-9.62025e-15 -0.00156728 0
-5.82777e-16 -0.00156728 0
-7.12564e-15 -0.00156728 0
-1.38616e-14 -0.00142779 0
-9.23589e-15 -0.00142779 0
-7.12564e-15 -0.00156728 0
-9.62025e-15 -0.00156728 0
-9.23589e-15 -0.00142779 0
-6.013e-15 -0.00142779 0
-3.43107e-15 -0.00170533 0
-4.1549e-15 -0.00170533 0
-9.62025e-15 -0.00156728 0
-5.02102e-15 -0.00156728 0
-4.1549e-15 -0.00170533 0
-9.0699e-15 -0.00170533 0
-5.02102e-15 -0.00156728 0
-9.96082e-15 -0.00156728 0
-9.62025e-15 -0.00156728 0
-5.02102e-15 -0.00156728 0
-6.013e-15 -0.00142779 0
-4.5064e-15 -0.00142779 0
-5.02102e-15 -0.00156728 0
-9.96082e-15 -0.00156728 0
-4.5064e-15 -0.00142779 0
-5.6984e-15 -0.00142779 0
-1.38616e-14 -0.00142779 0
-9.23589e-15 -0.00142779 0
-1.93975e-14 -0.00129455 0
-1.92957e-14 -0.00129455 0
-9.23589e-15 -0.00142779 0
-6.013e-15 -0.00142779 0
-1.92957e-14 -0.00129455 0
-5.16584e-15 -0.00129455 0
-1.93975e-14 -0.00129455 0
-1.92957e-14 -0.00129455 0
-5.54871e-15 -0.00116645 0
-1.61106e-14 -0.00116645 0
-1.92957e-14 -0.00129455 0
-5.16584e-15 -0.00129455 0
-1.61106e-14 -0.00116645 0
6.90538e-15 -0.00116645 0
-6.013e-15 -0.00142779 0
-4.5064e-15 -0.00142779 0
-5.16584e-15 -0.00129455 0
-2.61354e-16 -0.00129455 0
-4.5064e-15 -0.00142779 0
-5.6984e-15 -0.00142779 0
-2.61354e-16 -0.00129455 0
-1.35003e-14 -0.00129455 0
-5.16584e-15 -0.00129455 0
-2.61354e-16 -0.00129455 0
6.90538e-15 -0.00116645 0
-3.05631e-15 -0.00116645 0
-2.61354e-16 -0.00129455 0
-1.35003e-14 -0.00129455 0
-3.05631e-15 -0.00116645 0
-8.89518e-15 -0.00116645 0
0 -0.00116645 0
-7.09306e-15 -0.00116645 0
0 -0.00104473 0
-5.97891e-15 -0.00104473 0
-7.09306e-15 -0.00116645 0
3.52051e-15 -0.00116645 0
-5.97891e-15 -0.00104473 0
-8.79634e-15 -0.00104473 0
0 -0.00104473 0
-5.97891e-15 -0.00104473 0
0 -0.000929091 0
-1.42496e-15 -0.000929091 0
-5.97891e-15 -0.00104473 0
-8.79634e-15 -0.00104473 0
-1.42496e-15 -0.000929091 0
-2.22629e-15 -0.000929091 0
3.52051e-15 -0.00116645 0
1.39701e-14 -0.00116645 0
-8.79634e-15 -0.00104473 0
-3.03517e-15 -0.00104473 0
1.39701e-14 -0.00116645 0
-2.20259e-14 -0.00116645 0
-3.03517e-15 -0.00104473 0
-3.45738e-15 -0.00104473 0
-8.79634e-15 -0.00104473 0
-3.03517e-15 -0.00104473 0
-2.22629e-15 -0.000929091 0
-8.28659e-15 -0.000929091 0
-3.03517e-15 -0.00104473 0
-3.45738e-15 -0.00104473 0
-8.28659e-15 -0.000929091 0
-3.69757e-15 -0.000929091 0
0 -0.000929091 0
-1.42496e-15 -0.000929091 0
0 -0.000817481 0
-1.28181e-15 -0.000817481 0
-1.42496e-15 -0.000929091 0
-2.22629e-15 -0.000929091 0
-1.28181e-15 -0.000817481 0
5.27333e-15 -0.000817481 0
0 -0.000817481 0
-1.28181e-15 -0.000817481 0
0 -0.00070499 0
3.31148e-15 -0.00070499 0
-1.28181e-15 -0.000817481 0
5.27333e-15 -0.000817481 0
3.31148e-15 -0.00070499 0
9.73459e-15 -0.00070499 0
-2.22629e-15 -0.000929091 0
-8.28659e-15 -0.000929091 0
5.27333e-15 -0.000817481 0
1.8438e-15 -0.000817481 0
-8.28659e-15 -0.000929091 0
-3.69757e-15 -0.000929091 0
1.8438e-15 -0.000817481 0
6.12401e-15 -0.000817481 0
5.27333e-15 -0.000817481 0
1.8438e-15 -0.000817481 0
9.73459e-15 -0.00070499 0
-1.97634e-15 -0.00070499 0
1.8438e-15 -0.000817481 0
6.12401e-15 -0.000817481 0
-1.97634e-15 -0.00070499 0
4.94002e-15 -0.00070499 0
-2.20259e-14 -0.00116645 0
5.74554e-15 -0.00116645 0
-3.45738e-15 -0.00104473 0
6.64625e-15 -0.00104473 0
5.74554e-15 -0.00116645 0
2.39427e-15 -0.00116645 0
6.64625e-15 -0.00104473 0
3.95816e-15 -0.00104473 0
-3.45738e-15 -0.00104473 0
6.64625e-15 -0.00104473 0
-3.69757e-15 -0.000929091 0
9.41197e-16 -0.000929091 0
6.64625e-15 -0.00104473 0
3.95816e-15 -0.00104473 0
9.41197e-16 -0.000929091 0
-3.01989e-15 -0.000929091 0
2.39427e-15 -0.00116645 0
-2.45123e-18 -0.00116645 0
3.95816e-15 -0.00104473 0
1.03433e-14 -0.00104473 0
-2.45123e-18 -0.00116645 0
-1.06378e-14 -0.00116645 0
1.03433e-14 -0.00104473 0
7.52141e-15 -0.00104473 0
3.95816e-15 -0.00104473 0
1.03433e-14 -0.00104473 0
-3.01989e-15 -0.000929091 0
3.51291e-15 -0.000929091 0
1.03433e-14 -0.00104473 0
7.52141e-15 -0.00104473 0
3.51291e-15 -0.000929091 0
9.99995e-15 -0.000929091 0
-3.69757e-15 -0.000929091 0
9.41197e-16 -0.000929091 0
6.12401e-15 -0.000817481 0
2.035e-15 -0.000817481 0
9.41197e-16 -0.000929091 0
-3.01989e-15 -0.000929091 0
2.035e-15 -0.000817481 0
-5.30782e-15 -0.000817481 0
6.12401e-15 -0.000817481 0
2.035e-15 -0.000817481 0
4.94002e-15 -0.00070499 0
2.9632e-15 -0.00070499 0
2.035e-15 -0.000817481 0
-5.30782e-15 -0.000817481 0
2.9632e-15 -0.00070499 0
3.50372e-15 -0.00070499 0
-3.01989e-15 -0.000929091 0
3.51291e-15 -0.000929091 0
-5.30782e-15 -0.000817481 0
1.84793e-15 -0.000817481 0
3.51291e-15 -0.000929091 0
9.99995e-15 -0.000929091 0
1.84793e-15 -0.000817481 0
7.03224e-15 -0.000817481 0
-5.30782e-15 -0.000817481 0
1.84793e-15 -0.000817481 0
3.50372e-15 -0.00070499 0
1.01711e-15 -0.00070499 0
1.84793e-15 -0.000817481 0
7.03224e-15 -0.000817481 0
1.01711e-15 -0.00070499 0
-2.75197e-15 -0.00070499 0
0 -0.00070499 0
3.31148e-15 -0.00070499 0
0 -0.000580492 0
-2.13318e-15 -0.000580492 0
3.31148e-15 -0.00070499 0
9.73459e-15 -0.00070499 0
-2.13318e-15 -0.000580492 0
1.15616e-15 -0.000580492 0
0 -0.000580492 0
-2.13318e-15 -0.000580492 0
0 -0.00043567 0
-5.07739e-15 -0.00043567 0
-2.13318e-15 -0.000580492 0
1.15616e-15 -0.000580492 0
-5.07739e-15 -0.00043567 0
5.18092e-15 -0.00043567 0
9.73459e-15 -0.00070499 0
-1.97634e-15 -0.00070499 0
1.15616e-15 -0.000580492 0
-4.37601e-17 -0.000580492 0
-1.97634e-15 -0.00070499 0
4.94002e-15 -0.00070499 0
-4.37601e-17 -0.000580492 0
-2.2799e-15 -0.000580492 0
1.15616e-15 -0.000580492 0
-4.37601e-17 -0.000580492 0
5.18092e-15 -0.00043567 0
-1.84265e-15 -0.00043567 0
-4.37601e-17 -0.000580492 0
-2.2799e-15 -0.000580492 0
-1.84265e-15 -0.00043567 0
4.76043e-15 -0.00043567 0
0 -0.00043567 0
-5.07739e-15 -0.00043567 0
0 -0.000264856 0
2.75009e-15 -0.000264856 0
-5.07739e-15 -0.00043567 0
5.18092e-15 -0.00043567 0
2.75009e-15 -0.000264856 0
-6.9831e-16 -0.000264856 0
0 -0.000264856 0
2.75009e-15 -0.000264856 0
0 -0.000158905 0
-1.59062e-15 -0.000158905 0
2.75009e-15 -0.000264856 0
-6.9831e-16 -0.000264856 0
-1.59062e-15 -0.000158905 0
-5.75257e-16 -0.000158905 0
5.18092e-15 -0.00043567 0
-1.84265e-15 -0.00043567 0
-6.9831e-16 -0.000264856 0
-6.52643e-16 -0.000264856 0
-1.84265e-15 -0.00043567 0
4.76043e-15 -0.00043567 0
-6.52643e-16 -0.000264856 0
-4.74226e-16 -0.000264856 0
-6.9831e-16 -0.000264856 0
-6.52643e-16 -0.000264856 0
-5.75257e-16 -0.000158905 0
-3.18595e-15 -0.000158905 0
-6.52643e-16 -0.000264856 0
-4.74226e-16 -0.000264856 0
-3.18595e-15 -0.000158905 0
-2.36139e-15 -0.000158905 0
4.94002e-15 -0.00070499 0
2.9632e-15 -0.00070499 0
-2.2799e-15 -0.000580492 0
4.94539e-15 -0.000580492 0
2.9632e-15 -0.00070499 0
3.50372e-15 -0.00070499 0
4.94539e-15 -0.000580492 0
2.39619e-15 -0.000580492 0
-2.2799e-15 -0.000580492 0
4.94539e-15 -0.000580492 0
4.76043e-15 -0.00043567 0
-5.05221e-15 -0.00043567 0
4.94539e-15 -0.000580492 0
2.39619e-15 -0.000580492 0
-5.05221e-15 -0.00043567 0
2.86756e-15 -0.00043567 0
3.50372e-15 -0.00070499 0
1.01711e-15 -0.00070499 0
2.39619e-15 -0.000580492 0
5.32815e-15 -0.000580492 0
1.01711e-15 -0.00070499 0
-2.75197e-15 -0.00070499 0
5.32815e-15 -0.000580492 0
8.72295e-16 -0.000580492 0
2.39619e-15 -0.000580492 0
5.32815e-15 -0.000580492 0
2.86756e-15 -0.00043567 0
-8.13298e-17 -0.00043567 0
5.32815e-15 -0.000580492 0
8.72295e-16 -0.000580492 0
-8.13298e-17 -0.00043567 0
-7.56424e-15 -0.00043567 0
4.76043e-15 -0.00043567 0
-5.05221e-15 -0.00043567 0
-4.74226e-16 -0.000264856 0
-3.03429e-15 -0.000264856 0
-5.05221e-15 -0.00043567 0
2.86756e-15 -0.00043567 0
-3.03429e-15 -0.000264856 0
-1.84018e-15 -0.000264856 0
-4.74226e-16 -0.000264856 0
-3.03429e-15 -0.000264856 0
-2.36139e-15 -0.000158905 0
-5.76059e-15 -0.000158905 0
-3.03429e-15 -0.000264856 0
-1.84018e-15 -0.000264856 0
-5.76059e-15 -0.000158905 0
-4.01906e-17 -0.000158905 0
2.86756e-15 -0.00043567 0
-8.13298e-17 -0.00043567 0
-1.84018e-15 -0.000264856 0
-6.40422e-16 -0.000264856 0
-8.13298e-17 -0.00043567 0
-7.56424e-15 -0.00043567 0
-6.40422e-16 -0.000264856 0
1.38757e-15 -0.000264856 0
-1.84018e-15 -0.000264856 0
-6.40422e-16 -0.000264856 0
-4.01906e-17 -0.000158905 0
6.40616e-16 -0.000158905 0
-6.40422e-16 -0.000264856 0
1.38757e-15 -0.000264856 0
6.40616e-16 -0.000158905 0
9.65757e-16 -0.000158905 0
-1.06378e-14 -0.00116645 0
-6.93684e-16 -0.00116645 0
7.52141e-15 -0.00104473 0
4.38203e-15 -0.00104473 0
-6.93684e-16 -0.00116645 0
-1.49053e-14 -0.00116645 0
4.38203e-15 -0.00104473 0
-5.40387e-15 -0.00104473 0
7.52141e-15 -0.00104473 0
4.38203e-15 -0.00104473 0
9.99995e-15 -0.000929091 0
6.51278e-16 -0.000929091 0
4.38203e-15 -0.00104473 0
-5.40387e-15 -0.00104473 0
6.51278e-16 -0.000929091 0
-8.03377e-15 -0.000929091 0
-1.49053e-14 -0.00116645 0
9.89714e-16 -0.00116645 0
-5.40387e-15 -0.00104473 0
8.67251e-15 -0.00104473 0
9.89714e-16 -0.00116645 0
-5.54871e-15 -0.00116645 0
8.67251e-15 -0.00104473 0
-6.43987e-16 -0.00104473 0