# vtk DataFile Version 3.0
#This file was generated by the deal.II library on 2018/10/12 at 0:06:03
ASCII
DATASET UNSTRUCTURED_GRID

POINTS 5120 double
0 0 0
0.392699 0 0
0 0.615788 0
0.392699 0.615788 0
0.392699 0 0
0.785398 0 0
0.392699 0.615788 0
0.785398 0.615788 0
0 0.615788 0
0.392699 0.615788 0
0 1.24148 0
0.392699 1.24148 0
0.392699 0.615788 0
0.785398 0.615788 0
0.392699 1.24148 0
0.785398 1.24148 0
0.785398 0 0
1.1781 0 0
0.785398 0.615788 0
1.1781 0.615788 0
1.1781 0 0
1.5708 0 0
1.1781 0.615788 0
1.5708 0.615788 0
0.785398 0.615788 0
1.1781 0.615788 0
0.785398 1.24148 0
1.1781 1.24148 0
1.1781 0.615788 0
1.5708 0.615788 0
1.1781 1.24148 0
1.5708 1.24148 0
0 1.24148 0
0.392699 1.24148 0
0 1.86676 0
0.392699 1.86676 0
0.392699 1.24148 0
0.785398 1.24148 0
0.392699 1.86676 0
0.785398 1.86676 0
0 1.86676 0
0.392699 1.86676 0
0 2.49236 0
0.392699 2.49236 0
0.392699 1.86676 0
0.785398 1.86676 0
0.392699 2.49236 0
0.785398 2.49236 0
0.785398 1.24148 0
1.1781 1.24148 0
0.785398 1.86676 0
1.1781 1.86676 0
1.1781 1.24148 0
1.5708 1.24148 0
1.1781 1.86676 0
1.5708 1.86676 0
0.785398 1.86676 0
1.1781 1.86676 0
0.785398 2.49236 0
1.1781 2.49236 0
1.1781 1.86676 0
1.5708 1.86676 0
1.1781 2.49236 0
1.5708 2.49236 0
1.5708 0 0
1.9635 0 0
1.5708 0.615788 0
1.9635 0.615788 0
1.9635 0 0
2.35619 0 0
1.9635 0.615788 0
2.35619 0.615788 0
1.5708 0.615788 0
1.9635 0.615788 0
1.5708 1.24148 0
1.9635 1.24148 0
1.9635 0.615788 0
2.35619 0.615788 0
1.9635 1.24148 0
2.35619 1.24148 0
2.35619 0 0
2.74889 0 0
2.35619 0.615788 0
2.74889 0.615788 0
2.74889 0 0
3.14159 0 0
2.74889 0.615788 0
3.14159 0.615788 0
2.35619 0.615788 0
2.74889 0.615788 0
2.35619 1.24148 0
2.74889 1.24148 0
2.74889 0.615788 0
3.14159 0.615788 0
2.74889 1.24148 0
3.14159 1.24148 0
1.5708 1.24148 0
1.9635 1.24148 0
1.5708 1.86676 0
1.9635 1.86676 0
1.9635 1.24148 0
2.35619 1.24148 0
1.9635 1.86676 0
2.35619 1.86676 0
1.5708 1.86676 0
1.9635 1.86676 0
1.5708 2.49236 0
1.9635 2.49236 0
1.9635 1.86676 0
2.35619 1.86676 0
1.9635 2.49236 0
2.35619 2.49236 0
2.35619 1.24148 0
2.74889 1.24148 0
2.35619 1.86676 0
2.74889 1.86676 0
2.74889 1.24148 0
3.14159 1.24148 0
2.74889 1.86676 0
3.14159 1.86676 0
2.35619 1.86676 0
2.74889 1.86676 0
2.35619 2.49236 0
2.74889 2.49236 0
2.74889 1.86676 0
3.14159 1.86676 0
2.74889 2.49236 0
3.14159 2.49236 0
0 2.49236 0
0.392699 2.49236 0
0 3.11787 0
0.392699 3.11787 0
0.392699 2.49236 0
0.785398 2.49236 0
0.392699 3.11787 0
0.785398 3.11787 0
0 3.11787 0
0.392699 3.11787 0
0 3.74338 0
0.392699 3.74338 0
0.392699 3.11787 0
0.785398 3.11787 0
0.392699 3.74338 0
0.785398 3.74338 0
0.785398 2.49236 0
1.1781 2.49236 0
0.785398 3.11787 0
1.1781 3.11787 0
1.1781 2.49236 0
1.5708 2.49236 0
1.1781 3.11787 0
1.5708 3.11787 0
0.785398 3.11787 0
1.1781 3.11787 0
0.785398 3.74338 0
1.1781 3.74338 0
1.1781 3.11787 0
1.5708 3.11787 0
1.1781 3.74338 0
1.5708 3.74338 0
0 3.74338 0
0.392699 3.74338 0
0 4.36887 0
0.392699 4.36887 0
0.392699 3.74338 0
0.785398 3.74338 0
0.392699 4.36887 0
0.785398 4.36887 0
0 4.36887 0
0.392699 4.36887 0
0 4.99433 0
0.392699 4.99433 0
0.392699 4.36887 0
0.785398 4.36887 0
0.392699 4.99433 0
0.785398 4.99433 0
0.785398 3.74338 0
1.1781 3.74338 0
0.785398 4.36887 0
1.1781 4.36887 0
1.1781 3.74338 0
1.5708 3.74338 0
1.1781 4.36887 0
1.5708 4.36887 0
0.785398 4.36887 0
1.1781 4.36887 0
0.785398 4.99433 0
1.1781 4.99433 0
1.1781 4.36887 0
1.5708 4.36887 0
1.1781 4.99433 0
1.5708 4.99433 0
1.5708 2.49236 0
1.9635 2.49236 0
1.5708 3.11787 0
1.9635 3.11787 0
1.9635 2.49236 0
2.35619 2.49236 0
1.9635 3.11787 0
2.35619 3.11787 0
1.5708 3.11787 0
1.9635 3.11787 0
1.5708 3.74338 0
1.9635 3.74338 0
1.9635 3.11787 0
2.35619 3.11787 0
1.9635 3.74338 0
2.35619 3.74338 0
2.35619 2.49236 0
2.74889 2.49236 0
2.35619 3.11787 0
2.74889 3.11787 0
2.74889 2.49236 0
3.14159 2.49236 0
2.74889 3.11787 0
3.14159 3.11787 0
2.35619 3.11787 0
2.74889 3.11787 0
2.35619 3.74338 0
2.74889 3.74338 0
2.74889 3.11787 0
3.14159 3.11787 0
2.74889 3.74338 0
3.14159 3.74338 0
1.5708 3.74338 0
1.9635 3.74338 0
1.5708 4.36887 0
1.9635 4.36887 0
1.9635 3.74338 0
2.35619 3.74338 0
1.9635 4.36887 0
2.35619 4.36887 0
1.5708 4.36887 0
1.9635 4.36887 0
1.5708 4.99433 0
1.9635 4.99433 0
1.9635 4.36887 0
2.35619 4.36887 0
1.9635 4.99433 0
2.35619 4.99433 0
2.35619 3.74338 0
2.74889 3.74338 0
2.35619 4.36887 0
2.74889 4.36887 0
2.74889 3.74338 0
3.14159 3.74338 0
2.74889 4.36887 0
3.14159 4.36887 0
2.35619 4.36887 0
2.74889 4.36887 0
2.35619 4.99433 0
2.74889 4.99433 0
2.74889 4.36887 0
3.14159 4.36887 0
2.74889 4.99433 0
3.14159 4.99433 0
3.14159 0 0
3.53429 0 0
3.14159 0.615788 0
3.53429 0.615788 0
3.53429 0 0
3.92699 0 0
3.53429 0.615788 0
3.92699 0.615788 0
3.14159 0.615788 0
3.53429 0.615788 0
3.14159 1.24148 0
3.53429 1.24148 0
3.53429 0.615788 0
3.92699 0.615788 0
3.53429 1.24148 0
3.92699 1.24148 0
3.92699 0 0
4.31969 0 0
3.92699 0.615788 0
4.31969 0.615788 0
4.31969 0 0
4.71239 0 0
4.31969 0.615788 0
4.71239 0.615788 0
3.92699 0.615788 0
4.31969 0.615788 0
3.92699 1.24148 0
4.31969 1.24148 0
4.31969 0.615788 0
4.71239 0.615788 0
4.31969 1.24148 0
4.71239 1.24148 0
3.14159 1.24148 0
3.53429 1.24148 0
3.14159 1.86676 0
3.53429 1.86676 0
3.53429 1.24148 0
3.92699 1.24148 0
3.53429 1.86676 0
3.92699 1.86676 0
3.14159 1.86676 0
3.53429 1.86676 0
3.14159 2.49236 0
3.53429 2.49236 0
3.53429 1.86676 0
3.92699 1.86676 0
3.53429 2.49236 0
3.92699 2.49236 0
3.92699 1.24148 0
4.31969 1.24148 0
3.92699 1.86676 0
4.31969 1.86676 0
4.31969 1.24148 0
4.71239 1.24148 0
4.31969 1.86676 0
4.71239 1.86676 0
3.92699 1.86676 0
4.31969 1.86676 0
3.92699 2.49236 0
4.31969 2.49236 0
4.31969 1.86676 0
4.71239 1.86676 0
4.31969 2.49236 0
4.71239 2.49236 0
4.71239 0 0
5.10509 0 0
4.71239 0.615788 0
5.10509 0.615788 0
5.10509 0 0
5.49779 0 0
5.10509 0.615788 0
5.49779 0.615788 0
4.71239 0.615788 0
5.10509 0.615788 0
4.71239 1.24148 0
5.10509 1.24148 0
5.10509 0.615788 0
5.49779 0.615788 0
5.10509 1.24148 0
5.49779 1.24148 0
5.49779 0 0
5.89049 0 0
5.49779 0.615788 0
5.89049 0.615788 0
5.89049 0 0
6.28319 0 0
5.89049 0.615788 0
6.28319 0.615788 0
5.49779 0.615788 0
5.89049 0.615788 0
5.49779 1.24148 0
5.89049 1.24148 0
5.89049 0.615788 0
6.28319 0.615788 0
5.89049 1.24148 0
6.28319 1.24148 0
4.71239 1.24148 0
5.10509 1.24148 0
4.71239 1.86676 0
5.10509 1.86676 0
5.10509 1.24148 0
5.49779 1.24148 0
5.10509 1.86676 0
5.49779 1.86676 0
4.71239 1.86676 0
5.10509 1.86676 0
4.71239 2.49236 0
5.10509 2.49236 0
5.10509 1.86676 0
5.49779 1.86676 0
5.10509 2.49236 0
5.49779 2.49236 0
5.49779 1.24148 0
5.89049 1.24148 0
5.49779 1.86676 0
5.89049 1.86676 0
5.89049 1.24148 0
6.28319 1.24148 0
5.89049 1.86676 0
6.28319 1.86676 0
5.49779 1.86676 0
5.89049 1.86676 0
5.49779 2.49236 0
5.89049 2.49236 0
5.89049 1.86676 0
6.28319 1.86676 0
5.89049 2.49236 0
6.28319 2.49236 0
3.14159 2.49236 0
3.53429 2.49236 0
3.14159 3.11787 0
3.53429 3.11787 0
3.53429 2.49236 0
3.92699 2.49236 0
3.53429 3.11787 0
3.92699 3.11787 0
3.14159 3.11787 0
3.53429 3.11787 0
3.14159 3.74338 0
3.53429 3.74338 0
3.53429 3.11787 0
3.92699 3.11787 0
3.53429 3.74338 0
3.92699 3.74338 0
3.92699 2.49236 0
4.31969 2.49236 0
3.92699 3.11787 0
4.31969 3.11787 0
4.31969 2.49236 0
4.71239 2.49236 0
4.31969 3.11787 0
4.71239 3.11787 0
3.92699 3.11787 0
4.31969 3.11787 0
3.92699 3.74338 0
4.31969 3.74338 0
4.31969 3.11787 0
4.71239 3.11787 0
4.31969 3.74338 0
4.71239 3.74338 0
3.14159 3.74338 0
3.53429 3.74338 0
3.14159 4.36887 0
3.53429 4.36887 0
3.53429 3.74338 0
3.92699 3.74338 0
3.53429 4.36887 0
3.92699 4.36887 0
3.14159 4.36887 0
3.53429 4.36887 0
3.14159 4.99433 0
3.53429 4.99433 0
3.53429 4.36887 0
3.92699 4.36887 0
3.53429 4.99433 0
3.92699 4.99433 0
3.92699 3.74338 0
4.31969 3.74338 0
3.92699 4.36887 0
4.31969 4.36887 0
4.31969 3.74338 0
4.71239 3.74338 0
4.31969 4.36887 0
4.71239 4.36887 0
3.92699 4.36887 0
4.31969 4.36887 0
3.92699 4.99433 0
4.31969 4.99433 0
4.31969 4.36887 0
4.71239 4.36887 0
4.31969 4.99433 0
4.71239 4.99433 0
4.71239 2.49236 0
5.10509 2.49236 0
4.71239 3.11787 0
5.10509 3.11787 0
5.10509 2.49236 0
5.49779 2.49236 0
5.10509 3.11787 0
5.49779 3.11787 0
4.71239 3.11787 0
5.10509 3.11787 0
4.71239 3.74338 0
5.10509 3.74338 0
5.10509 3.11787 0
5.49779 3.11787 0
5.10509 3.74338 0
5.49779 3.74338 0
5.49779 2.49236 0
5.89049 2.49236 0
5.49779 3.11787 0
5.89049 3.11787 0
5.89049 2.49236 0
6.28319 2.49236 0
5.89049 3.11787 0
6.28319 3.11787 0
5.49779 3.11787 0
5.89049 3.11787 0
5.49779 3.74338 0
5.89049 3.74338 0
5.89049 3.11787 0
6.28319 3.11787 0
5.89049 3.74338 0
6.28319 3.74338 0
4.71239 3.74338 0
5.10509 3.74338 0
4.71239 4.36887 0
5.10509 4.36887 0
5.10509 3.74338 0
5.49779 3.74338 0
5.10509 4.36887 0
5.49779 4.36887 0
4.71239 4.36887 0
5.10509 4.36887 0
4.71239 4.99433 0
5.10509 4.99433 0
5.10509 4.36887 0
5.49779 4.36887 0
5.10509 4.99433 0
5.49779 4.99433 0
5.49779 3.74338 0
5.89049 3.74338 0
5.49779 4.36887 0
5.89049 4.36887 0
5.89049 3.74338 0
6.28319 3.74338 0
5.89049 4.36887 0
6.28319 4.36887 0
5.49779 4.36887 0
5.89049 4.36887 0
5.49779 4.99433 0
5.89049 4.99433 0
5.89049 4.36887 0
6.28319 4.36887 0
5.89049 4.99433 0
6.28319 4.99433 0
0 4.99433 0
0.392699 4.99433 0
0 5.61976 0
0.392699 5.61976 0
0.392699 4.99433 0
0.785398 4.99433 0
0.392699 5.61976 0
0.785398 5.61976 0
0 5.61976 0
0.392699 5.61976 0
0 6.24515 0
0.392699 6.24515 0
0.392699 5.61976 0
0.785398 5.61976 0
0.392699 6.24515 0
0.785398 6.24515 0
0.785398 4.99433 0
1.1781 4.99433 0
0.785398 5.61976 0
1.1781 5.61976 0
1.1781 4.99433 0
1.5708 4.99433 0
1.1781 5.61976 0
1.5708 5.61976 0
0.785398 5.61976 0
1.1781 5.61976 0
0.785398 6.24515 0
1.1781 6.24515 0
1.1781 5.61976 0
1.5708 5.61976 0
1.1781 6.24515 0
1.5708 6.24515 0
0 6.24515 0
0.392699 6.24515 0
0 6.87053 0
0.392699 6.87053 0
0.392699 6.24515 0
0.785398 6.24515 0
0.392699 6.87053 0
0.785398 6.87053 0
0 6.87053 0
0.392699 6.87053 0
0 7.4959 0
0.392699 7.4959 0
0.392699 6.87053 0
0.785398 6.87053 0
0.392699 7.4959 0
0.785398 7.4959 0
0.785398 6.24515 0
1.1781 6.24515 0
0.785398 6.87053 0
[...]
POINT_DATA 5120
VECTORS uf double
0 1 0
-2.43256e-14 1 0
0 1.00211 0
-2.2611e-14 1.00211 0
-2.43256e-14 1 0
-3.52169e-15 1 0
-2.2611e-14 1.00211 0
7.57144e-16 1.00211 0
0 1.00211 0
7.98041e-16 1.00211 0
0 1.00319 0
1.01838e-14 1.00319 0
7.98041e-16 1.00211 0
1.26406e-15 1.00211 0
1.01838e-14 1.00319 0
3.9063e-15 1.00319 0
-3.52169e-15 1 0
3.53391e-14 1 0
7.57144e-16 1.00211 0
4.96114e-14 1.00211 0
3.53391e-14 1 0
-8.8189e-15 1 0
4.96114e-14 1.00211 0
1.50981e-14 1.00211 0
1.26406e-15 1.00211 0
-4.99458e-14 1.00211 0
3.9063e-15 1.00319 0
-3.55919e-14 1.00319 0
-4.99458e-14 1.00211 0
-1.04547e-14 1.00211 0
-3.55919e-14 1.00319 0
6.04907e-15 1.00319 0
0 1.00319 0
2.16478e-15 1.00319 0
0 1.0045 0
9.59659e-15 1.0045 0
2.16478e-15 1.00319 0
-4.58831e-15 1.00319 0
9.59659e-15 1.0045 0
-1.5991e-15 1.0045 0
0 1.0045 0
1.19784e-14 1.0045 0
0 1.00573 0
1.33013e-14 1.00573 0
1.19784e-14 1.0045 0
1.20283e-14 1.0045 0
1.33013e-14 1.00573 0
2.12998e-14 1.00573 0
-4.58831e-15 1.00319 0
-2.33455e-15 1.00319 0
-1.5991e-15 1.0045 0
2.65513e-15 1.0045 0
-2.33455e-15 1.00319 0
-9.3155e-15 1.00319 0
2.65513e-15 1.0045 0
5.7332e-15 1.0045 0
1.20283e-14 1.0045 0
1.95852e-15 1.0045 0
2.12998e-14 1.00573 0
3.24653e-15 1.00573 0
1.95852e-15 1.0045 0
-3.11119e-14 1.0045 0
3.24653e-15 1.00573 0
-2.00035e-14 1.00573 0
-8.8189e-15 1 0
-1.41047e-14 1 0
1.50981e-14 1.00211 0
-4.8513e-15 1.00211 0
-1.41047e-14 1 0
-7.87259e-15 1 0
-4.8513e-15 1.00211 0
9.56698e-15 1.00211 0
-1.04547e-14 1.00211 0
9.77926e-15 1.00211 0
6.04907e-15 1.00319 0
1.57193e-14 1.00319 0
9.77926e-15 1.00211 0
-1.16125e-14 1.00211 0
1.57193e-14 1.00319 0
1.10106e-14 1.00319 0
-7.87259e-15 1 0
-5.48216e-15 1 0
9.56698e-15 1.00211 0
4.90201e-15 1.00211 0
-5.48216e-15 1 0
-2.3626e-15 1 0
4.90201e-15 1.00211 0
4.17354e-15 1.00211 0
-1.16125e-14 1.00211 0
-8.51775e-15 1.00211 0
1.10106e-14 1.00319 0
8.83409e-15 1.00319 0
-8.51775e-15 1.00211 0
-1.10215e-14 1.00211 0
8.83409e-15 1.00319 0
1.24974e-14 1.00319 0
-9.3155e-15 1.00319 0
-1.48506e-14 1.00319 0
5.7332e-15 1.0045 0
1.67517e-14 1.0045 0
-1.48506e-14 1.00319 0
-4.28739e-15 1.00319 0
1.67517e-14 1.0045 0
8.09543e-15 1.0045 0
-3.11119e-14 1.0045 0
-1.36388e-14 1.0045 0
-2.00035e-14 1.00573 0
1.09531e-14 1.00573 0
-1.36388e-14 1.0045 0
-6.69692e-15 1.0045 0
1.09531e-14 1.00573 0
6.89161e-15 1.00573 0
-4.28739e-15 1.00319 0
-7.19769e-15 1.00319 0
8.09543e-15 1.0045 0
1.04744e-14 1.0045 0
-7.19769e-15 1.00319 0
-8.76926e-15 1.00319 0
1.04744e-14 1.0045 0
1.33558e-14 1.0045 0
-6.69692e-15 1.0045 0
-1.44242e-15 1.0045 0
6.89161e-15 1.00573 0
4.97405e-15 1.00573 0
-1.44242e-15 1.0045 0
-9.80251e-15 1.0045 0
4.97405e-15 1.00573 0
8.00506e-15 1.00573 0
0 1.00573 0
-6.74383e-15 1.00573 0
0 1.00696 0
-7.71393e-15 1.00696 0
-6.74383e-15 1.00573 0
-3.74123e-14 1.00573 0
-7.71393e-15 1.00696 0
-2.58716e-14 1.00696 0
0 1.00696 0
-5.57633e-16 1.00696 0
0 1.00816 0
1.32958e-14 1.00816 0
-5.57633e-16 1.00696 0
4.79916e-14 1.00696 0
1.32958e-14 1.00816 0
6.13163e-14 1.00816 0
-3.74123e-14 1.00573 0
-1.57937e-14 1.00573 0
-2.58716e-14 1.00696 0
1.15028e-14 1.00696 0
-1.57937e-14 1.00573 0
4.27544e-14 1.00573 0
1.15028e-14 1.00696 0
4.3283e-14 1.00696 0
4.79916e-14 1.00696 0
-4.9698e-15 1.00696 0
6.13163e-14 1.00816 0
2.07336e-14 1.00816 0
-4.9698e-15 1.00696 0
-4.39146e-14 1.00696 0
2.07336e-14 1.00816 0
-3.37676e-14 1.00816 0
0 1.00816 0
7.31832e-15 1.00816 0
0 1.00935 0
1.45149e-14 1.00935 0
7.31832e-15 1.00816 0
-7.43123e-14 1.00816 0
1.45149e-14 1.00935 0
-6.11414e-14 1.00935 0
0 1.00935 0
-8.81096e-15 1.00935 0
0 1.01052 0
-4.73237e-17 1.01052 0
-8.81096e-15 1.00935 0
5.59159e-14 1.00935 0
-4.73237e-17 1.01052 0
5.9749e-14 1.01052 0
-7.43123e-14 1.00816 0
-1.9572e-14 1.00816 0
-6.11414e-14 1.00935 0
-7.05669e-15 1.00935 0
-1.9572e-14 1.00816 0
4.60355e-14 1.00816 0
-7.05669e-15 1.00935 0
5.75864e-14 1.00935 0
5.59159e-14 1.00935 0
1.1061e-14 1.00935 0
5.9749e-14 1.01052 0
1.05198e-14 1.01052 0
1.1061e-14 1.00935 0
-4.69078e-14 1.00935 0
1.05198e-14 1.01052 0
-4.07023e-14 1.01052 0
4.27544e-14 1.00573 0
-1.19408e-14 1.00573 0
4.3283e-14 1.00696 0
4.22596e-15 1.00696 0
-1.19408e-14 1.00573 0
-6.97001e-15 1.00573 0
4.22596e-15 1.00696 0
5.12925e-15 1.00696 0
-4.39146e-14 1.00696 0
-1.42396e-14 1.00696 0
-3.37676e-14 1.00816 0
-5.47646e-15 1.00816 0
-1.42396e-14 1.00696 0
-2.72791e-15 1.00696 0
-5.47646e-15 1.00816 0
6.02824e-15 1.00816 0
-6.97001e-15 1.00573 0
-3.76551e-15 1.00573 0
5.12925e-15 1.00696 0
1.07497e-15 1.00696 0
-3.76551e-15 1.00573 0
-1.011e-14 1.00573 0
1.07497e-15 1.00696 0
1.39213e-14 1.00696 0
-2.72791e-15 1.00696 0
2.32322e-15 1.00696 0
6.02824e-15 1.00816 0
5.09257e-15 1.00816 0
2.32322e-15 1.00696 0
-1.07248e-14 1.00696 0
5.09257e-15 1.00816 0
1.797e-14 1.00816 0
4.60355e-14 1.00816 0
2.89445e-14 1.00816 0
5.75864e-14 1.00935 0
3.41832e-14 1.00935 0
2.89445e-14 1.00816 0
-5.31003e-15 1.00816 0
3.41832e-14 1.00935 0
1.04341e-14 1.00935 0
-4.69078e-14 1.00935 0
-2.02535e-14 1.00935 0
-4.07023e-14 1.01052 0
-7.39433e-15 1.01052 0
-2.02535e-14 1.00935 0
-5.13549e-15 1.00935 0
-7.39433e-15 1.01052 0
5.13286e-15 1.01052 0
-5.31003e-15 1.00816 0
-6.47425e-15 1.00816 0
1.04341e-14 1.00935 0
9.36742e-15 1.00935 0
-6.47425e-15 1.00816 0
-1.20655e-14 1.00816 0
9.36742e-15 1.00935 0
1.40007e-14 1.00935 0
-5.13549e-15 1.00935 0
-6.20352e-15 1.00935 0
5.13286e-15 1.01052 0
4.63278e-15 1.01052 0
-6.20352e-15 1.00935 0
-1.12875e-14 1.00935 0
4.63278e-15 1.01052 0
8.42535e-15 1.01052 0
-2.3626e-15 1 0
-5.91672e-15 1 0
4.17354e-15 1.00211 0
1.19429e-14 1.00211 0
-5.91672e-15 1 0
-4.30086e-15 1 0
1.19429e-14 1.00211 0
1.04647e-14 1.00211 0
-1.10215e-14 1.00211 0
-4.26156e-15 1.00211 0
1.24974e-14 1.00319 0
6.0253e-15 1.00319 0
-4.26156e-15 1.00211 0
-2.45601e-15 1.00211 0
6.0253e-15 1.00319 0
-1.77034e-16 1.00319 0
-4.30086e-15 1 0
-1.15409e-15 1 0
1.04647e-14 1.00211 0
1.14825e-14 1.00211 0
-1.15409e-15 1 0
-6.78601e-15 1 0
1.14825e-14 1.00211 0
1.37978e-14 1.00211 0
-2.45601e-15 1.00211 0
-1.59531e-14 1.00211 0
-1.77034e-16 1.00319 0
9.88676e-15 1.00319 0
-1.59531e-14 1.00211 0
-5.29035e-15 1.00211 0
9.88676e-15 1.00319 0
5.29992e-15 1.00319 0
-8.76926e-15 1.00319 0
-1.01044e-14 1.00319 0
1.33558e-14 1.0045 0
9.02441e-15 1.0045 0
-1.01044e-14 1.00319 0
-2.34865e-15 1.00319 0
9.02441e-15 1.0045 0
1.01586e-14 1.0045 0
-9.80251e-15 1.0045 0
-5.22696e-16 1.0045 0
8.00506e-15 1.00573 0
4.55325e-15 1.00573 0
-5.22696e-16 1.0045 0
-9.37097e-15 1.0045 0
4.55325e-15 1.00573 0
8.59769e-15 1.00573 0
-2.34865e-15 1.00319 0
4.11645e-16 1.00319 0
1.01586e-14 1.0045 0
4.80795e-15 1.0045 0
4.11645e-16 1.00319 0
-4.73156e-15 1.00319 0
4.80795e-15 1.0045 0
1.4493e-14 1.0045 0
-9.37097e-15 1.0045 0
-1.1228e-14 1.0045 0
8.59769e-15 1.00573 0
8.38789e-15 1.00573 0
-1.1228e-14 1.0045 0
-7.77877e-15 1.0045 0
8.38789e-15 1.00573 0
7.75222e-15 1.00573 0
-6.78601e-15 1 0
-2.05016e-15 1 0
1.37978e-14 1.00211 0
9.76505e-15 1.00211 0
-2.05016e-15 1 0
-2.37675e-16 1 0
9.76505e-15 1.00211 0
6.32753e-15 1.00211 0
-5.29035e-15 1.00211 0
-2.5965e-15 1.00211 0
5.29992e-15 1.00319 0
4.57961e-15 1.00319 0
-2.5965e-15 1.00211 0
-3.14797e-15 1.00211 0
4.57961e-15 1.00319 0
7.24577e-15 1.00319 0
-2.37675e-16 1 0
2.43736e-15 1 0
6.32753e-15 1.00211 0
4.48391e-15 1.00211 0
2.43736e-15 1 0
5.65232e-16 1 0
4.48391e-15 1.00211 0
9.87606e-15 1.00211 0
-3.14797e-15 1.00211 0
-8.71552e-16 1.00211 0
7.24577e-15 1.00319 0
1.00298e-14 1.00319 0
-8.71552e-16 1.00211 0
-5.9504e-15 1.00211 0
1.00298e-14 1.00319 0
1.20662e-14 1.00319 0
-4.73156e-15 1.00319 0
-7.30994e-15 1.00319 0
1.4493e-14 1.0045 0
1.28804e-14 1.0045 0
-7.30994e-15 1.00319 0
3.84937e-15 1.00319 0
1.28804e-14 1.0045 0
3.25065e-15 1.0045 0
-7.77877e-15 1.0045 0
-1.27803e-15 1.0045 0
7.75222e-15 1.00573 0
3.43732e-15 1.00573 0
-1.27803e-15 1.0045 0
-6.60447e-15 1.0045 0
3.43732e-15 1.00573 0
8.42189e-15 1.00573 0
3.84937e-15 1.00319 0
-1.32051e-14 1.00319 0
3.25065e-15 1.0045 0
1.4529e-14 1.0045 0
-1.32051e-14 1.00319 0
-7.7032e-15 1.00319 0
1.4529e-14 1.0045 0
7.56349e-15 1.0045 0
-6.60447e-15 1.0045 0
-5.65746e-15 1.0045 0
8.42189e-15 1.00573 0
9.96126e-15 1.00573 0
-5.65746e-15 1.0045 0
-1.91153e-15 1.0045 0
9.96126e-15 1.00573 0
1.78717e-15 1.00573 0
-1.011e-14 1.00573 0
-4.10763e-15 1.00573 0
1.39213e-14 1.00696 0
8.69024e-15 1.00696 0
-4.10763e-15 1.00573 0
-9.30671e-15 1.00573 0
8.69024e-15 1.00696 0
1.1031e-14 1.00696 0
-1.07248e-14 1.00696 0
-9.01191e-15 1.00696 0
1.797e-14 1.00816 0
1.26846e-14 1.00816 0
-9.01191e-15 1.00696 0
3.78619e-16 1.00696 0
1.26846e-14 1.00816 0
6.44505e-15 1.00816 0
-9.30671e-15 1.00573 0
-1.03831e-15 1.00573 0
1.1031e-14 1.00696 0
7.23606e-15 1.00696 0
-1.03831e-15 1.00573 0
-3.91314e-15 1.00573 0
7.23606e-15 1.00696 0
6.70244e-15 1.00696 0
3.78619e-16 1.00696 0
-2.27626e-15 1.00696 0
6.44505e-15 1.00816 0
8.27772e-15 1.00816 0
-2.27626e-15 1.00696 0
-6.51592e-15 1.00696 0
8.27772e-15 1.00816 0
1.3219e-14 1.00816 0
-1.20655e-14 1.00816 0
-1.15095e-14 1.00816 0
1.40007e-14 1.00935 0
1.46193e-14 1.00935 0
-1.15095e-14 1.00816 0
-5.80873e-15 1.00816 0
1.46193e-14 1.00935 0
6.13757e-15 1.00935 0
-1.12875e-14 1.00935 0
-7.52846e-15 1.00935 0
8.42535e-15 1.01052 0
1.06013e-14 1.01052 0
-7.52846e-15 1.00935 0
-4.60795e-15 1.00935 0
1.06013e-14 1.01052 0
6.43406e-15 1.01052 0
-5.80873e-15 1.00816 0
-1.28219e-14 1.00816 0
6.13757e-15 1.00935 0
9.76188e-15 1.00935 0
-1.28219e-14 1.00816 0
-9.36844e-15 1.00816 0
9.76188e-15 1.00935 0
6.36289e-15 1.00935 0
-4.60795e-15 1.00935 0
-1.92306e-15 1.00935 0
6.43406e-15 1.01052 0
3.89427e-15 1.01052 0
-1.92306e-15 1.00935 0
-1.78018e-15 1.00935 0
3.89427e-15 1.01052 0
3.58704e-15 1.01052 0
-3.91314e-15 1.00573 0
9.64152e-17 1.00573 0
6.70244e-15 1.00696 0
7.32558e-15 1.00696 0
9.64152e-17 1.00573 0
-5.266e-15 1.00573 0
7.32558e-15 1.00696 0
9.12207e-15 1.00696 0
-6.51592e-15 1.00696 0
-3.16411e-15 1.00696 0
1.3219e-14 1.00816 0
7.1052e-15 1.00816 0
-3.16411e-15 1.00696 0
-1.19306e-15 1.00696 0
7.1052e-15 1.00816 0
4.01616e-15 1.00816 0
-5.266e-15 1.00573 0
-5.72448e-15 1.00573 0
9.12207e-15 1.00696 0
8.22466e-15 1.00696 0
-5.72448e-15 1.00573 0
1.12567e-14 1.00573 0
8.22466e-15 1.00696 0
-4.85749e-15 1.00696 0
-1.19306e-15 1.00696 0
-5.79171e-15 1.00696 0
4.01616e-15 1.00816 0
1.10615e-14 1.00816 0
-5.79171e-15 1.00696 0
2.02724e-15 1.00696 0
1.10615e-14 1.00816 0
3.63732e-15 1.00816 0
-9.36844e-15 1.00816 0
-4.78208e-15 1.00816 0
6.36289e-15 1.00935 0
-1.01477e-15 1.00935 0
-4.78208e-15 1.00816 0
-5.12808e-15 1.00816 0
-1.01477e-15 1.00935 0
3.14706e-15 1.00935 0
-1.78018e-15 1.00935 0
9.96899e-16 1.00935 0
3.58704e-15 1.01052 0
6.26742e-15 1.01052 0
9.96899e-16 1.00935 0
-7.00188e-15 1.00935 0
6.26742e-15 1.01052 0
1.17891e-14 1.01052 0
-5.12808e-15 1.00816 0
-7.21306e-15 1.00816 0
3.14706e-15 1.00935 0
6.98196e-15 1.00935 0
-7.21306e-15 1.00816 0
-4.9424e-15 1.00816 0
6.98196e-15 1.00935 0
5.83725e-15 1.00935 0
-7.00188e-15 1.00935 0
-2.56363e-15 1.00935 0
1.17891e-14 1.01052 0
2.00359e-15 1.01052 0
-2.56363e-15 1.00935 0
2.96096e-15 1.00935 0
2.00359e-15 1.01052 0
-1.79252e-15 1.01052 0
0 1.01052 0
-3.48049e-15 1.01052 0
0 1.01168 0
2.12435e-15 1.01168 0
-3.48049e-15 1.01052 0
-3.95038e-14 1.01052 0
2.12435e-15 1.01168 0
-3.14321e-14 1.01168 0
0 1.01168 0
-5.89135e-15 1.01168 0
0 1.01285 0
9.74419e-16 1.01285 0
-5.89135e-15 1.01168 0
1.38718e-14 1.01168 0
9.74419e-16 1.01285 0
2.28183e-14 1.01285 0
-3.95038e-14 1.01052 0
8.40174e-15 1.01052 0
-3.14321e-14 1.01168 0
3.50168e-15 1.01168 0
8.40174e-15 1.01052 0
2.80561e-14 1.01052 0
3.50168e-15 1.01168 0
2.83612e-14 1.01168 0
1.38718e-14 1.01168 0
-1.80297e-14 1.01168 0
2.28183e-14 1.01285 0
-1.09959e-14 1.01285 0
-1.80297e-14 1.01168 0
-6.98324e-15 1.01168 0
-1.09959e-14 1.01285 0
-3.41126e-15 1.01285 0
0 1.01285 0
-7.5721e-15 1.01285 0
0 1.01403 0
-4.30786e-15 1.01403 0
-7.5721e-15 1.01285 0
-1.79114e-14 1.01285 0
-4.30786e-15 1.01403 0
-8.42406e-15 1.01403 0
0 1.01403 0
5.88618e-15 1.01403 0
0 1.01523 0
5.72956e-15 1.01523 0
5.88618e-15 1.01403 0
1.27436e-14 1.01403 0
5.72956e-15 1.01523 0
1.48519e-14 1.01523 0
-1.79114e-14 1.01285 0
1.01807e-16 1.01285 0
-8.42406e-15 1.01403 0
8.52685e-15 1.01403 0
1.01807e-16 1.01285 0
-3.46308e-15 1.01285 0
8.52685e-15 1.01403 0
2.92515e-15 1.01403 0
1.27436e-14 1.01403 0
-5.71586e-15 1.01403 0
1.48519e-14 1.01523 0
3.55944e-15 1.01523 0
-5.71586e-15 1.01403 0
-3.27272e-15 1.01403 0
3.55944e-15 1.01523 0
-1.94989e-16 1.01523 0
2.80561e-14 1.01052 0
-1.85423e-14 1.01052 0
2.83612e-14 1.01168 0
-5.79715e-15 1.01168 0
-1.85423e-14 1.01052 0
-5.29849e-15 1.01052 0
-5.79715e-15 1.01168 0
6.40719e-15 1.01168 0
-6.98324e-15 1.01168 0
5.91378e-15 1.01168 0
-3.41126e-15 1.01285 0
1.54435e-14 1.01285 0
5.91378e-15 1.01168 0
-7.50516e-15 1.01168 0
1.54435e-14 1.01285 0
6.48952e-15 1.01285 0
-5.29849e-15 1.01052 0
-2.29099e-15 1.01052 0
6.40719e-15 1.01168 0
3.23929e-15 1.01168 0
-2.29099e-15 1.01052 0
-4.08565e-15 1.01052 0
3.23929e-15 1.01168 0
4.11272e-15 1.01168 0
-7.50516e-15 1.01168 0
-6.1002e-15 1.01168 0
6.48952e-15 1.01285 0
6.87274e-15 1.01285 0
-6.1002e-15 1.01168 0
-8.31212e-15 1.01168 0
6.87274e-15 1.01285 0
4.97775e-15 1.01285 0
-3.46308e-15 1.01285 0
-8.39497e-15 1.01285 0
2.92515e-15 1.01403 0
6.77016e-15 1.01403 0
-8.39497e-15 1.01285 0
-5.08181e-15 1.01285 0
6.77016e-15 1.01403 0
5.55643e-15 1.01403 0
-3.27272e-15 1.01403 0
-5.37896e-15 1.01403 0
-1.94989e-16 1.01523 0
3.71622e-15 1.01523 0
-5.37896e-15 1.01403 0
-3.75313e-15 1.01403 0
3.71622e-15 1.01523 0
6.46599e-15 1.01523 0
-5.08181e-15 1.01285 0
-5.21852e-15 1.01285 0
5.55643e-15 1.01403 0
7.3676e-15 1.01403 0
-5.21852e-15 1.01285 0
-2.94339e-15 1.01285 0
7.3676e-15 1.01403 0
6.94907e-15 1.01403 0
-3.75313e-15 1.01403 0
-5.69364e-15 1.01403 0
6.46599e-15 1.01523 0
6.13421e-15 1.01523 0
-5.69364e-15 1.01403 0
-5.77456e-15 1.01403 0
6.13421e-15 1.01523 0
6.54663e-15 1.01523 0
0 1.01523 0
3.8379e-15 1.01523 0
0 1.01645 0
5.03026e-15 1.01645 0
3.8379e-15 1.01523 0
-1.01311e-14 1.01523 0
5.03026e-15 1.01645 0
-4.09538e-15 1.01645 0
0 1.01645 0
-9.67858e-15 1.01645 0
0 1.01764 0
-6.46428e-16 1.01764 0
-9.67858e-15 1.01645 0
5.60438e-15 1.01645 0
-6.46428e-16 1.01764 0
7.08973e-15 1.01764 0
-1.01311e-14 1.01523 0
-6.18433e-15 1.01523 0
-4.09538e-15 1.01645 0
4.08831e-15 1.01645 0
-6.18433e-15 1.01523 0
-6.55818e-15 1.01523 0
4.08831e-15 1.01645 0
5.13103e-15 1.01645 0
5.60438e-15 1.01645 0
1.84838e-16 1.01645 0
7.08973e-15 1.01764 0
1.50776e-16 1.01764 0
1.84838e-16 1.01645 0
-4.58771e-16 1.01645 0
1.50776e-16 1.01764 0
1.32348e-15 1.01764 0
0 1.01764 0
2.11432e-15 1.01764 0
0 1.01866 0
6.05771e-15 1.01866 0
2.11432e-15 1.01764 0
-9.84377e-15 1.01764 0
6.05771e-15 1.01866 0
-4.20388e-15 1.01866 0
0 1.01866 0
-1.6427e-15 1.01866 0
0 1.01904 0
-3.7134e-15 1.01904 0
-1.6427e-15 1.01866 0
-1.12899e-15 1.01866 0
-3.7134e-15 1.01904 0
9.62176e-15 1.01904 0
-9.84377e-15 1.01764 0
-1.57753e-16 1.01764 0
-4.20388e-15 1.01866 0
4.07304e-16 1.01866 0
-1.57753e-16 1.01764 0
-2.89351e-15 1.01764 0
4.07304e-16 1.01866 0
1.14981e-15 1.01866 0
-1.12899e-15 1.01866 0
-3.9929e-15 1.01866 0
9.62176e-15 1.01904 0
-1.79784e-15 1.01904 0
-3.9929e-15 1.01866 0
-4.06852e-15 1.01866 0
-1.79784e-15 1.01904 0
1.99311e-17 1.01904 0
-6.55818e-15 1.01523 0
-5.62338e-15 1.01523 0
5.13103e-15 1.01645 0
1.01701e-14 1.01645 0
-5.62338e-15 1.01523 0
-6.88077e-15 1.01523 0
1.01701e-14 1.01645 0
9.42529e-15 1.01645 0
-4.58771e-16 1.01645 0
-4.91687e-15 1.01645 0
1.32348e-15 1.01764 0
9.3527e-16 1.01764 0
-4.91687e-15 1.01645 0
-7.23989e-15 1.01645 0
9.3527e-16 1.01764 0
4.16952e-15 1.01764 0
-6.88077e-15 1.01523 0
-3.81781e-15 1.01523 0
9.42529e-15 1.01645 0
2.42226e-15 1.01645 0
-3.81781e-15 1.01523 0
-4.21556e-15 1.01523 0
2.42226e-15 1.01645 0
4.57838e-15 1.01645 0
-7.23989e-15 1.01645 0
-4.84956e-15 1.01645 0
4.16952e-15 1.01764 0
3.80004e-15 1.01764 0
-4.84956e-15 1.01645 0
-3.88341e-15 1.01645 0
3.80004e-15 1.01764 0
3.94481e-15 1.01764 0
-2.89351e-15 1.01764 0
-5.52165e-15 1.01764 0
1.14981e-15 1.01866 0
-1.74092e-16 1.01866 0
-5.52165e-15 1.01764 0
-3.53725e-15 1.01764 0
-1.74092e-16 1.01866 0
1.69864e-15 1.01866 0
-4.06852e-15 1.01866 0
-4.42885e-15 1.01866 0
1.99311e-17 1.01904 0
4.33688e-15 1.01904 0
-4.42885e-15 1.01866 0
-4.47252e-15 1.01866 0
4.33688e-15 1.01904 0
1.43723e-15 1.01904 0
-3.53725e-15 1.01764 0
-2.0001e-15 1.01764 0
1.69864e-15 1.01866 0
1.76251e-16 1.01866 0
-2.0001e-15 1.01764 0
-4.06153e-15 1.01764 0
1.76251e-16 1.01866 0
4.421e-15 1.01866 0
-4.47252e-15 1.01866 0
-2.19008e-15 1.01866 0
1.43723e-15 1.01904 0
-6.67571e-17 1.01904 0
-2.19008e-15 1.01866 0
-3.87235e-15 1.01866 0
-6.67571e-17 1.01904 0
-2.40711e-15 1.01904 0
-4.08565e-15 1.01052 0
-7.92438e-15 1.01052 0
4.11272e-15 1.01168 0
8.95378e-15 1.01168 0
-7.92438e-15 1.01052 0
-6.99342e-15 1.01052 0
8.95378e-15 1.01168 0
4.95534e-15 1.01168 0
-8.31212e-15 1.01168 0
-8.7301e-15 1.01168 0
4.97775e-15 1.01285 0
7.76837e-15 1.01285 0
-8.7301e-15 1.01168 0
-2.59938e-16 1.01168 0
7.76837e-15 1.01285 0
3.11586e-15 1.01285 0
-6.99342e-15 1.01052 0
-2.51947e-15 1.01052 0
4.95534e-15 1.01168 0
3.58174e-15 1.01168 0
-2.51947e-15 1.01052 0
-4.75625e-15 1.01052 0
3.58174e-15 1.01168 0
6.17006e-15 1.01168 0
-2.59938e-16 1.01168 0
-5.71059e-15 1.01168 0
3.11586e-15 1.01285 0
6.17348e-15 1.01285 0
-5.71059e-15 1.01168 0
-3.09592e-15 1.01168 0
6.17348e-15 1.01285 0
8.25893e-15 1.01285 0
-2.94339e-15 1.01285 0
-6.94031e-15 1.01285 0
6.94907e-15 1.01403 0
1.00456e-14 1.01403 0
-6.94031e-15 1.01285 0
-7.88201e-15 1.01285 0
1.00456e-14 1.01403 0
9.38784e-15 1.01403 0
-5.77456e-15 1.01403 0
-6.57354e-15 1.01403 0
6.54663e-15 1.01523 0
8.17289e-15 1.01523 0
-6.57354e-15 1.01403 0
-3.84788e-15 1.01403 0
8.17289e-15 1.01523 0
6.06423e-15 1.01523 0
-7.88201e-15 1.01285 0
-4.62532e-15 1.01285 0
9.38784e-15 1.01403 0
6.60731e-15 1.01403 0
-4.62532e-15 1.01285 0
-8.30379e-15 1.01285 0
6.60731e-15 1.01403 0
4.54057e-15 1.01403 0
-3.84788e-15 1.01403 0
-1.42764e-16 1.01403 0
6.06423e-15 1.01523 0
4.17107e-15 1.01523 0
-1.42764e-16 1.01403 0
7.87856e-17 1.01403 0
4.17107e-15 1.01523 0
4.94082e-15 1.01523 0
-4.75625e-15 1.01052 0
-4.2314e-15 1.01052 0
6.17006e-15 1.01168 0
6.04429e-15 1.01168 0
-4.2314e-15 1.01052 0
-3.69218e-15 1.01052 0
6.04429e-15 1.01168 0
1.15623e-14 1.01168 0
-3.09592e-15 1.01168 0
-2.00863e-15 1.01168 0
8.25893e-15 1.01285 0
4.31958e-15 1.01285 0
-2.00863e-15 1.01168 0
-3.05186e-16 1.01168 0
4.31958e-15 1.01285 0
5.93482e-16 1.01285 0
-3.69218e-15 1.01052 0
1.65082e-15 1.01052 0
1.15623e-14 1.01168 0
6.12185e-15 1.01168 0
1.65082e-15 1.01052 0
3.26942e-15 1.01052 0
6.12185e-15 1.01168 0
1.68896e-15 1.01168 0
-3.05186e-16 1.01168 0
-3.97857e-15 1.01168 0
5.93482e-16 1.01285 0
5.81793e-15 1.01285 0
-3.97857e-15 1.01168 0
-4.90794e-15 1.01168 0
5.81793e-15 1.01285 0
4.97873e-15 1.01285 0
-8.30379e-15 1.01285 0
-3.38858e-15 1.01285 0
4.54057e-15 1.01403 0
4.21577e-15 1.01403 0
-3.38858e-15 1.01285 0
1.32207e-15 1.01285 0
4.21577e-15 1.01403 0
7.62382e-16 1.01403 0
7.87856e-17 1.01403 0
-1.86054e-15 1.01403 0
4.94082e-15 1.01523 0
3.84856e-15 1.01523 0
-1.86054e-15 1.01403 0
-7.38173e-15 1.01403 0
3.84856e-15 1.01523 0
8.44988e-15 1.01523 0
1.32207e-15 1.01285 0
-6.04828e-15 1.01285 0
7.62382e-16 1.01403 0
4.90411e-15 1.01403 0
-6.04828e-15 1.01285 0
-5.19939e-15 1.01285 0
4.90411e-15 1.01403 0
6.09196e-15 1.01403 0
-7.38173e-15 1.01403 0
-3.00076e-15 1.01403 0
8.44988e-15 1.01523 0
1.85599e-15 1.01523 0
-3.00076e-15 1.01403 0
2.21049e-15 1.01403 0
1.85599e-15 1.01523 0
2.08549e-15 1.01523 0
-4.21556e-15 1.01523 0
-8.08808e-15 1.01523 0
4.57838e-15 1.01645 0
6.21362e-15 1.01645 0
-8.08808e-15 1.01523 0
-2.38658e-15 1.01523 0
6.21362e-15 1.01645 0
1.75046e-15 1.01645 0
-3.88341e-15 1.01645 0
-2.60129e-15 1.01645 0
3.94481e-15 1.01764 0
1.35945e-15 1.01764 0
-2.60129e-15 1.01645 0
-3.64444e-15 1.01645 0
1.35945e-15 1.01764 0
3.39055e-15 1.01764 0
-2.38658e-15 1.01523 0
-2.30731e-15 1.01523 0
1.75046e-15 1.01645 0
3.1423e-15 1.01645 0
-2.30731e-15 1.01523 0