# vtk DataFile Version 3.0
#This file was generated by the deal.II library on 2018/10/12 at 1:26:47
ASCII
DATASET UNSTRUCTURED_GRID

POINTS 5120 double
0 0 0
0.392699 0 0
0 0.594308 0
0.392699 0.594308 0
0.392699 0 0
0.785398 0 0
0.392699 0.594308 0
0.785398 0.594308 0
0 0.594308 0
0.392699 0.594308 0
0 1.2215 0
0.392699 1.2215 0
0.392699 0.594308 0
0.785398 0.594308 0
0.392699 1.2215 0
0.785398 1.2215 0
0.785398 0 0
1.1781 0 0
0.785398 0.594308 0
1.1781 0.594308 0
1.1781 0 0
1.5708 0 0
1.1781 0.594308 0
1.5708 0.594308 0
0.785398 0.594308 0
1.1781 0.594308 0
0.785398 1.2215 0
1.1781 1.2215 0
1.1781 0.594308 0
1.5708 0.594308 0
1.1781 1.2215 0
1.5708 1.2215 0
0 1.2215 0
0.392699 1.2215 0
0 1.84763 0
0.392699 1.84763 0
0.392699 1.2215 0
0.785398 1.2215 0
0.392699 1.84763 0
0.785398 1.84763 0
0 1.84763 0
0.392699 1.84763 0
0 2.47489 0
0.392699 2.47489 0
0.392699 1.84763 0
0.785398 1.84763 0
0.392699 2.47489 0
0.785398 2.47489 0
0.785398 1.2215 0
1.1781 1.2215 0
0.785398 1.84763 0
1.1781 1.84763 0
1.1781 1.2215 0
1.5708 1.2215 0
1.1781 1.84763 0
1.5708 1.84763 0
0.785398 1.84763 0
1.1781 1.84763 0
0.785398 2.47489 0
1.1781 2.47489 0
1.1781 1.84763 0
1.5708 1.84763 0
1.1781 2.47489 0
1.5708 2.47489 0
1.5708 0 0
1.9635 0 0
1.5708 0.594308 0
1.9635 0.594308 0
1.9635 0 0
2.35619 0 0
1.9635 0.594308 0
2.35619 0.594308 0
1.5708 0.594308 0
1.9635 0.594308 0
1.5708 1.2215 0
1.9635 1.2215 0
1.9635 0.594308 0
2.35619 0.594308 0
1.9635 1.2215 0
2.35619 1.2215 0
2.35619 0 0
2.74889 0 0
2.35619 0.594308 0
2.74889 0.594308 0
2.74889 0 0
3.14159 0 0
2.74889 0.594308 0
3.14159 0.594308 0
2.35619 0.594308 0
2.74889 0.594308 0
2.35619 1.2215 0
2.74889 1.2215 0
2.74889 0.594308 0
3.14159 0.594308 0
2.74889 1.2215 0
3.14159 1.2215 0
1.5708 1.2215 0
1.9635 1.2215 0
1.5708 1.84763 0
1.9635 1.84763 0
1.9635 1.2215 0
2.35619 1.2215 0
1.9635 1.84763 0
2.35619 1.84763 0
1.5708 1.84763 0
1.9635 1.84763 0
1.5708 2.47489 0
1.9635 2.47489 0
1.9635 1.84763 0
2.35619 1.84763 0
1.9635 2.47489 0
2.35619 2.47489 0
2.35619 1.2215 0
2.74889 1.2215 0
2.35619 1.84763 0
2.74889 1.84763 0
2.74889 1.2215 0
3.14159 1.2215 0
2.74889 1.84763 0
3.14159 1.84763 0
2.35619 1.84763 0
2.74889 1.84763 0
2.35619 2.47489 0
2.74889 2.47489 0
2.74889 1.84763 0
3.14159 1.84763 0
2.74889 2.47489 0
3.14159 2.47489 0
0 2.47489 0
0.392699 2.47489 0
0 3.10185 0
0.392699 3.10185 0
0.392699 2.47489 0
0.785398 2.47489 0
0.392699 3.10185 0
0.785398 3.10185 0
0 3.10185 0
0.392699 3.10185 0
0 3.72883 0
0.392699 3.72883 0
0.392699 3.10185 0
0.785398 3.10185 0
0.392699 3.72883 0
0.785398 3.72883 0
0.785398 2.47489 0
1.1781 2.47489 0
0.785398 3.10185 0
1.1781 3.10185 0
1.1781 2.47489 0
1.5708 2.47489 0
1.1781 3.10185 0
1.5708 3.10185 0
0.785398 3.10185 0
1.1781 3.10185 0
0.785398 3.72883 0
1.1781 3.72883 0
1.1781 3.10185 0
1.5708 3.10185 0
1.1781 3.72883 0
1.5708 3.72883 0
0 3.72883 0
0.392699 3.72883 0
0 4.35571 0
0.392699 4.35571 0
0.392699 3.72883 0
0.785398 3.72883 0
0.392699 4.35571 0
0.785398 4.35571 0
0 4.35571 0
0.392699 4.35571 0
0 4.98252 0
0.392699 4.98252 0
0.392699 4.35571 0
0.785398 4.35571 0
0.392699 4.98252 0
0.785398 4.98252 0
0.785398 3.72883 0
1.1781 3.72883 0
0.785398 4.35571 0
1.1781 4.35571 0
1.1781 3.72883 0
1.5708 3.72883 0
1.1781 4.35571 0
1.5708 4.35571 0
0.785398 4.35571 0
1.1781 4.35571 0
0.785398 4.98252 0
1.1781 4.98252 0
1.1781 4.35571 0
1.5708 4.35571 0
1.1781 4.98252 0
1.5708 4.98252 0
1.5708 2.47489 0
1.9635 2.47489 0
1.5708 3.10185 0
1.9635 3.10185 0
1.9635 2.47489 0
2.35619 2.47489 0
1.9635 3.10185 0
2.35619 3.10185 0
1.5708 3.10185 0
1.9635 3.10185 0
1.5708 3.72883 0
1.9635 3.72883 0
1.9635 3.10185 0
2.35619 3.10185 0
1.9635 3.72883 0
2.35619 3.72883 0
2.35619 2.47489 0
2.74889 2.47489 0
2.35619 3.10185 0
2.74889 3.10185 0
2.74889 2.47489 0
3.14159 2.47489 0
2.74889 3.10185 0
3.14159 3.10185 0
2.35619 3.10185 0
2.74889 3.10185 0
2.35619 3.72883 0
2.74889 3.72883 0
2.74889 3.10185 0
3.14159 3.10185 0
2.74889 3.72883 0
3.14159 3.72883 0
1.5708 3.72883 0
1.9635 3.72883 0
1.5708 4.35571 0
1.9635 4.35571 0
1.9635 3.72883 0
2.35619 3.72883 0
1.9635 4.35571 0
2.35619 4.35571 0
1.5708 4.35571 0
1.9635 4.35571 0
1.5708 4.98252 0
1.9635 4.98252 0
1.9635 4.35571 0
2.35619 4.35571 0
1.9635 4.98252 0
2.35619 4.98252 0
2.35619 3.72883 0
2.74889 3.72883 0
2.35619 4.35571 0
2.74889 4.35571 0
2.74889 3.72883 0
3.14159 3.72883 0
2.74889 4.35571 0
3.14159 4.35571 0
2.35619 4.35571 0
2.74889 4.35571 0
2.35619 4.98252 0
2.74889 4.98252 0
2.74889 4.35571 0
3.14159 4.35571 0
2.74889 4.98252 0
3.14159 4.98252 0
3.14159 0 0
3.53429 0 0
3.14159 0.594308 0
3.53429 0.594308 0
3.53429 0 0
3.92699 0 0
3.53429 0.594308 0
3.92699 0.594308 0
3.14159 0.594308 0
3.53429 0.594308 0
3.14159 1.2215 0
3.53429 1.2215 0
3.53429 0.594308 0
3.92699 0.594308 0
3.53429 1.2215 0
3.92699 1.2215 0
3.92699 0 0
4.31969 0 0
3.92699 0.594308 0
4.31969 0.594308 0
4.31969 0 0
4.71239 0 0
4.31969 0.594308 0
4.71239 0.594308 0
3.92699 0.594308 0
4.31969 0.594308 0
3.92699 1.2215 0
4.31969 1.2215 0
4.31969 0.594308 0
4.71239 0.594308 0
4.31969 1.2215 0
4.71239 1.2215 0
3.14159 1.2215 0
3.53429 1.2215 0
3.14159 1.84763 0
3.53429 1.84763 0
3.53429 1.2215 0
3.92699 1.2215 0
3.53429 1.84763 0
3.92699 1.84763 0
3.14159 1.84763 0
3.53429 1.84763 0
3.14159 2.47489 0
3.53429 2.47489 0
3.53429 1.84763 0
3.92699 1.84763 0
3.53429 2.47489 0
3.92699 2.47489 0
3.92699 1.2215 0
4.31969 1.2215 0
3.92699 1.84763 0
4.31969 1.84763 0
4.31969 1.2215 0
4.71239 1.2215 0
4.31969 1.84763 0
4.71239 1.84763 0
3.92699 1.84763 0
4.31969 1.84763 0
3.92699 2.47489 0
4.31969 2.47489 0
4.31969 1.84763 0
4.71239 1.84763 0
4.31969 2.47489 0
4.71239 2.47489 0
4.71239 0 0
5.10509 0 0
4.71239 0.594308 0
5.10509 0.594308 0
5.10509 0 0
5.49779 0 0
5.10509 0.594308 0
5.49779 0.594308 0
4.71239 0.594308 0
5.10509 0.594308 0
4.71239 1.2215 0
5.10509 1.2215 0
5.10509 0.594308 0
5.49779 0.594308 0
5.10509 1.2215 0
5.49779 1.2215 0
5.49779 0 0
5.89049 0 0
5.49779 0.594308 0
5.89049 0.594308 0
5.89049 0 0
6.28319 0 0
5.89049 0.594308 0
6.28319 0.594308 0
5.49779 0.594308 0
5.89049 0.594308 0
5.49779 1.2215 0
5.89049 1.2215 0
5.89049 0.594308 0
6.28319 0.594308 0
5.89049 1.2215 0
6.28319 1.2215 0
4.71239 1.2215 0
5.10509 1.2215 0
4.71239 1.84763 0
5.10509 1.84763 0
5.10509 1.2215 0
5.49779 1.2215 0
5.10509 1.84763 0
5.49779 1.84763 0
4.71239 1.84763 0
5.10509 1.84763 0
4.71239 2.47489 0
5.10509 2.47489 0
5.10509 1.84763 0
5.49779 1.84763 0
5.10509 2.47489 0
5.49779 2.47489 0
5.49779 1.2215 0
5.89049 1.2215 0
5.49779 1.84763 0
5.89049 1.84763 0
5.89049 1.2215 0
6.28319 1.2215 0
5.89049 1.84763 0
6.28319 1.84763 0
5.49779 1.84763 0
5.89049 1.84763 0
5.49779 2.47489 0
5.89049 2.47489 0
5.89049 1.84763 0
6.28319 1.84763 0
5.89049 2.47489 0
6.28319 2.47489 0
3.14159 2.47489 0
3.53429 2.47489 0
3.14159 3.10185 0
3.53429 3.10185 0
3.53429 2.47489 0
3.92699 2.47489 0
3.53429 3.10185 0
3.92699 3.10185 0
3.14159 3.10185 0
3.53429 3.10185 0
3.14159 3.72883 0
3.53429 3.72883 0
3.53429 3.10185 0
3.92699 3.10185 0
3.53429 3.72883 0
3.92699 3.72883 0
3.92699 2.47489 0
4.31969 2.47489 0
3.92699 3.10185 0
4.31969 3.10185 0
4.31969 2.47489 0
4.71239 2.47489 0
4.31969 3.10185 0
4.71239 3.10185 0
3.92699 3.10185 0
4.31969 3.10185 0
3.92699 3.72883 0
4.31969 3.72883 0
4.31969 3.10185 0
4.71239 3.10185 0
4.31969 3.72883 0
4.71239 3.72883 0
3.14159 3.72883 0
3.53429 3.72883 0
3.14159 4.35571 0
3.53429 4.35571 0
3.53429 3.72883 0
3.92699 3.72883 0
3.53429 4.35571 0
3.92699 4.35571 0
3.14159 4.35571 0
3.53429 4.35571 0
3.14159 4.98252 0
3.53429 4.98252 0
3.53429 4.35571 0
3.92699 4.35571 0
3.53429 4.98252 0
3.92699 4.98252 0
3.92699 3.72883 0
4.31969 3.72883 0
3.92699 4.35571 0
4.31969 4.35571 0
4.31969 3.72883 0
4.71239 3.72883 0
4.31969 4.35571 0
4.71239 4.35571 0
3.92699 4.35571 0
4.31969 4.35571 0
3.92699 4.98252 0
4.31969 4.98252 0
4.31969 4.35571 0
4.71239 4.35571 0
4.31969 4.98252 0
4.71239 4.98252 0
4.71239 2.47489 0
5.10509 2.47489 0
4.71239 3.10185 0
5.10509 3.10185 0
5.10509 2.47489 0
5.49779 2.47489 0
5.10509 3.10185 0
5.49779 3.10185 0
4.71239 3.10185 0
5.10509 3.10185 0
4.71239 3.72883 0
5.10509 3.72883 0
5.10509 3.10185 0
5.49779 3.10185 0
5.10509 3.72883 0
5.49779 3.72883 0
5.49779 2.47489 0
5.89049 2.47489 0
5.49779 3.10185 0
5.89049 3.10185 0
5.89049 2.47489 0
6.28319 2.47489 0
5.89049 3.10185 0
6.28319 3.10185 0
5.49779 3.10185 0
5.89049 3.10185 0
5.49779 3.72883 0
5.89049 3.72883 0
5.89049 3.10185 0
6.28319 3.10185 0
5.89049 3.72883 0
6.28319 3.72883 0
4.71239 3.72883 0
5.10509 3.72883 0
4.71239 4.35571 0
5.10509 4.35571 0
5.10509 3.72883 0
5.49779 3.72883 0
5.10509 4.35571 0
5.49779 4.35571 0
4.71239 4.35571 0
5.10509 4.35571 0
4.71239 4.98252 0
5.10509 4.98252 0
5.10509 4.35571 0
5.49779 4.35571 0
5.10509 4.98252 0
5.49779 4.98252 0
5.49779 3.72883 0
5.89049 3.72883 0
5.49779 4.35571 0
5.89049 4.35571 0
5.89049 3.72883 0
6.28319 3.72883 0
5.89049 4.35571 0
6.28319 4.35571 0
5.49779 4.35571 0
5.89049 4.35571 0
5.49779 4.98252 0
5.89049 4.98252 0
5.89049 4.35571 0
6.28319 4.35571 0
5.89049 4.98252 0
6.28319 4.98252 0
0 4.98252 0
0.392699 4.98252 0
0 5.60923 0
0.392699 5.60923 0
0.392699 4.98252 0
0.785398 4.98252 0
0.392699 5.60923 0
0.785398 5.60923 0
0 5.60923 0
0.392699 5.60923 0
0 6.23586 0
0.392699 6.23586 0
0.392699 5.60923 0
0.785398 5.60923 0
0.392699 6.23586 0
0.785398 6.23586 0
0.785398 4.98252 0
1.1781 4.98252 0
0.785398 5.60923 0
1.1781 5.60923 0
1.1781 4.98252 0
1.5708 4.98252 0
1.1781 5.60923 0
1.5708 5.60923 0
0.785398 5.60923 0
1.1781 5.60923 0
0.785398 6.23586 0
1.1781 6.23586 0
1.1781 5.60923 0
1.5708 5.60923 0
1.1781 6.23586 0
1.5708 6.23586 0
0 6.23586 0
0.392699 6.23586 0
0 6.86241 0
0.392699 6.86241 0
0.392699 6.23586 0
0.785398 6.23586 0
0.392699 6.86241 0
0.785398 6.86241 0
0 6.86241 0
0.392699 6.86241 0
0 7.48898 0
0.392699 7.48898 0
0.392699 6.86241 0
0.785398 6.86241 0
0.392699 7.48898 0
0.785398 7.48898 0
0.785398 6.23586 0
1.1781 6.23586 0
0.785398 6.86241 0
1.1781 6.86241 0
1.1781 6.23586 0
1.5708 6.23586 0
[...]
POINT_DATA 5120
VECTORS uf double
0 1 0
-1.53419e-13 1 0
0 1.00255 0
-1.53083e-13 1.00255 0
-1.53419e-13 1 0
2.40062e-15 1 0
-1.53083e-13 1.00255 0
1.62861e-14 1.00255 0
0 1.00255 0
1.3082e-13 1.00255 0
0 1.00385 0
1.22798e-13 1.00385 0
1.3082e-13 1.00255 0
-4.30477e-14 1.00255 0
1.22798e-13 1.00385 0
-3.05201e-14 1.00385 0
2.40062e-15 1 0
2.46525e-13 1 0
1.62861e-14 1.00255 0
2.44791e-13 1.00255 0
2.46525e-13 1 0
4.7753e-14 1 0
2.44791e-13 1.00255 0
4.42179e-14 1.00255 0
-4.30477e-14 1.00255 0
-2.49354e-13 1.00255 0
-3.05201e-14 1.00385 0
-2.33508e-13 1.00385 0
-2.49354e-13 1.00255 0
-4.4733e-14 1.00255 0
-2.33508e-13 1.00385 0
-4.05094e-14 1.00385 0
0 1.00385 0
-1.4781e-14 1.00385 0
0 1.00544 0
-1.06553e-14 1.00544 0
-1.4781e-14 1.00385 0
8.44655e-14 1.00385 0
-1.06553e-14 1.00544 0
9.42965e-14 1.00544 0
0 1.00544 0
4.28441e-14 1.00544 0
0 1.00691 0
3.58244e-14 1.00691 0
4.28441e-14 1.00544 0
-2.75707e-14 1.00544 0
3.58244e-14 1.00691 0
-2.59665e-14 1.00691 0
8.44655e-14 1.00385 0
-5.29921e-15 1.00385 0
9.42965e-14 1.00544 0
6.563e-15 1.00544 0
-5.29921e-15 1.00385 0
-1.38867e-14 1.00385 0
6.563e-15 1.00544 0
7.68039e-15 1.00544 0
-2.75707e-14 1.00544 0
4.38492e-14 1.00544 0
-2.59665e-14 1.00691 0
4.26099e-14 1.00691 0
4.38492e-14 1.00544 0
-4.07611e-14 1.00544 0
4.26099e-14 1.00691 0
-2.6541e-14 1.00691 0
4.7753e-14 1 0
-3.41301e-14 1 0
4.42179e-14 1.00255 0
-1.7135e-14 1.00255 0
-3.41301e-14 1 0
-2.65278e-15 1 0
-1.7135e-14 1.00255 0
2.26997e-15 1.00255 0
-4.4733e-14 1.00255 0
2.58465e-14 1.00255 0
-4.05094e-14 1.00385 0
2.56558e-14 1.00385 0
2.58465e-14 1.00255 0
-5.17544e-15 1.00255 0
2.56558e-14 1.00385 0
5.90398e-15 1.00385 0
-2.65278e-15 1 0
9.59565e-16 1 0
2.26997e-15 1.00255 0
4.38759e-15 1.00255 0
9.59565e-16 1 0
-1.15797e-15 1 0
4.38759e-15 1.00255 0
9.04918e-15 1.00255 0
-5.17544e-15 1.00255 0
-1.01111e-14 1.00255 0
5.90398e-15 1.00385 0
1.13143e-14 1.00385 0
-1.01111e-14 1.00255 0
-7.66614e-15 1.00255 0
1.13143e-14 1.00385 0
1.01158e-14 1.00385 0
-1.38867e-14 1.00385 0
2.90047e-14 1.00385 0
7.68039e-15 1.00544 0
4.03906e-14 1.00544 0
2.90047e-14 1.00385 0
3.57938e-15 1.00385 0
4.03906e-14 1.00544 0
-2.87321e-15 1.00544 0
-4.07611e-14 1.00544 0
-9.16212e-15 1.00544 0
-2.6541e-14 1.00691 0
-7.93514e-15 1.00691 0
-9.16212e-15 1.00544 0
3.67544e-15 1.00544 0
-7.93514e-15 1.00691 0
-3.51256e-16 1.00691 0
3.57938e-15 1.00385 0
-1.02613e-14 1.00385 0
-2.87321e-15 1.00544 0
6.22648e-15 1.00544 0
-1.02613e-14 1.00385 0
-2.19708e-15 1.00385 0
6.22648e-15 1.00544 0
2.48053e-15 1.00544 0
3.67544e-15 1.00544 0
2.41669e-16 1.00544 0
-3.51256e-16 1.00691 0
2.88211e-15 1.00691 0
2.41669e-16 1.00544 0
-5.66871e-16 1.00544 0
2.88211e-15 1.00691 0
-2.12826e-15 1.00691 0
0 1.00691 0
-8.02204e-14 1.00691 0
0 1.00838 0
-8.08262e-14 1.00838 0
-8.02204e-14 1.00691 0
-4.1288e-14 1.00691 0
-8.08262e-14 1.00838 0
-4.53832e-14 1.00838 0
0 1.00838 0
8.06916e-14 1.00838 0
0 1.00981 0
7.67924e-14 1.00981 0
8.06916e-14 1.00838 0
8.87097e-14 1.00838 0
7.67924e-14 1.00981 0
8.74961e-14 1.00981 0
-4.1288e-14 1.00691 0
-6.36065e-14 1.00691 0
-4.53832e-14 1.00838 0
-4.69951e-14 1.00838 0
-6.36065e-14 1.00691 0
6.2652e-14 1.00691 0
-4.69951e-14 1.00838 0
4.97971e-14 1.00838 0
8.87097e-14 1.00838 0
6.48773e-14 1.00838 0
8.74961e-14 1.00981 0
6.45201e-14 1.00981 0
6.48773e-14 1.00838 0
-6.77162e-14 1.00838 0
6.45201e-14 1.00981 0
-6.94138e-14 1.00981 0
0 1.00981 0
2.21124e-14 1.00981 0
0 1.01122 0
1.51798e-14 1.01122 0
2.21124e-14 1.00981 0
-2.01333e-13 1.00981 0
1.51798e-14 1.01122 0
-1.9802e-13 1.01122 0
0 1.01122 0
-6.44767e-15 1.01122 0
0 1.01261 0
-3.00713e-15 1.01261 0
-6.44767e-15 1.01122 0
1.88355e-13 1.01122 0
-3.00713e-15 1.01261 0
1.82449e-13 1.01261 0
-2.01333e-13 1.00981 0
-4.91783e-14 1.00981 0
-1.9802e-13 1.01122 0
-4.87047e-14 1.01122 0
-4.91783e-14 1.00981 0
1.55071e-13 1.00981 0
-4.87047e-14 1.01122 0
1.41512e-13 1.01122 0
1.88355e-13 1.01122 0
2.78623e-14 1.01122 0
1.82449e-13 1.01261 0
2.49083e-14 1.01261 0
2.78623e-14 1.01122 0
-1.63306e-13 1.01122 0
2.49083e-14 1.01261 0
-1.51205e-13 1.01261 0
6.2652e-14 1.00691 0
1.4253e-14 1.00691 0
4.97971e-14 1.00838 0
1.32399e-14 1.00838 0
1.4253e-14 1.00691 0
1.46187e-15 1.00691 0
1.32399e-14 1.00838 0
-3.13337e-15 1.00838 0
-6.77162e-14 1.00838 0
-2.38668e-14 1.00838 0
-6.94138e-14 1.00981 0
-2.01899e-14 1.00981 0
-2.38668e-14 1.00838 0
-4.03887e-15 1.00838 0
-2.01899e-14 1.00981 0
-3.5403e-15 1.00981 0
1.46187e-15 1.00691 0
-7.18433e-16 1.00691 0
-3.13337e-15 1.00838 0
9.61432e-16 1.00838 0
-7.18433e-16 1.00691 0
-1.79245e-15 1.00691 0
9.61432e-16 1.00838 0
9.63522e-15 1.00838 0
-4.03887e-15 1.00838 0
-3.17289e-15 1.00838 0
-3.5403e-15 1.00981 0
4.83131e-15 1.00981 0
-3.17289e-15 1.00838 0
1.91638e-14 1.00838 0
4.83131e-15 1.00981 0
1.95752e-14 1.00981 0
1.55071e-13 1.00981 0
-2.18715e-14 1.00981 0
1.41512e-13 1.01122 0
-1.74284e-14 1.01122 0
-2.18715e-14 1.00981 0
5.3612e-15 1.00981 0
-1.74284e-14 1.01122 0
2.5419e-15 1.01122 0
-1.63306e-13 1.01122 0
-4.09071e-14 1.01122 0
-1.51205e-13 1.01261 0
-3.73139e-14 1.01261 0
-4.09071e-14 1.01122 0
1.06935e-16 1.01122 0
-3.73139e-14 1.01261 0
3.57535e-15 1.01261 0
5.3612e-15 1.00981 0
-2.03376e-15 1.00981 0
2.5419e-15 1.01122 0
4.84404e-15 1.01122 0
-2.03376e-15 1.00981 0
-1.63307e-14 1.00981 0
4.84404e-15 1.01122 0
-1.65018e-14 1.01122 0
1.06935e-16 1.01122 0
7.44619e-15 1.01122 0
3.57535e-15 1.01261 0
1.59901e-14 1.01261 0
7.44619e-15 1.01122 0
-7.56641e-15 1.01122 0
1.59901e-14 1.01261 0
-7.7332e-16 1.01261 0
-1.15797e-15 1 0
1.88395e-15 1 0
9.04918e-15 1.00255 0
9.11055e-15 1.00255 0
1.88395e-15 1 0
9.041e-15 1 0
9.11055e-15 1.00255 0
6.28897e-15 1.00255 0
-7.66614e-15 1.00255 0
4.93809e-15 1.00255 0
1.01158e-14 1.00385 0
3.90775e-16 1.00385 0
4.93809e-15 1.00255 0
-7.90285e-15 1.00255 0
3.90775e-16 1.00385 0
6.15419e-15 1.00385 0
9.041e-15 1 0
1.01903e-14 1 0
6.28897e-15 1.00255 0
2.58199e-15 1.00255 0
1.01903e-14 1 0
4.13816e-15 1 0
2.58199e-15 1.00255 0
1.22052e-14 1.00255 0
-7.90285e-15 1.00255 0
-5.60738e-16 1.00255 0
6.15419e-15 1.00385 0
-4.32776e-16 1.00385 0
-5.60738e-16 1.00255 0
-3.48019e-15 1.00255 0
-4.32776e-16 1.00385 0
5.67849e-15 1.00385 0
-2.19708e-15 1.00385 0
-4.67507e-15 1.00385 0
2.48053e-15 1.00544 0
7.26173e-15 1.00544 0
-4.67507e-15 1.00385 0
-3.61373e-15 1.00385 0
7.26173e-15 1.00544 0
2.72713e-15 1.00544 0
-5.66871e-16 1.00544 0
1.22831e-15 1.00544 0
-2.12826e-15 1.00691 0
5.55332e-15 1.00691 0
1.22831e-15 1.00544 0
1.25713e-14 1.00544 0
5.55332e-15 1.00691 0
5.4962e-15 1.00691 0
-3.61373e-15 1.00385 0
1.46571e-14 1.00385 0
2.72713e-15 1.00544 0
-4.81807e-15 1.00544 0
1.46571e-14 1.00385 0
1.07005e-15 1.00385 0
-4.81807e-15 1.00544 0
5.83106e-15 1.00544 0
1.25713e-14 1.00544 0
-8.27332e-16 1.00544 0
5.4962e-15 1.00691 0
2.43539e-15 1.00691 0
-8.27332e-16 1.00544 0
6.23565e-15 1.00544 0
2.43539e-15 1.00691 0
7.46455e-15 1.00691 0
4.13816e-15 1 0
4.38454e-15 1 0
1.22052e-14 1.00255 0
1.46011e-14 1.00255 0
4.38454e-15 1 0
3.38388e-15 1 0
1.46011e-14 1.00255 0
1.59795e-14 1.00255 0
-3.48019e-15 1.00255 0
-2.93594e-16 1.00255 0
5.67849e-15 1.00385 0
2.19124e-15 1.00385 0
-2.93594e-16 1.00255 0
-6.10187e-15 1.00255 0
2.19124e-15 1.00385 0
1.0219e-14 1.00385 0
3.38388e-15 1 0
5.09989e-15 1 0
1.59795e-14 1.00255 0
1.36201e-14 1.00255 0
5.09989e-15 1 0
9.45874e-15 1 0
1.36201e-14 1.00255 0
2.12264e-15 1.00255 0
-6.10187e-15 1.00255 0
4.27873e-16 1.00255 0
1.0219e-14 1.00385 0
1.12966e-14 1.00385 0
4.27873e-16 1.00255 0
6.34055e-15 1.00255 0
1.12966e-14 1.00385 0
3.88579e-15 1.00385 0
1.07005e-15 1.00385 0
-1.32158e-14 1.00385 0
5.83106e-15 1.00544 0
1.26765e-14 1.00544 0
-1.32158e-14 1.00385 0
6.33412e-15 1.00385 0
1.26765e-14 1.00544 0
1.74927e-15 1.00544 0
6.23565e-15 1.00544 0
2.24285e-16 1.00544 0
7.46455e-15 1.00691 0
6.61916e-15 1.00691 0
2.24285e-16 1.00544 0
-1.36648e-15 1.00544 0
6.61916e-15 1.00691 0
-9.74632e-16 1.00691 0
6.33412e-15 1.00385 0
-1.60413e-14 1.00385 0
1.74927e-15 1.00544 0
1.41336e-14 1.00544 0
-1.60413e-14 1.00385 0
-6.15351e-15 1.00385 0
1.41336e-14 1.00544 0
5.58834e-15 1.00544 0
-1.36648e-15 1.00544 0
-1.23273e-15 1.00544 0
-9.74632e-16 1.00691 0
3.99957e-15 1.00691 0
-1.23273e-15 1.00544 0
-2.30367e-15 1.00544 0
3.99957e-15 1.00691 0
5.10081e-15 1.00691 0
-1.79245e-15 1.00691 0
-4.23155e-16 1.00691 0
9.63522e-15 1.00838 0
7.6595e-16 1.00838 0
-4.23155e-16 1.00691 0
-9.69366e-15 1.00691 0
7.6595e-16 1.00838 0
-3.90645e-15 1.00838 0
1.91638e-14 1.00838 0
-8.84711e-15 1.00838 0
1.95752e-14 1.00981 0
8.64444e-16 1.00981 0
-8.84711e-15 1.00838 0
5.72181e-15 1.00838 0
8.64444e-16 1.00981 0
1.68205e-15 1.00981 0
-9.69366e-15 1.00691 0
6.51134e-15 1.00691 0
-3.90645e-15 1.00838 0
1.42992e-15 1.00838 0
6.51134e-15 1.00691 0
-4.27053e-15 1.00691 0
1.42992e-15 1.00838 0
4.54621e-15 1.00838 0
5.72181e-15 1.00838 0
2.36556e-15 1.00838 0
1.68205e-15 1.00981 0
4.56876e-15 1.00981 0
2.36556e-15 1.00838 0
1.98835e-16 1.00838 0
4.56876e-15 1.00981 0
-3.75612e-16 1.00981 0
-1.63307e-14 1.00981 0
1.35707e-14 1.00981 0
-1.65018e-14 1.01122 0
5.53874e-15 1.01122 0
1.35707e-14 1.00981 0
-6.38567e-15 1.00981 0
5.53874e-15 1.01122 0
7.36633e-15 1.01122 0
-7.56641e-15 1.01122 0
-3.3606e-15 1.01122 0
-7.7332e-16 1.01261 0
7.59588e-16 1.01261 0
-3.3606e-15 1.01122 0
2.25067e-14 1.01122 0
7.59588e-16 1.01261 0
3.10099e-14 1.01261 0
-6.38567e-15 1.00981 0
-7.21543e-15 1.00981 0
7.36633e-15 1.01122 0
6.01986e-15 1.01122 0
-7.21543e-15 1.00981 0
-3.14368e-15 1.00981 0
6.01986e-15 1.01122 0
7.26061e-15 1.01122 0
2.25067e-14 1.01122 0
5.41832e-15 1.01122 0
3.10099e-14 1.01261 0
3.76303e-15 1.01261 0
5.41832e-15 1.01122 0
-4.54141e-15 1.01122 0
3.76303e-15 1.01261 0
4.06083e-15 1.01261 0
-4.27053e-15 1.00691 0
4.55621e-15 1.00691 0
4.54621e-15 1.00838 0
-5.78163e-15 1.00838 0
4.55621e-15 1.00691 0
1.08717e-16 1.00691 0
-5.78163e-15 1.00838 0
6.536e-15 1.00838 0
1.98835e-16 1.00838 0
1.3443e-15 1.00838 0
-3.75612e-16 1.00981 0
1.40211e-15 1.00981 0
1.3443e-15 1.00838 0
2.44148e-15 1.00838 0
1.40211e-15 1.00981 0
4.85078e-17 1.00981 0
1.08717e-16 1.00691 0
7.4154e-15 1.00691 0
6.536e-15 1.00838 0
6.89445e-16 1.00838 0
7.4154e-15 1.00691 0
3.56658e-15 1.00691 0
6.89445e-16 1.00838 0
2.50565e-15 1.00838 0
2.44148e-15 1.00838 0
-1.49334e-15 1.00838 0
4.85078e-17 1.00981 0
6.62834e-15 1.00981 0
-1.49334e-15 1.00838 0
-1.61723e-15 1.00838 0
6.62834e-15 1.00981 0
5.60444e-15 1.00981 0
-3.14368e-15 1.00981 0
1.32562e-15 1.00981 0
7.26061e-15 1.01122 0
4.10738e-16 1.01122 0
1.32562e-15 1.00981 0
-7.7195e-15 1.00981 0
4.10738e-16 1.01122 0
6.2807e-15 1.01122 0
-4.54141e-15 1.01122 0
8.67997e-16 1.01122 0
4.06083e-15 1.01261 0
2.95957e-15 1.01261 0
8.67997e-16 1.01122 0
-1.10951e-16 1.01122 0
2.95957e-15 1.01261 0
3.41494e-15 1.01261 0
-7.7195e-15 1.00981 0
-1.7958e-15 1.00981 0
6.2807e-15 1.01122 0
6.15313e-15 1.01122 0
-1.7958e-15 1.00981 0
-1.22076e-15 1.00981 0
6.15313e-15 1.01122 0
3.83695e-15 1.01122 0
-1.10951e-16 1.01122 0
-6.18695e-15 1.01122 0
3.41494e-15 1.01261 0
-3.32787e-15 1.01261 0
-6.18695e-15 1.01122 0
4.36857e-15 1.01122 0
-3.32787e-15 1.01261 0
-2.38626e-15 1.01261 0
0 1.01261 0
-3.93242e-14 1.01261 0
0 1.01398 0
-3.47272e-14 1.01398 0
-3.93242e-14 1.01261 0
-1.21936e-13 1.01261 0
-3.47272e-14 1.01398 0
-1.22601e-13 1.01398 0
0 1.01398 0
3.22984e-14 1.01398 0
0 1.01535 0
2.85497e-14 1.01535 0
3.22984e-14 1.01398 0
1.11073e-13 1.01398 0
2.85497e-14 1.01535 0
1.06666e-13 1.01535 0
-1.21936e-13 1.01261 0
3.66459e-14 1.01261 0
-1.22601e-13 1.01398 0
4.30057e-14 1.01398 0
3.66459e-14 1.01261 0
1.08381e-13 1.01261 0
4.30057e-14 1.01398 0
1.0153e-13 1.01398 0
1.11073e-13 1.01398 0
-1.2305e-13 1.01398 0
1.06666e-13 1.01535 0
-1.12958e-13 1.01535 0
-1.2305e-13 1.01398 0
-6.40296e-14 1.01398 0
-1.12958e-13 1.01535 0
-7.09738e-14 1.01535 0
0 1.01535 0
-4.70748e-14 1.01535 0
0 1.01672 0
-4.40904e-14 1.01672 0
-4.70748e-14 1.01535 0
-9.44636e-14 1.01535 0
-4.40904e-14 1.01672 0
-9.30835e-14 1.01672 0
0 1.01672 0
3.22499e-14 1.01672 0
0 1.01811 0
3.11421e-14 1.01811 0
3.22499e-14 1.01672 0
5.74101e-14 1.01672 0
3.11421e-14 1.01811 0
5.82712e-14 1.01811 0
-9.44636e-14 1.01535 0
5.90106e-14 1.01535 0
-9.30835e-14 1.01672 0
5.97398e-14 1.01672 0
5.90106e-14 1.01535 0
3.06001e-14 1.01535 0
5.97398e-14 1.01672 0
3.5839e-14 1.01672 0
5.74101e-14 1.01672 0
-1.54247e-14 1.01672 0
5.82712e-14 1.01811 0
-1.0472e-14 1.01811 0
-1.54247e-14 1.01672 0
-1.89652e-15 1.01672 0
-1.0472e-14 1.01811 0
-5.30574e-15 1.01811 0
1.08381e-13 1.01261 0
4.45578e-14 1.01261 0
1.0153e-13 1.01398 0
5.40201e-14 1.01398 0
4.45578e-14 1.01261 0
-5.298e-17 1.01261 0
5.40201e-14 1.01398 0
3.25485e-15 1.01398 0
-6.40296e-14 1.01398 0
-1.66737e-15 1.01398 0
-7.09738e-14 1.01535 0
2.37658e-15 1.01535 0
-1.66737e-15 1.01398 0
-5.02048e-15 1.01398 0
2.37658e-15 1.01535 0
1.70536e-15 1.01535 0
-5.298e-17 1.01261 0
-9.089e-15 1.01261 0
3.25485e-15 1.01398 0
-1.038e-14 1.01398 0
-9.089e-15 1.01261 0
8.56671e-15 1.01261 0
-1.038e-14 1.01398 0
1.2093e-14 1.01398 0
-5.02048e-15 1.01398 0
1.70771e-15 1.01398 0
1.70536e-15 1.01535 0
3.92614e-15 1.01535 0
1.70771e-15 1.01398 0
-7.28499e-15 1.01398 0
3.92614e-15 1.01535 0
-2.52647e-16 1.01535 0
3.06001e-14 1.01535 0
-1.26055e-14 1.01535 0
3.5839e-14 1.01672 0
-6.50196e-15 1.01672 0
-1.26055e-14 1.01535 0
-2.04434e-15 1.01535 0
-6.50196e-15 1.01672 0
7.32847e-15 1.01672 0
-1.89652e-15 1.01672 0
2.55145e-15 1.01672 0
-5.30574e-15 1.01811 0
2.55718e-15 1.01811 0
2.55145e-15 1.01672 0
-4.1008e-15 1.01672 0
2.55718e-15 1.01811 0
2.17671e-15 1.01811 0
-2.04434e-15 1.01535 0
-3.49178e-16 1.01535 0
7.32847e-15 1.01672 0
2.69733e-15 1.01672 0
-3.49178e-16 1.01535 0
-7.81109e-15 1.01535 0
2.69733e-15 1.01672 0
5.83982e-15 1.01672 0
-4.1008e-15 1.01672 0
-1.76508e-15 1.01672 0
2.17671e-15 1.01811 0
6.00699e-16 1.01811 0
-1.76508e-15 1.01672 0
-4.87902e-15 1.01672 0
6.00699e-16 1.01811 0
3.85225e-15 1.01811 0
0 1.01811 0
3.5848e-14 1.01811 0
0 1.0195 0
3.23471e-14 1.0195 0
3.5848e-14 1.01811 0
-3.14307e-14 1.01811 0
3.23471e-14 1.0195 0
-2.5488e-14 1.0195 0
0 1.0195 0
-3.66829e-14 1.0195 0
0 1.02086 0
-3.36868e-14 1.02086 0
-3.66829e-14 1.0195 0
3.95385e-14 1.0195 0
-3.36868e-14 1.02086 0
3.9309e-14 1.02086 0
-3.14307e-14 1.01811 0
4.53537e-15 1.01811 0
-2.5488e-14 1.0195 0
4.86014e-15 1.0195 0
4.53537e-15 1.01811 0
-1.13474e-14 1.01811 0
4.86014e-15 1.0195 0
-7.46863e-15 1.0195 0
3.95385e-14 1.0195 0
-2.61416e-15 1.0195 0
3.9309e-14 1.02086 0
1.22641e-15 1.02086 0
-2.61416e-15 1.0195 0
-3.6412e-15 1.0195 0
1.22641e-15 1.02086 0
1.01714e-15 1.02086 0
0 1.02086 0
9.78133e-15 1.02086 0
0 1.02205 0
5.9551e-15 1.02205 0
9.78133e-15 1.02086 0
-2.86464e-14 1.02086 0
5.9551e-15 1.02205 0
-3.0711e-14 1.02205 0
0 1.02205 0
1.09682e-15 1.02205 0
0 1.02258 0
-7.08158e-15 1.02258 0
1.09682e-15 1.02205 0
-7.23802e-15 1.02205 0
-7.08158e-15 1.02258 0
9.74554e-15 1.02258 0
-2.86464e-14 1.02086 0
3.695e-16 1.02086 0
-3.0711e-14 1.02205 0
-2.68467e-16 1.02205 0
3.695e-16 1.02086 0
3.76973e-15 1.02086 0
-2.68467e-16 1.02205 0
-1.82849e-16 1.02205 0
-7.23802e-15 1.02205 0
-5.92843e-15 1.02205 0
9.74554e-15 1.02258 0
-1.51174e-14 1.02258 0
-5.92843e-15 1.02205 0
-4.37916e-16 1.02205 0
-1.51174e-14 1.02258 0
1.82624e-14 1.02258 0
-1.13474e-14 1.01811 0
-1.0957e-14 1.01811 0
-7.46863e-15 1.0195 0
-1.02141e-15 1.0195 0
-1.0957e-14 1.01811 0
-2.56059e-15 1.01811 0
-1.02141e-15 1.0195 0
1.86841e-15 1.0195 0
-3.6412e-15 1.0195 0
4.53163e-15 1.0195 0
1.01714e-15 1.02086 0
5.43322e-15 1.02086 0
4.53163e-15 1.0195 0
-2.40263e-15 1.0195 0
5.43322e-15 1.02086 0
1.37929e-15 1.02086 0
-2.56059e-15 1.01811 0
8.421e-16 1.01811 0
1.86841e-15 1.0195 0
-6.99708e-16 1.0195 0
8.421e-16 1.01811 0
-1.06563e-15 1.01811 0
-6.99708e-16 1.0195 0
7.07537e-16 1.0195 0
-2.40263e-15 1.0195 0
-4.05851e-15 1.0195 0
1.37929e-15 1.02086 0
2.57949e-15 1.02086 0
-4.05851e-15 1.0195 0
-5.98668e-16 1.0195 0
2.57949e-15 1.02086 0
1.37803e-15 1.02086 0
3.76973e-15 1.02086 0
-8.62788e-15 1.02086 0
-1.82849e-16 1.02205 0
-5.11285e-15 1.02205 0
-8.62788e-15 1.02086 0
-9.18253e-16 1.02086 0
-5.11285e-15 1.02205 0
4.71137e-16 1.02205 0
-4.37916e-16 1.02205 0
-3.09144e-15 1.02205 0
1.82624e-14 1.02258 0
8.18666e-16 1.02258 0
-3.09144e-15 1.02205 0
-1.58098e-15 1.02205 0
8.18666e-16 1.02258 0
-5.59871e-16 1.02258 0
-9.18253e-16 1.02086 0
-4.00775e-15 1.02086 0
4.71137e-16 1.02205 0
2.49167e-15 1.02205 0
-4.00775e-15 1.02086 0
-3.99909e-16 1.02086 0
2.49167e-15 1.02205 0
1.12639e-15 1.02205 0
-1.58098e-15 1.02205 0
-1.28295e-15 1.02205 0
-5.59871e-16 1.02258 0
9.14667e-15 1.02258 0
-1.28295e-15 1.02205 0
3.28665e-16 1.02205 0
9.14667e-15 1.02258 0
-2.05027e-14 1.02258 0
8.56671e-15 1.01261 0
2.63092e-15 1.01261 0
1.2093e-14 1.01398 0
1.1871e-14 1.01398 0
2.63092e-15 1.01261 0
-2.29418e-14 1.01261 0
1.1871e-14 1.01398 0
-2.06377e-14 1.01398 0
-7.28499e-15 1.01398 0
-7.36136e-15 1.01398 0
-2.52647e-16 1.01535 0
5.30143e-15 1.01535 0
-7.36136e-15 1.01398 0
1.45342e-15 1.01398 0
5.30143e-15 1.01535 0
6.38763e-16 1.01535 0
-2.29418e-14 1.01261 0
-5.07678e-15 1.01261 0
-2.06377e-14 1.01398 0
5.85031e-15 1.01398 0
-5.07678e-15 1.01261 0
2.58218e-16 1.01261 0
5.85031e-15 1.01398 0
5.80047e-15 1.01398 0
1.45342e-15 1.01398 0
-1.5104e-15 1.01398 0
6.38763e-16 1.01535 0
3.59102e-15 1.01535 0
-1.5104e-15 1.01398 0
-8.08495e-16 1.01398 0
3.59102e-15 1.01535 0
2.94574e-15 1.01535 0
-7.81109e-15 1.01535 0
-5.0777e-15 1.01535 0
5.83982e-15 1.01672 0
5.07137e-15 1.01672 0
-5.0777e-15 1.01535 0
-5.83536e-15 1.01535 0
5.07137e-15 1.01672 0
5.26111e-15 1.01672 0
-4.87902e-15 1.01672 0
-2.85265e-15 1.01672 0
3.85225e-15 1.01811 0
8.1814e-16 1.01811 0
-2.85265e-15 1.01672 0
-1.21253e-15 1.01672 0
8.1814e-16 1.01811 0
-9.60215e-16 1.01811 0
-5.83536e-15 1.01535 0
-1.75761e-15 1.01535 0
5.26111e-15 1.01672 0
2.17937e-16 1.01672 0
-1.75761e-15 1.01535 0
-3.55855e-15 1.01535 0
2.17937e-16 1.01672 0
2.99327e-15 1.01672 0
-1.21253e-15 1.01672 0
-2.47323e-15 1.01672 0
-9.60215e-16 1.01811 0
2.81308e-15 1.01811 0
-2.47323e-15 1.01672 0
3.25298e-15 1.01672 0
2.81308e-15 1.01811 0
8.39703e-16 1.01811 0
2.58218e-16 1.01261 0
-6.91032e-16 1.01261 0
5.80047e-15 1.01398 0
2.89879e-15 1.01398 0
-6.91032e-16 1.01261 0
2.20189e-15 1.01261 0
2.89879e-15 1.01398 0
2.93475e-15 1.01398 0
-8.08495e-16 1.01398 0
-1.69556e-15 1.01398 0
2.94574e-15 1.01535 0
2.89974e-15 1.01535 0
-1.69556e-15 1.01398 0
2.54297e-15 1.01398 0
2.89974e-15 1.01535 0
-1.9235e-15 1.01535 0
2.20189e-15 1.01261 0
-5.19864e-16 1.01261 0
2.93475e-15 1.01398 0
5.08284e-15 1.01398 0
-5.19864e-16 1.01261 0
1.09279e-15 1.01261 0
5.08284e-15 1.01398 0
2.83343e-15 1.01398 0
2.54297e-15 1.01398 0
-2.39468e-15 1.01398 0
-1.9235e-15 1.01535 0
1.81284e-15 1.01535 0
-2.39468e-15 1.01398 0
-6.73786e-15 1.01398 0
1.81284e-15 1.01535 0
6.70549e-15 1.01535 0
-3.55855e-15 1.01535 0
-6.05371e-15 1.01535 0
2.99327e-15 1.01672 0
3.79678e-15 1.01672 0
-6.05371e-15 1.01535 0
2.04573e-15 1.01535 0
3.79678e-15 1.01672 0
-1.29406e-15 1.01672 0
3.25298e-15 1.01672 0
-2.5719e-15 1.01672 0
8.39703e-16 1.01811 0
2.97252e-15 1.01811 0
-2.5719e-15 1.01672 0
-3.93033e-15 1.01672 0
2.97252e-15 1.01811 0
3.92748e-15 1.01811 0
2.04573e-15 1.01535 0
-3.03486e-16 1.01535 0
-1.29406e-15 1.01672 0
2.01575e-15 1.01672 0
-3.03486e-16 1.01535 0
-4.6571e-15 1.01535 0
2.01575e-15 1.01672 0
6.43378e-15 1.01672 0
-3.93033e-15 1.01672 0
-1.00705e-17 1.01672 0
3.92748e-15 1.01811 0
-1.94335e-15 1.01811 0
-1.00705e-17 1.01672 0
6.06477e-15 1.01672 0
-1.94335e-15 1.01811 0
-2.88781e-15 1.01811 0
-1.06563e-15 1.01811 0
-5.36268e-15 1.01811 0
7.07537e-16 1.0195 0
2.30616e-15 1.0195 0
-5.36268e-15 1.01811 0
-4.40666e-16 1.01811 0
2.30616e-15 1.0195 0
-2.76885e-16 1.0195 0
-5.98668e-16 1.0195 0
-2.82221e-15 1.0195 0
1.37803e-15 1.02086 0
4.18179e-15 1.02086 0
-2.82221e-15 1.0195 0
-2.51444e-15 1.0195 0
4.18179e-15 1.02086 0
1.8091e-15 1.02086 0
-4.40666e-16 1.01811 0
-3.07543e-16 1.01811 0
-2.76885e-16 1.0195 0
1.97488e-15 1.0195 0
-3.07543e-16 1.01811 0
-5.02985e-15 1.01811 0
1.97488e-15 1.0195 0
3.72441e-15 1.0195 0