# vtk DataFile Version 3.0
#This file was generated by the deal.II library on 2018/10/12 at 1:40:05
ASCII
DATASET UNSTRUCTURED_GRID

POINTS 5120 double
0 0 0
0.392699 0 0
0 0.59053 0
0.392699 0.59053 0
0.392699 0 0
0.785398 0 0
0.392699 0.59053 0
0.785398 0.59053 0
0 0.59053 0
0.392699 0.59053 0
0 1.21795 0
0.392699 1.21795 0
0.392699 0.59053 0
0.785398 0.59053 0
0.392699 1.21795 0
0.785398 1.21795 0
0.785398 0 0
1.1781 0 0
0.785398 0.59053 0
1.1781 0.59053 0
1.1781 0 0
1.5708 0 0
1.1781 0.59053 0
1.5708 0.59053 0
0.785398 0.59053 0
1.1781 0.59053 0
0.785398 1.21795 0
1.1781 1.21795 0
1.1781 0.59053 0
1.5708 0.59053 0
1.1781 1.21795 0
1.5708 1.21795 0
0 1.21795 0
0.392699 1.21795 0
0 1.84422 0
0.392699 1.84422 0
0.392699 1.21795 0
0.785398 1.21795 0
0.392699 1.84422 0
0.785398 1.84422 0
0 1.84422 0
0.392699 1.84422 0
0 2.47179 0
0.392699 2.47179 0
0.392699 1.84422 0
0.785398 1.84422 0
0.392699 2.47179 0
0.785398 2.47179 0
0.785398 1.21795 0
1.1781 1.21795 0
0.785398 1.84422 0
1.1781 1.84422 0
1.1781 1.21795 0
1.5708 1.21795 0
1.1781 1.84422 0
1.5708 1.84422 0
0.785398 1.84422 0
1.1781 1.84422 0
0.785398 2.47179 0
1.1781 2.47179 0
1.1781 1.84422 0
1.5708 1.84422 0
1.1781 2.47179 0
1.5708 2.47179 0
1.5708 0 0
1.9635 0 0
1.5708 0.59053 0
1.9635 0.59053 0
1.9635 0 0
2.35619 0 0
1.9635 0.59053 0
2.35619 0.59053 0
1.5708 0.59053 0
1.9635 0.59053 0
1.5708 1.21795 0
1.9635 1.21795 0
1.9635 0.59053 0
2.35619 0.59053 0
1.9635 1.21795 0
2.35619 1.21795 0
2.35619 0 0
2.74889 0 0
2.35619 0.59053 0
2.74889 0.59053 0
2.74889 0 0
3.14159 0 0
2.74889 0.59053 0
3.14159 0.59053 0
2.35619 0.59053 0
2.74889 0.59053 0
2.35619 1.21795 0
2.74889 1.21795 0
2.74889 0.59053 0
3.14159 0.59053 0
2.74889 1.21795 0
3.14159 1.21795 0
1.5708 1.21795 0
1.9635 1.21795 0
1.5708 1.84422 0
1.9635 1.84422 0
1.9635 1.21795 0
2.35619 1.21795 0
1.9635 1.84422 0
2.35619 1.84422 0
1.5708 1.84422 0
1.9635 1.84422 0
1.5708 2.47179 0
1.9635 2.47179 0
1.9635 1.84422 0
2.35619 1.84422 0
1.9635 2.47179 0
2.35619 2.47179 0
2.35619 1.21795 0
2.74889 1.21795 0
2.35619 1.84422 0
2.74889 1.84422 0
2.74889 1.21795 0
3.14159 1.21795 0
2.74889 1.84422 0
3.14159 1.84422 0
2.35619 1.84422 0
2.74889 1.84422 0
2.35619 2.47179 0
2.74889 2.47179 0
2.74889 1.84422 0
3.14159 1.84422 0
2.74889 2.47179 0
3.14159 2.47179 0
0 2.47179 0
0.392699 2.47179 0
0 3.099 0
0.392699 3.099 0
0.392699 2.47179 0
0.785398 2.47179 0
0.392699 3.099 0
0.785398 3.099 0
0 3.099 0
0.392699 3.099 0
0 3.72625 0
0.392699 3.72625 0
0.392699 3.099 0
0.785398 3.099 0
0.392699 3.72625 0
0.785398 3.72625 0
0.785398 2.47179 0
1.1781 2.47179 0
0.785398 3.099 0
1.1781 3.099 0
1.1781 2.47179 0
1.5708 2.47179 0
1.1781 3.099 0
1.5708 3.099 0
0.785398 3.099 0
1.1781 3.099 0
0.785398 3.72625 0
1.1781 3.72625 0
1.1781 3.099 0
1.5708 3.099 0
1.1781 3.72625 0
1.5708 3.72625 0
0 3.72625 0
0.392699 3.72625 0
0 4.35339 0
0.392699 4.35339 0
0.392699 3.72625 0
0.785398 3.72625 0
0.392699 4.35339 0
0.785398 4.35339 0
0 4.35339 0
0.392699 4.35339 0
0 4.98044 0
0.392699 4.98044 0
0.392699 4.35339 0
0.785398 4.35339 0
0.392699 4.98044 0
0.785398 4.98044 0
0.785398 3.72625 0
1.1781 3.72625 0
0.785398 4.35339 0
1.1781 4.35339 0
1.1781 3.72625 0
1.5708 3.72625 0
1.1781 4.35339 0
1.5708 4.35339 0
0.785398 4.35339 0
1.1781 4.35339 0
0.785398 4.98044 0
1.1781 4.98044 0
1.1781 4.35339 0
1.5708 4.35339 0
1.1781 4.98044 0
1.5708 4.98044 0
1.5708 2.47179 0
1.9635 2.47179 0
1.5708 3.099 0
1.9635 3.099 0
1.9635 2.47179 0
2.35619 2.47179 0
1.9635 3.099 0
2.35619 3.099 0
1.5708 3.099 0
1.9635 3.099 0
1.5708 3.72625 0
1.9635 3.72625 0
1.9635 3.099 0
2.35619 3.099 0
1.9635 3.72625 0
2.35619 3.72625 0
2.35619 2.47179 0
2.74889 2.47179 0
2.35619 3.099 0
2.74889 3.099 0
2.74889 2.47179 0
3.14159 2.47179 0
2.74889 3.099 0
3.14159 3.099 0
2.35619 3.099 0
2.74889 3.099 0
2.35619 3.72625 0
2.74889 3.72625 0
2.74889 3.099 0
3.14159 3.099 0
2.74889 3.72625 0
3.14159 3.72625 0
1.5708 3.72625 0
1.9635 3.72625 0
1.5708 4.35339 0
1.9635 4.35339 0
1.9635 3.72625 0
2.35619 3.72625 0
1.9635 4.35339 0
2.35619 4.35339 0
1.5708 4.35339 0
1.9635 4.35339 0
1.5708 4.98044 0
1.9635 4.98044 0
1.9635 4.35339 0
2.35619 4.35339 0
1.9635 4.98044 0
2.35619 4.98044 0
2.35619 3.72625 0
2.74889 3.72625 0
2.35619 4.35339 0
2.74889 4.35339 0
2.74889 3.72625 0
3.14159 3.72625 0
2.74889 4.35339 0
3.14159 4.35339 0
2.35619 4.35339 0
2.74889 4.35339 0
2.35619 4.98044 0
2.74889 4.98044 0
2.74889 4.35339 0
3.14159 4.35339 0
2.74889 4.98044 0
3.14159 4.98044 0
3.14159 0 0
3.53429 0 0
3.14159 0.59053 0
3.53429 0.59053 0
3.53429 0 0
3.92699 0 0
3.53429 0.59053 0
3.92699 0.59053 0
3.14159 0.59053 0
3.53429 0.59053 0
3.14159 1.21795 0
3.53429 1.21795 0
3.53429 0.59053 0
3.92699 0.59053 0
3.53429 1.21795 0
3.92699 1.21795 0
3.92699 0 0
4.31969 0 0
3.92699 0.59053 0
4.31969 0.59053 0
4.31969 0 0
4.71239 0 0
4.31969 0.59053 0
4.71239 0.59053 0
3.92699 0.59053 0
4.31969 0.59053 0
3.92699 1.21795 0
4.31969 1.21795 0
4.31969 0.59053 0
4.71239 0.59053 0
4.31969 1.21795 0
4.71239 1.21795 0
3.14159 1.21795 0
3.53429 1.21795 0
3.14159 1.84422 0
3.53429 1.84422 0
3.53429 1.21795 0
3.92699 1.21795 0
3.53429 1.84422 0
3.92699 1.84422 0
3.14159 1.84422 0
3.53429 1.84422 0
3.14159 2.47179 0
3.53429 2.47179 0
3.53429 1.84422 0
3.92699 1.84422 0
3.53429 2.47179 0
3.92699 2.47179 0
3.92699 1.21795 0
4.31969 1.21795 0
3.92699 1.84422 0
4.31969 1.84422 0
4.31969 1.21795 0
4.71239 1.21795 0
4.31969 1.84422 0
4.71239 1.84422 0
3.92699 1.84422 0
4.31969 1.84422 0
3.92699 2.47179 0
4.31969 2.47179 0
4.31969 1.84422 0
4.71239 1.84422 0
4.31969 2.47179 0
4.71239 2.47179 0
4.71239 0 0
5.10509 0 0
4.71239 0.59053 0
5.10509 0.59053 0
5.10509 0 0
5.49779 0 0
5.10509 0.59053 0
5.49779 0.59053 0
4.71239 0.59053 0
5.10509 0.59053 0
4.71239 1.21795 0
5.10509 1.21795 0
5.10509 0.59053 0
5.49779 0.59053 0
5.10509 1.21795 0
5.49779 1.21795 0
5.49779 0 0
5.89049 0 0
5.49779 0.59053 0
5.89049 0.59053 0
5.89049 0 0
6.28319 0 0
5.89049 0.59053 0
6.28319 0.59053 0
5.49779 0.59053 0
5.89049 0.59053 0
5.49779 1.21795 0
5.89049 1.21795 0
5.89049 0.59053 0
6.28319 0.59053 0
5.89049 1.21795 0
6.28319 1.21795 0
4.71239 1.21795 0
5.10509 1.21795 0
4.71239 1.84422 0
5.10509 1.84422 0
5.10509 1.21795 0
5.49779 1.21795 0
5.10509 1.84422 0
5.49779 1.84422 0
4.71239 1.84422 0
5.10509 1.84422 0
4.71239 2.47179 0
5.10509 2.47179 0
5.10509 1.84422 0
5.49779 1.84422 0
5.10509 2.47179 0
5.49779 2.47179 0
5.49779 1.21795 0
5.89049 1.21795 0
5.49779 1.84422 0
5.89049 1.84422 0
5.89049 1.21795 0
6.28319 1.21795 0
5.89049 1.84422 0
6.28319 1.84422 0
5.49779 1.84422 0
5.89049 1.84422 0
5.49779 2.47179 0
5.89049 2.47179 0
5.89049 1.84422 0
6.28319 1.84422 0
5.89049 2.47179 0
6.28319 2.47179 0
3.14159 2.47179 0
3.53429 2.47179 0
3.14159 3.099 0
3.53429 3.099 0
3.53429 2.47179 0
3.92699 2.47179 0
3.53429 3.099 0
3.92699 3.099 0
3.14159 3.099 0
3.53429 3.099 0
3.14159 3.72625 0
3.53429 3.72625 0
3.53429 3.099 0
3.92699 3.099 0
3.53429 3.72625 0
3.92699 3.72625 0
3.92699 2.47179 0
4.31969 2.47179 0
3.92699 3.099 0
4.31969 3.099 0
4.31969 2.47179 0
4.71239 2.47179 0
4.31969 3.099 0
4.71239 3.099 0
3.92699 3.099 0
4.31969 3.099 0
3.92699 3.72625 0
4.31969 3.72625 0
4.31969 3.099 0
4.71239 3.099 0
4.31969 3.72625 0
4.71239 3.72625 0
3.14159 3.72625 0
3.53429 3.72625 0
3.14159 4.35339 0
3.53429 4.35339 0
3.53429 3.72625 0
3.92699 3.72625 0
3.53429 4.35339 0
3.92699 4.35339 0
3.14159 4.35339 0
3.53429 4.35339 0
3.14159 4.98044 0
3.53429 4.98044 0
3.53429 4.35339 0
3.92699 4.35339 0
3.53429 4.98044 0
3.92699 4.98044 0
3.92699 3.72625 0
4.31969 3.72625 0
3.92699 4.35339 0
4.31969 4.35339 0
4.31969 3.72625 0
4.71239 3.72625 0
4.31969 4.35339 0
4.71239 4.35339 0
3.92699 4.35339 0
4.31969 4.35339 0
3.92699 4.98044 0
4.31969 4.98044 0
4.31969 4.35339 0
4.71239 4.35339 0
4.31969 4.98044 0
4.71239 4.98044 0
4.71239 2.47179 0
5.10509 2.47179 0
4.71239 3.099 0
5.10509 3.099 0
5.10509 2.47179 0
5.49779 2.47179 0
5.10509 3.099 0
5.49779 3.099 0
4.71239 3.099 0
5.10509 3.099 0
4.71239 3.72625 0
5.10509 3.72625 0
5.10509 3.099 0
5.49779 3.099 0
5.10509 3.72625 0
5.49779 3.72625 0
5.49779 2.47179 0
5.89049 2.47179 0
5.49779 3.099 0
5.89049 3.099 0
5.89049 2.47179 0
6.28319 2.47179 0
5.89049 3.099 0
6.28319 3.099 0
5.49779 3.099 0
5.89049 3.099 0
5.49779 3.72625 0
5.89049 3.72625 0
5.89049 3.099 0
6.28319 3.099 0
5.89049 3.72625 0
6.28319 3.72625 0
4.71239 3.72625 0
5.10509 3.72625 0
4.71239 4.35339 0
5.10509 4.35339 0
5.10509 3.72625 0
5.49779 3.72625 0
5.10509 4.35339 0
5.49779 4.35339 0
4.71239 4.35339 0
5.10509 4.35339 0
4.71239 4.98044 0
5.10509 4.98044 0
5.10509 4.35339 0
5.49779 4.35339 0
5.10509 4.98044 0
5.49779 4.98044 0
5.49779 3.72625 0
5.89049 3.72625 0
5.49779 4.35339 0
5.89049 4.35339 0
5.89049 3.72625 0
6.28319 3.72625 0
5.89049 4.35339 0
6.28319 4.35339 0
5.49779 4.35339 0
5.89049 4.35339 0
5.49779 4.98044 0
5.89049 4.98044 0
5.89049 4.35339 0
6.28319 4.35339 0
5.89049 4.98044 0
6.28319 4.98044 0
0 4.98044 0
0.392699 4.98044 0
0 5.60739 0
0.392699 5.60739 0
0.392699 4.98044 0
0.785398 4.98044 0
0.392699 5.60739 0
0.785398 5.60739 0
0 5.60739 0
0.392699 5.60739 0
0 6.23423 0
0.392699 6.23423 0
0.392699 5.60739 0
0.785398 5.60739 0
0.392699 6.23423 0
0.785398 6.23423 0
0.785398 4.98044 0
1.1781 4.98044 0
0.785398 5.60739 0
1.1781 5.60739 0
1.1781 4.98044 0
1.5708 4.98044 0
1.1781 5.60739 0
1.5708 5.60739 0
0.785398 5.60739 0
1.1781 5.60739 0
0.785398 6.23423 0
1.1781 6.23423 0
1.1781 5.60739 0
1.5708 5.60739 0
1.1781 6.23423 0
1.5708 6.23423 0
0 6.23423 0
0.392699 6.23423 0
0 6.86101 0
0.392699 6.86101 0
0.392699 6.23423 0
0.785398 6.23423 0
0.392699 6.86101 0
0.785398 6.86101 0
0 6.86101 0
0.392699 6.86101 0
0 7.48779 0
0.392699 7.48779 0
0.392699 6.86101 0
0.785398 6.86101 0
0.392699 7.48779 0
0.785398 7.48779 0
0.785398 6.23423 0
1.1781 6.23423 0
0.785398 6.86101 0
1.1781 6.86101 0
1.1781 6.23423 0
1.5708 6.23423 0
1.1781 6.86101 0
1.5708 6.86101 0
0.785398 6.86101 0
1.1781 6.86101 0
0.785398 7.48779 0
1.1781 7.48779 0
1.1781 6.86101 0
1.5708 6.86101 0
[...]
POINT_DATA 5120
VECTORS uf double
0 1 0
-1.84899e-13 1 0
0 1.00259 0
-1.80279e-13 1.00259 0
-1.84899e-13 1 0
9.91441e-15 1 0
-1.80279e-13 1.00259 0
1.77347e-14 1.00259 0
0 1.00259 0
1.63299e-13 1.00259 0
0 1.00392 0
1.52884e-13 1.00392 0
1.63299e-13 1.00259 0
-5.62953e-14 1.00259 0
1.52884e-13 1.00392 0
-5.43777e-14 1.00392 0
9.91441e-15 1 0
2.84846e-13 1 0
1.77347e-14 1.00259 0
2.77499e-13 1.00259 0
2.84846e-13 1 0
4.68071e-14 1 0
2.77499e-13 1.00259 0
3.82552e-14 1.00259 0
-5.62953e-14 1.00259 0
-2.8309e-13 1.00259 0
-5.43777e-14 1.00392 0
-2.65271e-13 1.00392 0
-2.8309e-13 1.00259 0
-3.70856e-14 1.00259 0
-2.65271e-13 1.00392 0
-4.18324e-14 1.00392 0
0 1.00392 0
-1.64636e-14 1.00392 0
0 1.00553 0
-1.99299e-14 1.00553 0
-1.64636e-14 1.00392 0
1.16787e-13 1.00392 0
-1.99299e-14 1.00553 0
1.27516e-13 1.00553 0
0 1.00553 0
4.48247e-14 1.00553 0
0 1.00703 0
4.50505e-14 1.00703 0
4.48247e-14 1.00553 0
-6.14658e-14 1.00553 0
4.50505e-14 1.00703 0
-5.75756e-14 1.00703 0
1.16787e-13 1.00392 0
-1.32203e-15 1.00392 0
1.27516e-13 1.00553 0
2.97464e-15 1.00553 0
-1.32203e-15 1.00392 0
-1.20471e-14 1.00392 0
2.97464e-15 1.00553 0
4.76478e-15 1.00553 0
-6.14658e-14 1.00553 0
5.2284e-14 1.00553 0
-5.75756e-14 1.00703 0
5.25429e-14 1.00703 0
5.2284e-14 1.00553 0
-4.13772e-14 1.00553 0
5.25429e-14 1.00703 0
-2.57321e-14 1.00703 0
4.68071e-14 1 0
-3.219e-14 1 0
3.82552e-14 1.00259 0
-2.08026e-14 1.00259 0
-3.219e-14 1 0
-9.46344e-15 1 0
-2.08026e-14 1.00259 0
4.62511e-15 1.00259 0
-3.70856e-14 1.00259 0
2.77182e-14 1.00259 0
-4.18324e-14 1.00392 0
2.49121e-14 1.00392 0
2.77182e-14 1.00259 0
-2.22971e-15 1.00259 0
2.49121e-14 1.00392 0
1.03658e-14 1.00392 0
-9.46344e-15 1 0
6.97099e-15 1 0
4.62511e-15 1.00259 0
-9.91637e-15 1.00259 0
6.97099e-15 1 0
-3.53793e-15 1 0
-9.91637e-15 1.00259 0
1.37013e-14 1.00259 0
-2.22971e-15 1.00259 0
7.00934e-15 1.00259 0
1.03658e-14 1.00392 0
2.06678e-15 1.00392 0
7.00934e-15 1.00259 0
-1.05534e-14 1.00259 0
2.06678e-15 1.00392 0
1.38376e-14 1.00392 0
-1.20471e-14 1.00392 0
4.98942e-14 1.00392 0
4.76478e-15 1.00553 0
4.75946e-14 1.00553 0
4.98942e-14 1.00392 0
1.01151e-15 1.00392 0
4.75946e-14 1.00553 0
3.33603e-15 1.00553 0
-4.13772e-14 1.00553 0
-2.37784e-14 1.00553 0
-2.57321e-14 1.00703 0
-2.4889e-14 1.00703 0
-2.37784e-14 1.00553 0
-6.25711e-15 1.00553 0
-2.4889e-14 1.00703 0
4.74169e-15 1.00703 0
1.01151e-15 1.00392 0
-3.37617e-15 1.00392 0
3.33603e-15 1.00553 0
6.27116e-15 1.00553 0
-3.37617e-15 1.00392 0
-5.56731e-15 1.00392 0
6.27116e-15 1.00553 0
9.3068e-15 1.00553 0
-6.25711e-15 1.00553 0
-3.98711e-15 1.00553 0
4.74169e-15 1.00703 0
3.06957e-15 1.00703 0
-3.98711e-15 1.00553 0
-5.16412e-15 1.00553 0
3.06957e-15 1.00703 0
-6.40431e-16 1.00703 0
0 1.00703 0
-1.05702e-13 1.00703 0
0 1.00852 0
-9.94296e-14 1.00852 0
-1.05702e-13 1.00703 0
-1.69606e-14 1.00703 0
-9.94296e-14 1.00852 0
-1.86306e-14 1.00852 0
0 1.00852 0
1.05073e-13 1.00852 0
0 1.00998 0
1.06777e-13 1.00998 0
1.05073e-13 1.00852 0
7.78071e-14 1.00852 0
1.06777e-13 1.00998 0
7.34321e-14 1.00998 0
-1.69606e-14 1.00703 0
-6.95601e-14 1.00703 0
-1.86306e-14 1.00852 0
-5.6126e-14 1.00852 0
-6.95601e-14 1.00703 0
5.02745e-14 1.00703 0
-5.6126e-14 1.00852 0
4.61668e-14 1.00852 0
7.78071e-14 1.00852 0
7.43581e-14 1.00852 0
7.34321e-14 1.00998 0
7.0292e-14 1.00998 0
7.43581e-14 1.00852 0
-6.87015e-14 1.00852 0
7.0292e-14 1.00998 0
-6.72723e-14 1.00998 0
0 1.00998 0
1.03507e-14 1.00998 0
0 1.01141 0
6.16005e-15 1.01141 0
1.03507e-14 1.00998 0
-2.11003e-13 1.00998 0
6.16005e-15 1.01141 0
-2.06999e-13 1.01141 0
0 1.01141 0
2.27041e-15 1.01141 0
0 1.01282 0
1.16618e-15 1.01282 0
2.27041e-15 1.01141 0
1.97261e-13 1.01141 0
1.16618e-15 1.01282 0
1.92817e-13 1.01282 0
-2.11003e-13 1.00998 0
-6.48334e-14 1.00998 0
-2.06999e-13 1.01141 0
-6.60456e-14 1.01141 0
-6.48334e-14 1.00998 0
1.54862e-13 1.00998 0
-6.60456e-14 1.01141 0
1.42476e-13 1.01141 0
1.97261e-13 1.01141 0
3.37457e-14 1.01141 0
1.92817e-13 1.01282 0
2.56946e-14 1.01282 0
3.37457e-14 1.01141 0
-1.6138e-13 1.01141 0
2.56946e-14 1.01282 0
-1.50934e-13 1.01282 0
5.02745e-14 1.00703 0
2.10598e-14 1.00703 0
4.61668e-14 1.00852 0
2.01161e-14 1.00852 0
2.10598e-14 1.00703 0
-5.65178e-15 1.00703 0
2.01161e-14 1.00852 0
3.17711e-15 1.00852 0
-6.87015e-14 1.00852 0
-3.28125e-14 1.00852 0
-6.72723e-14 1.00998 0
-3.62198e-14 1.00998 0
-3.28125e-14 1.00852 0
-1.56873e-14 1.00852 0
-3.62198e-14 1.00998 0
-8.58384e-15 1.00998 0
-5.65178e-15 1.00703 0
-1.27375e-15 1.00703 0
3.17711e-15 1.00852 0
-1.23379e-15 1.00852 0
-1.27375e-15 1.00703 0
-2.46202e-15 1.00703 0
-1.23379e-15 1.00852 0
7.27347e-15 1.00852 0
-1.56873e-14 1.00852 0
-2.2184e-15 1.00852 0
-8.58384e-15 1.00998 0
4.24952e-15 1.00998 0
-2.2184e-15 1.00852 0
2.44529e-14 1.00852 0
4.24952e-15 1.00998 0
2.53712e-14 1.00998 0
1.54862e-13 1.00998 0
-2.17776e-14 1.00998 0
1.42476e-13 1.01141 0
-2.18759e-14 1.01141 0
-2.17776e-14 1.00998 0
9.47162e-15 1.00998 0
-2.18759e-14 1.01141 0
1.76833e-14 1.01141 0
-1.6138e-13 1.01141 0
-4.73687e-14 1.01141 0
-1.50934e-13 1.01282 0
-4.30941e-14 1.01282 0
-4.73687e-14 1.01141 0
-5.73545e-15 1.01141 0
-4.30941e-14 1.01282 0
-5.70407e-15 1.01282 0
9.47162e-15 1.00998 0
-4.89348e-15 1.00998 0
1.76833e-14 1.01141 0
-4.88199e-15 1.01141 0
-4.89348e-15 1.00998 0
-2.5788e-14 1.00998 0
-4.88199e-15 1.01141 0
-1.67895e-14 1.01141 0
-5.73545e-15 1.01141 0
1.71462e-14 1.01141 0
-5.70407e-15 1.01282 0
1.58649e-14 1.01282 0
1.71462e-14 1.01141 0
-1.51134e-14 1.01141 0
1.58649e-14 1.01282 0
3.6501e-15 1.01282 0
-3.53793e-15 1 0
1.22879e-16 1 0
1.37013e-14 1.00259 0
9.25445e-15 1.00259 0
1.22879e-16 1 0
-4.35939e-15 1 0
9.25445e-15 1.00259 0
1.4919e-14 1.00259 0
-1.05534e-14 1.00259 0
1.55095e-15 1.00259 0
1.38376e-14 1.00392 0
3.61429e-15 1.00392 0
1.55095e-15 1.00259 0
-1.03639e-14 1.00259 0
3.61429e-15 1.00392 0
8.9208e-15 1.00392 0
-4.35939e-15 1 0
4.46745e-15 1 0
1.4919e-14 1.00259 0
3.15885e-15 1.00259 0
4.46745e-15 1 0
-7.44556e-16 1 0
3.15885e-15 1.00259 0
6.71876e-15 1.00259 0
-1.03639e-14 1.00259 0
-2.25547e-15 1.00259 0
8.9208e-15 1.00392 0
2.45348e-15 1.00392 0
-2.25547e-15 1.00259 0
-1.59091e-15 1.00259 0
2.45348e-15 1.00392 0
3.95181e-15 1.00392 0
-5.56731e-15 1.00392 0
3.41571e-15 1.00392 0
9.3068e-15 1.00553 0
4.4903e-15 1.00553 0
3.41571e-15 1.00392 0
-6.98257e-15 1.00392 0
4.4903e-15 1.00553 0
1.37224e-14 1.00553 0
-5.16412e-15 1.00553 0
-8.7661e-16 1.00553 0
-6.40431e-16 1.00703 0
8.31872e-15 1.00703 0
-8.7661e-16 1.00553 0
3.53421e-15 1.00553 0
8.31872e-15 1.00703 0
5.76556e-15 1.00703 0
-6.98257e-15 1.00392 0
1.13249e-14 1.00392 0
1.37224e-14 1.00553 0
-3.98494e-15 1.00553 0
1.13249e-14 1.00392 0
6.01135e-15 1.00392 0
-3.98494e-15 1.00553 0
2.9421e-15 1.00553 0
3.53421e-15 1.00553 0
-5.79386e-15 1.00553 0
5.76556e-15 1.00703 0
5.49855e-15 1.00703 0
-5.79386e-15 1.00553 0
4.30594e-15 1.00553 0
5.49855e-15 1.00703 0
8.80074e-15 1.00703 0
-7.44556e-16 1 0
-4.22585e-16 1 0
6.71876e-15 1.00259 0
4.59982e-15 1.00259 0
-4.22585e-16 1 0
1.05512e-16 1 0
4.59982e-15 1.00259 0
5.3281e-15 1.00259 0
-1.59091e-15 1.00259 0
6.09169e-15 1.00259 0
3.95181e-15 1.00392 0
-2.75647e-15 1.00392 0
6.09169e-15 1.00259 0
-2.83131e-15 1.00259 0
-2.75647e-15 1.00392 0
1.49895e-14 1.00392 0
1.05512e-16 1 0
-7.15445e-16 1 0
5.3281e-15 1.00259 0
1.00075e-14 1.00259 0
-7.15445e-16 1 0
7.27082e-15 1 0
1.00075e-14 1.00259 0
-9.843e-16 1.00259 0
-2.83131e-15 1.00259 0
5.81477e-15 1.00259 0
1.49895e-14 1.00392 0
8.6955e-15 1.00392 0
5.81477e-15 1.00259 0
2.92799e-15 1.00259 0
8.6955e-15 1.00392 0
4.77635e-15 1.00392 0
6.01135e-15 1.00392 0
-8.36494e-15 1.00392 0
2.9421e-15 1.00553 0
8.07694e-15 1.00553 0
-8.36494e-15 1.00392 0
1.76083e-15 1.00392 0
8.07694e-15 1.00553 0
5.34045e-15 1.00553 0
4.30594e-15 1.00553 0
4.38906e-15 1.00553 0
8.80074e-15 1.00703 0
2.68602e-15 1.00703 0
4.38906e-15 1.00553 0
-7.39325e-15 1.00553 0
2.68602e-15 1.00703 0
9.8398e-16 1.00703 0
1.76083e-15 1.00392 0
-8.68248e-15 1.00392 0
5.34045e-15 1.00553 0
1.04548e-14 1.00553 0
-8.68248e-15 1.00392 0
1.57912e-15 1.00392 0
1.04548e-14 1.00553 0
-3.81497e-15 1.00553 0
-7.39325e-15 1.00553 0
-6.95764e-15 1.00553 0
9.8398e-16 1.00703 0
7.37618e-15 1.00703 0
-6.95764e-15 1.00553 0
-2.8418e-15 1.00553 0
7.37618e-15 1.00703 0
1.09879e-15 1.00703 0
-2.46202e-15 1.00703 0
-2.02593e-15 1.00703 0
7.27347e-15 1.00852 0
3.05316e-15 1.00852 0
-2.02593e-15 1.00703 0
-7.09801e-15 1.00703 0
3.05316e-15 1.00852 0
-3.85155e-15 1.00852 0
2.44529e-14 1.00852 0
-1.4411e-14 1.00852 0
2.53712e-14 1.00998 0
-5.28714e-15 1.00998 0
-1.4411e-14 1.00852 0
7.22582e-15 1.00852 0
-5.28714e-15 1.00998 0
-3.34704e-15 1.00998 0
-7.09801e-15 1.00703 0
8.85083e-15 1.00703 0
-3.85155e-15 1.00852 0
-1.59106e-15 1.00852 0
8.85083e-15 1.00703 0
-5.59821e-15 1.00703 0
-1.59106e-15 1.00852 0
5.88021e-15 1.00852 0
7.22582e-15 1.00852 0
3.78295e-15 1.00852 0
-3.34704e-15 1.00998 0
2.08354e-15 1.00998 0
3.78295e-15 1.00852 0
-6.10447e-16 1.00852 0
2.08354e-15 1.00998 0
-5.93229e-16 1.00998 0
-2.5788e-14 1.00998 0
1.76635e-14 1.00998 0
-1.67895e-14 1.01141 0
1.51352e-14 1.01141 0
1.76635e-14 1.00998 0
-5.41668e-15 1.00998 0
1.51352e-14 1.01141 0
9.12905e-16 1.01141 0
-1.51134e-14 1.01141 0
-8.96676e-15 1.01141 0
3.6501e-15 1.01282 0
-7.46077e-15 1.01282 0
-8.96676e-15 1.01141 0
2.56581e-14 1.01141 0
-7.46077e-15 1.01282 0
2.89315e-14 1.01282 0
-5.41668e-15 1.00998 0
-5.72156e-15 1.00998 0
9.12905e-16 1.01141 0
3.99683e-15 1.01141 0
-5.72156e-15 1.00998 0
-1.16039e-15 1.00998 0
3.99683e-15 1.01141 0
1.13083e-15 1.01141 0
2.56581e-14 1.01141 0
5.71279e-15 1.01141 0
2.89315e-14 1.01282 0
-1.3661e-16 1.01282 0
5.71279e-15 1.01141 0
-5.13471e-15 1.01141 0
-1.3661e-16 1.01282 0
3.34611e-15 1.01282 0
-5.59821e-15 1.00703 0
3.45039e-15 1.00703 0
5.88021e-15 1.00852 0
-8.89177e-16 1.00852 0
3.45039e-15 1.00703 0
2.66235e-15 1.00703 0
-8.89177e-16 1.00852 0
2.99564e-15 1.00852 0
-6.10447e-16 1.00852 0
-2.70091e-15 1.00852 0
-5.93229e-16 1.00998 0
-5.0189e-16 1.00998 0
-2.70091e-15 1.00852 0
7.93569e-15 1.00852 0
-5.0189e-16 1.00998 0
-7.80316e-15 1.00998 0
2.66235e-15 1.00703 0
3.67948e-15 1.00703 0
2.99564e-15 1.00852 0
3.4015e-15 1.00852 0
3.67948e-15 1.00703 0
8.28576e-15 1.00703 0
3.4015e-15 1.00852 0
-2.27278e-15 1.00852 0
7.93569e-15 1.00852 0
-6.61946e-15 1.00852 0
-7.80316e-15 1.00998 0
7.29061e-15 1.00998 0
-6.61946e-15 1.00852 0
8.46758e-16 1.00852 0
7.29061e-15 1.00998 0
3.61087e-15 1.00998 0
-1.16039e-15 1.00998 0
4.13126e-15 1.00998 0
1.13083e-15 1.01141 0
-2.81725e-15 1.01141 0
4.13126e-15 1.00998 0
-9.75615e-15 1.00998 0
-2.81725e-15 1.01141 0
5.84068e-15 1.01141 0
-5.13471e-15 1.01141 0
-3.22604e-16 1.01141 0
3.34611e-15 1.01282 0
3.83167e-16 1.01282 0
-3.22604e-16 1.01141 0
-2.17137e-15 1.01141 0
3.83167e-16 1.01282 0
1.54104e-15 1.01282 0
-9.75615e-15 1.00998 0
-3.93684e-15 1.00998 0
5.84068e-15 1.01141 0
2.67162e-15 1.01141 0
-3.93684e-15 1.00998 0
-1.97807e-15 1.00998 0
2.67162e-15 1.01141 0
7.23341e-16 1.01141 0
-2.17137e-15 1.01141 0
-6.08903e-15 1.01141 0
1.54104e-15 1.01282 0
-2.95184e-15 1.01282 0
-6.08903e-15 1.01141 0
5.51936e-15 1.01141 0
-2.95184e-15 1.01282 0
-4.86208e-15 1.01282 0
0 1.01282 0
-6.16958e-14 1.01282 0
0 1.01421 0
-5.26436e-14 1.01421 0
-6.16958e-14 1.01282 0
-1.3606e-13 1.01282 0
-5.26436e-14 1.01421 0
-1.22784e-13 1.01421 0
0 1.01421 0
5.78688e-14 1.01421 0
0 1.0156 0
4.71125e-14 1.0156 0
5.78688e-14 1.01421 0
1.16134e-13 1.01421 0
4.71125e-14 1.0156 0
1.22615e-13 1.0156 0
-1.3606e-13 1.01282 0
3.96192e-14 1.01282 0
-1.22784e-13 1.01421 0
3.60837e-14 1.01421 0
3.96192e-14 1.01282 0
9.96796e-14 1.01282 0
3.60837e-14 1.01421 0
1.00684e-13 1.01421 0
1.16134e-13 1.01421 0
-1.32658e-13 1.01421 0
1.22615e-13 1.0156 0
-1.29424e-13 1.0156 0
-1.32658e-13 1.01421 0
-6.23477e-14 1.01421 0
-1.29424e-13 1.0156 0
-6.29849e-14 1.0156 0
0 1.0156 0
-5.58284e-14 1.0156 0
0 1.01699 0
-5.05535e-14 1.01699 0
-5.58284e-14 1.0156 0
-9.05831e-14 1.0156 0
-5.05535e-14 1.01699 0
-8.75387e-14 1.01699 0
0 1.01699 0
3.82701e-14 1.01699 0
0 1.0184 0
3.82857e-14 1.0184 0
3.82701e-14 1.01699 0
5.73844e-14 1.01699 0
3.82857e-14 1.0184 0
5.9129e-14 1.0184 0
-9.05831e-14 1.0156 0
8.67115e-14 1.0156 0
-8.75387e-14 1.01699 0
8.80277e-14 1.01699 0
8.67115e-14 1.0156 0
4.06265e-14 1.0156 0
8.80277e-14 1.01699 0
4.63714e-14 1.01699 0
5.73844e-14 1.01699 0
-2.93925e-14 1.01699 0
5.9129e-14 1.0184 0
-2.23964e-14 1.0184 0
-2.93925e-14 1.01699 0
-6.33166e-15 1.01699 0
-2.23964e-14 1.0184 0
-9.25404e-15 1.0184 0
9.96796e-14 1.01282 0
6.59024e-14 1.01282 0
1.00684e-13 1.01421 0
7.39016e-14 1.01421 0
6.59024e-14 1.01282 0
3.16728e-15 1.01282 0
7.39016e-14 1.01421 0
6.43593e-15 1.01421 0
-6.23477e-14 1.01421 0
-1.3104e-14 1.01421 0
-6.29849e-14 1.0156 0
-1.99401e-15 1.0156 0
-1.3104e-14 1.01421 0
-5.47827e-15 1.01421 0
-1.99401e-15 1.0156 0
4.13376e-15 1.0156 0
3.16728e-15 1.01282 0
-1.15077e-14 1.01282 0
6.43593e-15 1.01421 0
-1.16842e-14 1.01421 0
-1.15077e-14 1.01282 0
4.34174e-15 1.01282 0
-1.16842e-14 1.01421 0
6.5092e-15 1.01421 0
-5.47827e-15 1.01421 0
-2.05933e-16 1.01421 0
4.13376e-15 1.0156 0
1.34048e-14 1.0156 0
-2.05933e-16 1.01421 0
-1.34774e-15 1.01421 0
1.34048e-14 1.0156 0
-1.77994e-16 1.0156 0
4.06265e-14 1.0156 0
-1.19423e-15 1.0156 0
4.63714e-14 1.01699 0
1.96043e-15 1.01699 0
-1.19423e-15 1.0156 0
-4.08497e-15 1.0156 0
1.96043e-15 1.01699 0
9.07538e-15 1.01699 0
-6.33166e-15 1.01699 0
1.39152e-15 1.01699 0
-9.25404e-15 1.0184 0
-1.76484e-15 1.0184 0
1.39152e-15 1.01699 0
-3.0587e-15 1.01699 0
-1.76484e-15 1.0184 0
6.84606e-16 1.0184 0
-4.08497e-15 1.0156 0
-6.42054e-15 1.0156 0
9.07538e-15 1.01699 0
7.5087e-15 1.01699 0
-6.42054e-15 1.0156 0
-6.58729e-15 1.0156 0
7.5087e-15 1.01699 0
5.44164e-15 1.01699 0
-3.0587e-15 1.01699 0
-1.29435e-15 1.01699 0
6.84606e-16 1.0184 0
1.65275e-15 1.0184 0
-1.29435e-15 1.01699 0
-9.81286e-16 1.01699 0
1.65275e-15 1.0184 0
1.81719e-15 1.0184 0
0 1.0184 0
3.15077e-14 1.0184 0
0 1.01981 0
2.7655e-14 1.01981 0
3.15077e-14 1.0184 0
-3.45924e-14 1.0184 0
2.7655e-14 1.01981 0
-3.47445e-14 1.01981 0
0 1.01981 0
-3.91591e-14 1.01981 0
0 1.02118 0
-3.77804e-14 1.02118 0
-3.91591e-14 1.01981 0
3.63082e-14 1.01981 0
-3.77804e-14 1.02118 0
3.54122e-14 1.02118 0
-3.45924e-14 1.0184 0
2.32722e-15 1.0184 0
-3.47445e-14 1.01981 0
4.95648e-15 1.01981 0
2.32722e-15 1.0184 0
-1.47856e-14 1.0184 0
4.95648e-15 1.01981 0
-1.03057e-14 1.01981 0
3.63082e-14 1.01981 0
-3.43442e-15 1.01981 0
3.54122e-14 1.02118 0
-4.20716e-16 1.02118 0
-3.43442e-15 1.01981 0
-2.21676e-15 1.01981 0
-4.20716e-16 1.02118 0
-1.61471e-15 1.02118 0
0 1.02118 0
5.8221e-15 1.02118 0
0 1.02239 0
3.04343e-15 1.02239 0
5.8221e-15 1.02118 0
-3.55417e-14 1.02118 0
3.04343e-15 1.02239 0
-3.4501e-14 1.02239 0
0 1.02239 0
2.96512e-15 1.02239 0
0 1.02294 0
-1.55749e-15 1.02294 0
2.96512e-15 1.02239 0
-5.28727e-15 1.02239 0
-1.55749e-15 1.02294 0
7.69326e-15 1.02294 0
-3.55417e-14 1.02118 0
2.63934e-15 1.02118 0
-3.4501e-14 1.02239 0
-7.18946e-16 1.02239 0
2.63934e-15 1.02118 0
2.91969e-15 1.02118 0
-7.18946e-16 1.02239 0
1.22272e-15 1.02239 0
-5.28727e-15 1.02239 0
-8.29711e-15 1.02239 0
7.69326e-15 1.02294 0
-1.67934e-14 1.02294 0
-8.29711e-15 1.02239 0
-9.3609e-16 1.02239 0
-1.67934e-14 1.02294 0
1.84649e-14 1.02294 0
-1.47856e-14 1.0184 0
-1.40984e-14 1.0184 0
-1.03057e-14 1.01981 0
-8.38609e-15 1.01981 0
-1.40984e-14 1.0184 0
1.50132e-15 1.0184 0
-8.38609e-15 1.01981 0
9.85504e-16 1.01981 0
-2.21676e-15 1.01981 0
8.06982e-15 1.01981 0
-1.61471e-15 1.02118 0
8.4691e-15 1.02118 0
8.06982e-15 1.01981 0
-4.15865e-15 1.01981 0
8.4691e-15 1.02118 0
1.79379e-15 1.02118 0
1.50132e-15 1.0184 0
1.29611e-15 1.0184 0
9.85504e-16 1.01981 0
8.92706e-16 1.01981 0
1.29611e-15 1.0184 0
-4.07198e-15 1.0184 0
8.92706e-16 1.01981 0
2.36347e-15 1.01981 0
-4.15865e-15 1.01981 0
-7.2614e-15 1.01981 0
1.79379e-15 1.02118 0
1.44687e-15 1.02118 0
-7.2614e-15 1.01981 0
-1.51733e-15 1.01981 0
1.44687e-15 1.02118 0
3.35543e-16 1.02118 0
2.91969e-15 1.02118 0
-1.20344e-14 1.02118 0
1.22272e-15 1.02239 0
-7.88529e-15 1.02239 0
-1.20344e-14 1.02118 0
-1.79122e-15 1.02118 0
-7.88529e-15 1.02239 0
1.27188e-15 1.02239 0
-9.3609e-16 1.02239 0
-4.37486e-15 1.02239 0
1.84649e-14 1.02294 0
1.5016e-15 1.02294 0
-4.37486e-15 1.02239 0
-1.17851e-15 1.02239 0
1.5016e-15 1.02294 0
-1.08142e-15 1.02294 0
-1.79122e-15 1.02118 0
-1.0538e-15 1.02118 0
1.27188e-15 1.02239 0
1.39713e-15 1.02239 0
-1.0538e-15 1.02118 0
1.2314e-15 1.02118 0
1.39713e-15 1.02239 0
4.58693e-16 1.02239 0
-1.17851e-15 1.02239 0
-9.62637e-16 1.02239 0
-1.08142e-15 1.02294 0
8.93435e-15 1.02294 0
-9.62637e-16 1.02239 0
7.45217e-16 1.02239 0
8.93435e-15 1.02294 0
-1.94776e-14 1.02294 0
4.34174e-15 1.01282 0
7.96363e-15 1.01282 0
6.5092e-15 1.01421 0
8.41555e-15 1.01421 0
7.96363e-15 1.01282 0
-2.1512e-14 1.01282 0
8.41555e-15 1.01421 0
-2.26197e-14 1.01421 0
-1.34774e-15 1.01421 0
1.16176e-15 1.01421 0
-1.77994e-16 1.0156 0
3.46468e-15 1.0156 0
1.16176e-15 1.01421 0
1.36248e-15 1.01421 0
3.46468e-15 1.0156 0
6.57746e-15 1.0156 0
-2.1512e-14 1.01282 0
-1.9977e-15 1.01282 0
-2.26197e-14 1.01421 0
-1.10242e-15 1.01421 0
-1.9977e-15 1.01282 0
1.26496e-15 1.01282 0
-1.10242e-15 1.01421 0
2.96291e-15 1.01421 0
1.36248e-15 1.01421 0
3.49331e-15 1.01421 0
6.57746e-15 1.0156 0
1.36586e-15 1.0156 0
3.49331e-15 1.01421 0
2.09228e-15 1.01421 0
1.36586e-15 1.0156 0
2.9214e-15 1.0156 0
-6.58729e-15 1.0156 0
-6.20415e-15 1.0156 0
5.44164e-15 1.01699 0
4.47841e-15 1.01699 0
-6.20415e-15 1.0156 0
-7.84105e-15 1.0156 0
4.47841e-15 1.01699 0
5.82863e-15 1.01699 0
-9.81286e-16 1.01699 0
4.15892e-16 1.01699 0
1.81719e-15 1.0184 0
-2.11798e-16 1.0184 0
4.15892e-16 1.01699 0
-4.41467e-16 1.01699 0
-2.11798e-16 1.0184 0
-1.06417e-15 1.0184 0
-7.84105e-15 1.0156 0
-1.16187e-15 1.0156 0
5.82863e-15 1.01699 0
3.87549e-15 1.01699 0
-1.16187e-15 1.0156 0
-3.90948e-15 1.0156 0
3.87549e-15 1.01699 0
4.92858e-15 1.01699 0
-4.41467e-16 1.01699 0
-6.08476e-15 1.01699 0
-1.06417e-15 1.0184 0
5.19061e-15 1.0184 0
-6.08476e-15 1.01699 0
9.16217e-16 1.01699 0
5.19061e-15 1.0184 0
1.17623e-15 1.0184 0
1.26496e-15 1.01282 0
-2.06004e-15 1.01282 0
2.96291e-15 1.01421 0
6.71747e-15 1.01421 0
-2.06004e-15 1.01282 0
2.37341e-15 1.01282 0
6.71747e-15 1.01421 0
5.4736e-16 1.01421 0
2.09228e-15 1.01421 0
-6.45905e-15 1.01421 0
2.9214e-15 1.0156 0
7.14325e-15 1.0156 0
-6.45905e-15 1.01421 0
2.6463e-15 1.01421 0
7.14325e-15 1.0156 0
9.27827e-16 1.0156 0
2.37341e-15 1.01282 0
-4.53863e-15 1.01282 0
5.4736e-16 1.01421 0
5.23354e-15 1.01421 0
-4.53863e-15 1.01282 0
5.12937e-15 1.01282 0
5.23354e-15 1.01421 0
-4.07929e-15 1.01421 0
2.6463e-15 1.01421 0
2.2404e-16 1.01421 0
9.27827e-16 1.0156 0
1.79358e-17 1.0156 0
2.2404e-16 1.01421 0
-3.12433e-15 1.01421 0
1.79358e-17 1.0156 0
6.02142e-15 1.0156 0
-3.90948e-15 1.0156 0
-4.56937e-15 1.0156 0
4.92858e-15 1.01699 0
2.22481e-15 1.01699 0
-4.56937e-15 1.0156 0
-9.48373e-16 1.0156 0
2.22481e-15 1.01699 0
1.56195e-15 1.01699 0
9.16217e-16 1.01699 0
-9.66995e-17 1.01699 0
1.17623e-15 1.0184 0
2.59387e-15 1.0184 0
-9.66995e-17 1.01699 0
-3.66795e-15 1.01699 0
2.59387e-15 1.0184 0
2.01022e-15 1.0184 0
-9.48373e-16 1.0156 0
1.50154e-15 1.0156 0
1.56195e-15 1.01699 0
2.10345e-15 1.01699 0
1.50154e-15 1.0156 0
-1.48326e-15 1.0156 0
2.10345e-15 1.01699 0
5.80322e-15 1.01699 0
-3.66795e-15 1.01699 0
-8.73574e-16 1.01699 0
2.01022e-15 1.0184 0
-3.27117e-15 1.0184 0
-8.73574e-16 1.01699 0
5.10715e-15 1.01699 0
-3.27117e-15 1.0184 0
-2.4524e-15 1.0184 0
-4.07198e-15 1.0184 0
-5.69581e-15 1.0184 0
2.36347e-15 1.01981 0
4.81071e-16 1.01981 0
-5.69581e-15 1.0184 0
-4.20812e-16 1.0184 0
4.81071e-16 1.01981 0
3.65415e-16 1.01981 0
-1.51733e-15 1.01981 0
1.38411e-15 1.01981 0
3.35543e-16 1.02118 0
-2.35877e-16 1.02118 0
1.38411e-15 1.01981 0
-1.60645e-15 1.01981 0
-2.35877e-16 1.02118 0
7.26361e-16 1.02118 0
-4.20812e-16 1.0184 0
1.98312e-15 1.0184 0
3.65415e-16 1.01981 0
2.00926e-15 1.01981 0
1.98312e-15 1.0184 0
-3.2097e-15 1.0184 0
2.00926e-15 1.01981 0
2.23153e-15 1.01981 0
-1.60645e-15 1.01981 0