# vtk DataFile Version 3.0
#This file was generated by the deal.II library on 2018/10/11 at 23:52:50
ASCII
DATASET UNSTRUCTURED_GRID

POINTS 5120 double
0 0 0
0.392699 0 0
0 0.619015 0
0.392699 0.619015 0
0.392699 0 0
0.785398 0 0
0.392699 0.619015 0
0.785398 0.619015 0
0 0.619015 0
0.392699 0.619015 0
0 1.24445 0
0.392699 1.24445 0
0.392699 0.619015 0
0.785398 0.619015 0
0.392699 1.24445 0
0.785398 1.24445 0
0.785398 0 0
1.1781 0 0
0.785398 0.619015 0
1.1781 0.619015 0
1.1781 0 0
1.5708 0 0
1.1781 0.619015 0
1.5708 0.619015 0
0.785398 0.619015 0
1.1781 0.619015 0
0.785398 1.24445 0
1.1781 1.24445 0
1.1781 0.619015 0
1.5708 0.619015 0
1.1781 1.24445 0
1.5708 1.24445 0
0 1.24445 0
0.392699 1.24445 0
0 1.86961 0
0.392699 1.86961 0
0.392699 1.24445 0
0.785398 1.24445 0
0.392699 1.86961 0
0.785398 1.86961 0
0 1.86961 0
0.392699 1.86961 0
0 2.49497 0
0.392699 2.49497 0
0.392699 1.86961 0
0.785398 1.86961 0
0.392699 2.49497 0
0.785398 2.49497 0
0.785398 1.24445 0
1.1781 1.24445 0
0.785398 1.86961 0
1.1781 1.86961 0
1.1781 1.24445 0
1.5708 1.24445 0
1.1781 1.86961 0
1.5708 1.86961 0
0.785398 1.86961 0
1.1781 1.86961 0
0.785398 2.49497 0
1.1781 2.49497 0
1.1781 1.86961 0
1.5708 1.86961 0
1.1781 2.49497 0
1.5708 2.49497 0
1.5708 0 0
1.9635 0 0
1.5708 0.619015 0
1.9635 0.619015 0
1.9635 0 0
2.35619 0 0
1.9635 0.619015 0
2.35619 0.619015 0
1.5708 0.619015 0
1.9635 0.619015 0
1.5708 1.24445 0
1.9635 1.24445 0
1.9635 0.619015 0
2.35619 0.619015 0
1.9635 1.24445 0
2.35619 1.24445 0
2.35619 0 0
2.74889 0 0
2.35619 0.619015 0
2.74889 0.619015 0
2.74889 0 0
3.14159 0 0
2.74889 0.619015 0
3.14159 0.619015 0
2.35619 0.619015 0
2.74889 0.619015 0
2.35619 1.24445 0
2.74889 1.24445 0
2.74889 0.619015 0
3.14159 0.619015 0
2.74889 1.24445 0
3.14159 1.24445 0
1.5708 1.24445 0
1.9635 1.24445 0
1.5708 1.86961 0
1.9635 1.86961 0
1.9635 1.24445 0
2.35619 1.24445 0
1.9635 1.86961 0
2.35619 1.86961 0
1.5708 1.86961 0
1.9635 1.86961 0
1.5708 2.49497 0
1.9635 2.49497 0
1.9635 1.86961 0
2.35619 1.86961 0
1.9635 2.49497 0
2.35619 2.49497 0
2.35619 1.24445 0
2.74889 1.24445 0
2.35619 1.86961 0
2.74889 1.86961 0
2.74889 1.24445 0
3.14159 1.24445 0
2.74889 1.86961 0
3.14159 1.86961 0
2.35619 1.86961 0
2.74889 1.86961 0
2.35619 2.49497 0
2.74889 2.49497 0
2.74889 1.86961 0
3.14159 1.86961 0
2.74889 2.49497 0
3.14159 2.49497 0
0 2.49497 0
0.392699 2.49497 0
0 3.12027 0
0.392699 3.12027 0
0.392699 2.49497 0
0.785398 2.49497 0
0.392699 3.12027 0
0.785398 3.12027 0
0 3.12027 0
0.392699 3.12027 0
0 3.74558 0
0.392699 3.74558 0
0.392699 3.12027 0
0.785398 3.12027 0
0.392699 3.74558 0
0.785398 3.74558 0
0.785398 2.49497 0
1.1781 2.49497 0
0.785398 3.12027 0
1.1781 3.12027 0
1.1781 2.49497 0
1.5708 2.49497 0
1.1781 3.12027 0
1.5708 3.12027 0
0.785398 3.12027 0
1.1781 3.12027 0
0.785398 3.74558 0
1.1781 3.74558 0
1.1781 3.12027 0
1.5708 3.12027 0
1.1781 3.74558 0
1.5708 3.74558 0
0 3.74558 0
0.392699 3.74558 0
0 4.37087 0
0.392699 4.37087 0
0.392699 3.74558 0
0.785398 3.74558 0
0.392699 4.37087 0
0.785398 4.37087 0
0 4.37087 0
0.392699 4.37087 0
0 4.99614 0
0.392699 4.99614 0
0.392699 4.37087 0
0.785398 4.37087 0
0.392699 4.99614 0
0.785398 4.99614 0
0.785398 3.74558 0
1.1781 3.74558 0
0.785398 4.37087 0
1.1781 4.37087 0
1.1781 3.74558 0
1.5708 3.74558 0
1.1781 4.37087 0
1.5708 4.37087 0
0.785398 4.37087 0
1.1781 4.37087 0
0.785398 4.99614 0
1.1781 4.99614 0
1.1781 4.37087 0
1.5708 4.37087 0
1.1781 4.99614 0
1.5708 4.99614 0
1.5708 2.49497 0
1.9635 2.49497 0
1.5708 3.12027 0
1.9635 3.12027 0
1.9635 2.49497 0
2.35619 2.49497 0
1.9635 3.12027 0
2.35619 3.12027 0
1.5708 3.12027 0
1.9635 3.12027 0
1.5708 3.74558 0
1.9635 3.74558 0
1.9635 3.12027 0
2.35619 3.12027 0
1.9635 3.74558 0
2.35619 3.74558 0
2.35619 2.49497 0
2.74889 2.49497 0
2.35619 3.12027 0
2.74889 3.12027 0
2.74889 2.49497 0
3.14159 2.49497 0
2.74889 3.12027 0
3.14159 3.12027 0
2.35619 3.12027 0
2.74889 3.12027 0
2.35619 3.74558 0
2.74889 3.74558 0
2.74889 3.12027 0
3.14159 3.12027 0
2.74889 3.74558 0
3.14159 3.74558 0
1.5708 3.74558 0
1.9635 3.74558 0
1.5708 4.37087 0
1.9635 4.37087 0
1.9635 3.74558 0
2.35619 3.74558 0
1.9635 4.37087 0
2.35619 4.37087 0
1.5708 4.37087 0
1.9635 4.37087 0
1.5708 4.99614 0
1.9635 4.99614 0
1.9635 4.37087 0
2.35619 4.37087 0
1.9635 4.99614 0
2.35619 4.99614 0
2.35619 3.74558 0
2.74889 3.74558 0
2.35619 4.37087 0
2.74889 4.37087 0
2.74889 3.74558 0
3.14159 3.74558 0
2.74889 4.37087 0
3.14159 4.37087 0
2.35619 4.37087 0
2.74889 4.37087 0
2.35619 4.99614 0
2.74889 4.99614 0
2.74889 4.37087 0
3.14159 4.37087 0
2.74889 4.99614 0
3.14159 4.99614 0
3.14159 0 0
3.53429 0 0
3.14159 0.619015 0
3.53429 0.619015 0
3.53429 0 0
3.92699 0 0
3.53429 0.619015 0
3.92699 0.619015 0
3.14159 0.619015 0
3.53429 0.619015 0
3.14159 1.24445 0
3.53429 1.24445 0
3.53429 0.619015 0
3.92699 0.619015 0
3.53429 1.24445 0
3.92699 1.24445 0
3.92699 0 0
4.31969 0 0
3.92699 0.619015 0
4.31969 0.619015 0
4.31969 0 0
4.71239 0 0
4.31969 0.619015 0
4.71239 0.619015 0
3.92699 0.619015 0
4.31969 0.619015 0
3.92699 1.24445 0
4.31969 1.24445 0
4.31969 0.619015 0
4.71239 0.619015 0
4.31969 1.24445 0
4.71239 1.24445 0
3.14159 1.24445 0
3.53429 1.24445 0
3.14159 1.86961 0
3.53429 1.86961 0
3.53429 1.24445 0
3.92699 1.24445 0
3.53429 1.86961 0
3.92699 1.86961 0
3.14159 1.86961 0
3.53429 1.86961 0
3.14159 2.49497 0
3.53429 2.49497 0
3.53429 1.86961 0
3.92699 1.86961 0
3.53429 2.49497 0
3.92699 2.49497 0
3.92699 1.24445 0
4.31969 1.24445 0
3.92699 1.86961 0
4.31969 1.86961 0
4.31969 1.24445 0
4.71239 1.24445 0
4.31969 1.86961 0
4.71239 1.86961 0
3.92699 1.86961 0
4.31969 1.86961 0
3.92699 2.49497 0
4.31969 2.49497 0
4.31969 1.86961 0
4.71239 1.86961 0
4.31969 2.49497 0
4.71239 2.49497 0
4.71239 0 0
5.10509 0 0
4.71239 0.619015 0
5.10509 0.619015 0
5.10509 0 0
5.49779 0 0
5.10509 0.619015 0
5.49779 0.619015 0
4.71239 0.619015 0
5.10509 0.619015 0
4.71239 1.24445 0
5.10509 1.24445 0
5.10509 0.619015 0
5.49779 0.619015 0
5.10509 1.24445 0
5.49779 1.24445 0
5.49779 0 0
5.89049 0 0
5.49779 0.619015 0
5.89049 0.619015 0
5.89049 0 0
6.28319 0 0
5.89049 0.619015 0
6.28319 0.619015 0
5.49779 0.619015 0
5.89049 0.619015 0
5.49779 1.24445 0
5.89049 1.24445 0
5.89049 0.619015 0
6.28319 0.619015 0
5.89049 1.24445 0
6.28319 1.24445 0
4.71239 1.24445 0
5.10509 1.24445 0
4.71239 1.86961 0
5.10509 1.86961 0
5.10509 1.24445 0
5.49779 1.24445 0
5.10509 1.86961 0
5.49779 1.86961 0
4.71239 1.86961 0
5.10509 1.86961 0
4.71239 2.49497 0
5.10509 2.49497 0
5.10509 1.86961 0
5.49779 1.86961 0
5.10509 2.49497 0
5.49779 2.49497 0
5.49779 1.24445 0
5.89049 1.24445 0
5.49779 1.86961 0
5.89049 1.86961 0
5.89049 1.24445 0
6.28319 1.24445 0
5.89049 1.86961 0
6.28319 1.86961 0
5.49779 1.86961 0
5.89049 1.86961 0
5.49779 2.49497 0
5.89049 2.49497 0
5.89049 1.86961 0
6.28319 1.86961 0
5.89049 2.49497 0
6.28319 2.49497 0
3.14159 2.49497 0
3.53429 2.49497 0
3.14159 3.12027 0
3.53429 3.12027 0
3.53429 2.49497 0
3.92699 2.49497 0
3.53429 3.12027 0
3.92699 3.12027 0
3.14159 3.12027 0
3.53429 3.12027 0
3.14159 3.74558 0
3.53429 3.74558 0
3.53429 3.12027 0
3.92699 3.12027 0
3.53429 3.74558 0
3.92699 3.74558 0
3.92699 2.49497 0
4.31969 2.49497 0
3.92699 3.12027 0
4.31969 3.12027 0
4.31969 2.49497 0
4.71239 2.49497 0
4.31969 3.12027 0
4.71239 3.12027 0
3.92699 3.12027 0
4.31969 3.12027 0
3.92699 3.74558 0
4.31969 3.74558 0
4.31969 3.12027 0
4.71239 3.12027 0
4.31969 3.74558 0
4.71239 3.74558 0
3.14159 3.74558 0
3.53429 3.74558 0
3.14159 4.37087 0
3.53429 4.37087 0
3.53429 3.74558 0
3.92699 3.74558 0
3.53429 4.37087 0
3.92699 4.37087 0
3.14159 4.37087 0
3.53429 4.37087 0
3.14159 4.99614 0
3.53429 4.99614 0
3.53429 4.37087 0
3.92699 4.37087 0
3.53429 4.99614 0
3.92699 4.99614 0
3.92699 3.74558 0
4.31969 3.74558 0
3.92699 4.37087 0
4.31969 4.37087 0
4.31969 3.74558 0
4.71239 3.74558 0
4.31969 4.37087 0
4.71239 4.37087 0
3.92699 4.37087 0
4.31969 4.37087 0
3.92699 4.99614 0
4.31969 4.99614 0
4.31969 4.37087 0
4.71239 4.37087 0
4.31969 4.99614 0
4.71239 4.99614 0
4.71239 2.49497 0
5.10509 2.49497 0
4.71239 3.12027 0
5.10509 3.12027 0
5.10509 2.49497 0
5.49779 2.49497 0
5.10509 3.12027 0
5.49779 3.12027 0
4.71239 3.12027 0
5.10509 3.12027 0
4.71239 3.74558 0
5.10509 3.74558 0
5.10509 3.12027 0
5.49779 3.12027 0
5.10509 3.74558 0
5.49779 3.74558 0
5.49779 2.49497 0
5.89049 2.49497 0
5.49779 3.12027 0
5.89049 3.12027 0
5.89049 2.49497 0
6.28319 2.49497 0
5.89049 3.12027 0
6.28319 3.12027 0
5.49779 3.12027 0
5.89049 3.12027 0
5.49779 3.74558 0
5.89049 3.74558 0
5.89049 3.12027 0
6.28319 3.12027 0
5.89049 3.74558 0
6.28319 3.74558 0
4.71239 3.74558 0
5.10509 3.74558 0
4.71239 4.37087 0
5.10509 4.37087 0
5.10509 3.74558 0
5.49779 3.74558 0
5.10509 4.37087 0
5.49779 4.37087 0
4.71239 4.37087 0
5.10509 4.37087 0
4.71239 4.99614 0
5.10509 4.99614 0
5.10509 4.37087 0
5.49779 4.37087 0
5.10509 4.99614 0
5.49779 4.99614 0
5.49779 3.74558 0
5.89049 3.74558 0
5.49779 4.37087 0
5.89049 4.37087 0
5.89049 3.74558 0
6.28319 3.74558 0
5.89049 4.37087 0
6.28319 4.37087 0
5.49779 4.37087 0
5.89049 4.37087 0
5.49779 4.99614 0
5.89049 4.99614 0
5.89049 4.37087 0
6.28319 4.37087 0
5.89049 4.99614 0
6.28319 4.99614 0
0 4.99614 0
0.392699 4.99614 0
0 5.62138 0
0.392699 5.62138 0
0.392699 4.99614 0
0.785398 4.99614 0
0.392699 5.62138 0
0.785398 5.62138 0
0 5.62138 0
0.392699 5.62138 0
0 6.24661 0
0.392699 6.24661 0
0.392699 5.62138 0
0.785398 5.62138 0
0.392699 6.24661 0
0.785398 6.24661 0
0.785398 4.99614 0
1.1781 4.99614 0
0.785398 5.62138 0
1.1781 5.62138 0
1.1781 4.99614 0
1.5708 4.99614 0
1.1781 5.62138 0
1.5708 5.62138 0
0.785398 5.62138 0
1.1781 5.62138 0
0.785398 6.24661 0
1.1781 6.24661 0
1.1781 5.62138 0
1.5708 5.62138 0
1.1781 6.24661 0
1.5708 6.24661 0
0 6.24661 0
0.392699 6.24661 0
0 6.87182 0
0.392699 6.87182 0
0.392699 6.24661 0
0.785398 6.24661 0
0.392699 6.87182 0
0.785398 6.87182 0
0 6.87182 0
0.392699 6.87182 0
0 7.49703 0
0.392699 7.49703 0
0.392699 6.87182 0
0.785398 6.87182 0
0.392699 7.49703 0
0.785398 7.49703 0
0.785398 6.24661 0
1.1781 6.24661 0
0.785398 6.87182 0
[...]
POINT_DATA 5120
VECTORS uf double
0 1 0
-1.40061e-14 1 0
0 1.00195 0
-1.01209e-14 1.00195 0
-1.40061e-14 1 0
-5.42783e-15 1 0
-1.01209e-14 1.00195 0
1.19836e-14 1.00195 0
0 1.00195 0
2.38185e-15 1.00195 0
0 1.00296 0
5.11706e-15 1.00296 0
2.38185e-15 1.00195 0
-8.63785e-15 1.00195 0
5.11706e-15 1.00296 0
7.6187e-15 1.00296 0
-5.42783e-15 1 0
2.08964e-15 1 0
1.19836e-14 1.00195 0
2.82359e-14 1.00195 0
2.08964e-15 1 0
-1.35523e-14 1 0
2.82359e-14 1.00195 0
1.76987e-14 1.00195 0
-8.63785e-15 1.00195 0
-3.02399e-14 1.00195 0
7.6187e-15 1.00296 0
6.57204e-15 1.00296 0
-3.02399e-14 1.00195 0
-1.3386e-14 1.00195 0
6.57204e-15 1.00296 0
1.4804e-14 1.00296 0
0 1.00296 0
1.40639e-15 1.00296 0
0 1.00419 0
9.15134e-15 1.00419 0
1.40639e-15 1.00296 0
-1.13911e-14 1.00296 0
9.15134e-15 1.00419 0
-1.42043e-15 1.00419 0
0 1.00419 0
-3.03403e-15 1.00419 0
0 1.00534 0
5.35356e-16 1.00534 0
-3.03403e-15 1.00419 0
7.40097e-15 1.00419 0
5.35356e-16 1.00534 0
1.27059e-14 1.00534 0
-1.13911e-14 1.00296 0
-2.34433e-14 1.00296 0
-1.42043e-15 1.00419 0
2.38365e-14 1.00419 0
-2.34433e-14 1.00296 0
-1.9564e-14 1.00296 0
2.38365e-14 1.00419 0
1.5058e-14 1.00419 0
7.40097e-15 1.00419 0
-1.25958e-14 1.00419 0
1.27059e-14 1.00534 0
7.53382e-15 1.00534 0
-1.25958e-14 1.00419 0
-1.21704e-14 1.00419 0
7.53382e-15 1.00534 0
-2.83023e-15 1.00534 0
-1.35523e-14 1 0
-1.09661e-14 1 0
1.76987e-14 1.00195 0
8.60539e-15 1.00195 0
-1.09661e-14 1 0
-1.18793e-14 1 0
8.60539e-15 1.00195 0
1.09779e-14 1.00195 0
-1.3386e-14 1.00195 0
-7.26327e-15 1.00195 0
1.4804e-14 1.00296 0
1.18027e-14 1.00296 0
-7.26327e-15 1.00195 0
-8.55064e-15 1.00195 0
1.18027e-14 1.00296 0
9.57097e-15 1.00296 0
-1.18793e-14 1 0
-9.31646e-15 1 0
1.09779e-14 1.00195 0
1.11784e-14 1.00195 0
-9.31646e-15 1 0
-2.05157e-15 1 0
1.11784e-14 1.00195 0
6.76023e-15 1.00195 0
-8.55064e-15 1.00195 0
-1.04444e-14 1.00195 0
9.57097e-15 1.00296 0
1.17101e-14 1.00296 0
-1.04444e-14 1.00195 0
-1.43022e-14 1.00195 0
1.17101e-14 1.00296 0
1.55563e-14 1.00296 0
-1.9564e-14 1.00296 0
-7.13979e-15 1.00296 0
1.5058e-14 1.00419 0
8.75414e-15 1.00419 0
-7.13979e-15 1.00296 0
-3.03847e-15 1.00296 0
8.75414e-15 1.00419 0
5.98319e-15 1.00419 0
-1.21704e-14 1.00419 0
-7.02488e-15 1.00419 0
-2.83023e-15 1.00534 0
4.3065e-15 1.00534 0
-7.02488e-15 1.00419 0
-9.62696e-15 1.00419 0
4.3065e-15 1.00534 0
1.66158e-14 1.00534 0
-3.03847e-15 1.00296 0
-1.0383e-14 1.00296 0
5.98319e-15 1.00419 0
1.14089e-14 1.00419 0
-1.0383e-14 1.00296 0
-1.24146e-14 1.00296 0
1.14089e-14 1.00419 0
1.70299e-14 1.00419 0
-9.62696e-15 1.00419 0
-7.65519e-15 1.00419 0
1.66158e-14 1.00534 0
8.6028e-15 1.00534 0
-7.65519e-15 1.00419 0
-1.18677e-14 1.00419 0
8.6028e-15 1.00534 0
8.99191e-15 1.00534 0
0 1.00534 0
3.86521e-15 1.00534 0
0 1.00648 0
1.36e-15 1.00648 0
3.86521e-15 1.00534 0
-1.77036e-14 1.00534 0
1.36e-15 1.00648 0
-1.72556e-14 1.00648 0
0 1.00648 0
-4.21688e-15 1.00648 0
0 1.00761 0
-2.88819e-15 1.00761 0
-4.21688e-15 1.00648 0
2.37286e-14 1.00648 0
-2.88819e-15 1.00761 0
3.04047e-14 1.00761 0
-1.77036e-14 1.00534 0
-1.54558e-14 1.00534 0
-1.72556e-14 1.00648 0
1.08407e-14 1.00648 0
-1.54558e-14 1.00534 0
9.36413e-15 1.00534 0
1.08407e-14 1.00648 0
1.1719e-14 1.00648 0
2.37286e-14 1.00648 0
-8.5105e-15 1.00648 0
3.04047e-14 1.00761 0
2.10968e-14 1.00761 0
-8.5105e-15 1.00648 0
-3.07261e-14 1.00648 0
2.10968e-14 1.00761 0
-9.90032e-15 1.00761 0
0 1.00761 0
9.40798e-15 1.00761 0
0 1.00872 0
1.14219e-14 1.00872 0
9.40798e-15 1.00761 0
-3.37617e-14 1.00761 0
1.14219e-14 1.00872 0
-2.66959e-14 1.00872 0
0 1.00872 0
-3.73461e-15 1.00872 0
0 1.00982 0
-3.74855e-16 1.00982 0
-3.73461e-15 1.00872 0
2.66628e-14 1.00872 0
-3.74855e-16 1.00982 0
2.48982e-14 1.00982 0
-3.37617e-14 1.00761 0
-1.76137e-14 1.00761 0
-2.66959e-14 1.00872 0
-9.62082e-16 1.00872 0
-1.76137e-14 1.00761 0
1.90424e-14 1.00761 0
-9.62082e-16 1.00872 0
3.68739e-14 1.00872 0
2.66628e-14 1.00872 0
5.9654e-15 1.00872 0
2.48982e-14 1.00982 0
6.74109e-15 1.00982 0
5.9654e-15 1.00872 0
-2.62343e-14 1.00872 0
6.74109e-15 1.00982 0
-1.13514e-14 1.00982 0
9.36413e-15 1.00534 0
-7.55096e-15 1.00534 0
1.1719e-14 1.00648 0
2.68275e-15 1.00648 0
-7.55096e-15 1.00534 0
-1.8668e-14 1.00534 0
2.68275e-15 1.00648 0
1.56559e-14 1.00648 0
-3.07261e-14 1.00648 0
-9.10933e-15 1.00648 0
-9.90032e-15 1.00761 0
-3.17967e-15 1.00761 0
-9.10933e-15 1.00648 0
-7.91494e-15 1.00648 0
-3.17967e-15 1.00761 0
1.40829e-14 1.00761 0
-1.8668e-14 1.00534 0
-8.1207e-15 1.00534 0
1.56559e-14 1.00648 0
8.03718e-15 1.00648 0
-8.1207e-15 1.00534 0
-1.64319e-14 1.00534 0
8.03718e-15 1.00648 0
1.70487e-14 1.00648 0
-7.91494e-15 1.00648 0
-3.93364e-16 1.00648 0
1.40829e-14 1.00761 0
2.32861e-15 1.00761 0
-3.93364e-16 1.00648 0
-1.34849e-14 1.00648 0
2.32861e-15 1.00761 0
1.62445e-14 1.00761 0
1.90424e-14 1.00761 0
1.12205e-14 1.00761 0
3.68739e-14 1.00872 0
2.39344e-14 1.00872 0
1.12205e-14 1.00761 0
-1.85587e-14 1.00761 0
2.39344e-14 1.00872 0
1.29148e-14 1.00872 0
-2.62343e-14 1.00872 0
-1.61946e-14 1.00872 0
-1.13514e-14 1.00982 0
-1.23009e-16 1.00982 0
-1.61946e-14 1.00872 0
-7.1735e-15 1.00872 0
-1.23009e-16 1.00982 0
1.2302e-14 1.00982 0
-1.85587e-14 1.00761 0
-7.18612e-15 1.00761 0
1.29148e-14 1.00872 0
1.27298e-14 1.00872 0
-7.18612e-15 1.00761 0
-1.24678e-14 1.00761 0
1.27298e-14 1.00872 0
1.60019e-14 1.00872 0
-7.1735e-15 1.00872 0
-1.1898e-14 1.00872 0
1.2302e-14 1.00982 0
5.44728e-15 1.00982 0
-1.1898e-14 1.00872 0
-1.74606e-14 1.00872 0
5.44728e-15 1.00982 0
1.24675e-14 1.00982 0
-2.05157e-15 1 0
-1.31748e-14 1 0
6.76023e-15 1.00195 0
1.89945e-14 1.00195 0
-1.31748e-14 1 0
-4.98941e-15 1 0
1.89945e-14 1.00195 0
1.22298e-14 1.00195 0
-1.43022e-14 1.00195 0
-6.89912e-15 1.00195 0
1.55563e-14 1.00296 0
1.01103e-14 1.00296 0
-6.89912e-15 1.00195 0
-7.43392e-15 1.00195 0
1.01103e-14 1.00296 0
6.05279e-15 1.00296 0
-4.98941e-15 1 0
-8.84337e-15 1 0
1.22298e-14 1.00195 0
1.24829e-14 1.00195 0
-8.84337e-15 1 0
-1.04125e-14 1 0
1.24829e-14 1.00195 0
1.30582e-14 1.00195 0
-7.43392e-15 1.00195 0
-6.60485e-15 1.00195 0
6.05279e-15 1.00296 0
4.40793e-15 1.00296 0
-6.60485e-15 1.00195 0
-2.27161e-15 1.00195 0
4.40793e-15 1.00296 0
7.88228e-15 1.00296 0
-1.24146e-14 1.00296 0
-1.26251e-14 1.00296 0
1.70299e-14 1.00419 0
8.72709e-15 1.00419 0
-1.26251e-14 1.00296 0
-6.30836e-15 1.00296 0
8.72709e-15 1.00419 0
1.07308e-14 1.00419 0
-1.18677e-14 1.00419 0
-2.47671e-15 1.00419 0
8.99191e-15 1.00534 0
8.85979e-15 1.00534 0
-2.47671e-15 1.00419 0
-1.0333e-14 1.00419 0
8.85979e-15 1.00534 0
9.64057e-15 1.00534 0
-6.30836e-15 1.00296 0
9.23064e-16 1.00296 0
1.07308e-14 1.00419 0
7.44139e-15 1.00419 0
9.23064e-16 1.00296 0
-1.02171e-14 1.00296 0
7.44139e-15 1.00419 0
1.48168e-14 1.00419 0
-1.0333e-14 1.00419 0
-8.90567e-15 1.00419 0
9.64057e-15 1.00534 0
5.02129e-15 1.00534 0
-8.90567e-15 1.00419 0
-8.70657e-15 1.00419 0
5.02129e-15 1.00534 0
1.30109e-14 1.00534 0
-1.04125e-14 1 0
-1.11738e-14 1 0
1.30582e-14 1.00195 0
1.9617e-14 1.00195 0
-1.11738e-14 1 0
-1.35932e-14 1 0
1.9617e-14 1.00195 0
2.25501e-14 1.00195 0
-2.27161e-15 1.00195 0
-1.64993e-14 1.00195 0
7.88228e-15 1.00296 0
2.09641e-14 1.00296 0
-1.64993e-14 1.00195 0
-1.73419e-14 1.00195 0
2.09641e-14 1.00296 0
1.51758e-14 1.00296 0
-1.35932e-14 1 0
-8.43061e-15 1 0
2.25501e-14 1.00195 0
1.46048e-14 1.00195 0
-8.43061e-15 1 0
-8.03244e-15 1 0
1.46048e-14 1.00195 0
1.54612e-14 1.00195 0
-1.73419e-14 1.00195 0
-8.83793e-15 1.00195 0
1.51758e-14 1.00296 0
7.12109e-15 1.00296 0
-8.83793e-15 1.00195 0
-1.30912e-14 1.00195 0
7.12109e-15 1.00296 0
1.71598e-14 1.00296 0
-1.02171e-14 1.00296 0
-1.72242e-14 1.00296 0
1.48168e-14 1.00419 0
1.44495e-14 1.00419 0
-1.72242e-14 1.00296 0
-4.74169e-15 1.00296 0
1.44495e-14 1.00419 0
6.90503e-15 1.00419 0
-8.70657e-15 1.00419 0
-4.22078e-15 1.00419 0
1.30109e-14 1.00534 0
1.04851e-14 1.00534 0
-4.22078e-15 1.00419 0
-5.99607e-15 1.00419 0
1.04851e-14 1.00534 0
7.9982e-15 1.00534 0
-4.74169e-15 1.00296 0
-1.02391e-14 1.00296 0
6.90503e-15 1.00419 0
1.84159e-14 1.00419 0
-1.02391e-14 1.00296 0
-1.66573e-14 1.00296 0
1.84159e-14 1.00419 0
1.59298e-14 1.00419 0
-5.99607e-15 1.00419 0
-6.72151e-15 1.00419 0
7.9982e-15 1.00534 0
6.14003e-15 1.00534 0
-6.72151e-15 1.00419 0
-6.66976e-15 1.00419 0
6.14003e-15 1.00534 0
1.01208e-14 1.00534 0
-1.64319e-14 1.00534 0
-1.3429e-14 1.00534 0
1.70487e-14 1.00648 0
1.41985e-14 1.00648 0
-1.3429e-14 1.00534 0
-9.72082e-15 1.00534 0
1.41985e-14 1.00648 0
6.8403e-15 1.00648 0
-1.34849e-14 1.00648 0
-1.01015e-14 1.00648 0
1.62445e-14 1.00761 0
9.97897e-15 1.00761 0
-1.01015e-14 1.00648 0
-1.4738e-15 1.00648 0
9.97897e-15 1.00761 0
1.10974e-14 1.00761 0
-9.72082e-15 1.00534 0
-3.33256e-15 1.00534 0
6.8403e-15 1.00648 0
1.19351e-14 1.00648 0
-3.33256e-15 1.00534 0
-1.07711e-14 1.00534 0
1.19351e-14 1.00648 0
1.3938e-14 1.00648 0
-1.4738e-15 1.00648 0
-7.22886e-15 1.00648 0
1.10974e-14 1.00761 0
1.39967e-15 1.00761 0
-7.22886e-15 1.00648 0
-8.67968e-15 1.00648 0
1.39967e-15 1.00761 0
1.14633e-14 1.00761 0
-1.24678e-14 1.00761 0
-4.52555e-15 1.00761 0
1.60019e-14 1.00872 0
1.38856e-14 1.00872 0
-4.52555e-15 1.00761 0
-8.66819e-15 1.00761 0
1.38856e-14 1.00872 0
9.47328e-15 1.00872 0
-1.74606e-14 1.00872 0
-1.33699e-14 1.00872 0
1.24675e-14 1.00982 0
1.17155e-14 1.00982 0
-1.33699e-14 1.00872 0
-1.35683e-14 1.00872 0
1.17155e-14 1.00982 0
1.55069e-14 1.00982 0
-8.66819e-15 1.00761 0
-3.97781e-15 1.00761 0
9.47328e-15 1.00872 0
9.2002e-15 1.00872 0
-3.97781e-15 1.00761 0
-9.9483e-15 1.00761 0
9.2002e-15 1.00872 0
1.20642e-14 1.00872 0
-1.35683e-14 1.00872 0
-3.07308e-15 1.00872 0
1.55069e-14 1.00982 0
4.36472e-15 1.00982 0
-3.07308e-15 1.00872 0
-5.60204e-15 1.00872 0
4.36472e-15 1.00982 0
3.79364e-15 1.00982 0
-1.07711e-14 1.00534 0
-8.82391e-15 1.00534 0
1.3938e-14 1.00648 0
1.18079e-14 1.00648 0
-8.82391e-15 1.00534 0
-2.25664e-15 1.00534 0
1.18079e-14 1.00648 0
1.13012e-14 1.00648 0
-8.67968e-15 1.00648 0
-2.58441e-15 1.00648 0
1.14633e-14 1.00761 0
6.73292e-15 1.00761 0
-2.58441e-15 1.00648 0
-6.24574e-15 1.00648 0
6.73292e-15 1.00761 0
6.16201e-15 1.00761 0
-2.25664e-15 1.00534 0
1.8528e-15 1.00534 0
1.13012e-14 1.00648 0
5.75392e-15 1.00648 0
1.8528e-15 1.00534 0
3.09282e-16 1.00534 0
5.75392e-15 1.00648 0
6.54569e-15 1.00648 0
-6.24574e-15 1.00648 0
-8.30754e-15 1.00648 0
6.16201e-15 1.00761 0
1.53375e-14 1.00761 0
-8.30754e-15 1.00648 0
-8.28692e-15 1.00648 0
1.53375e-14 1.00761 0
1.26179e-14 1.00761 0
-9.9483e-15 1.00761 0
-4.53296e-15 1.00761 0
1.20642e-14 1.00872 0
6.13654e-15 1.00872 0
-4.53296e-15 1.00761 0
-7.76469e-15 1.00761 0
6.13654e-15 1.00872 0
1.0471e-14 1.00872 0
-5.60204e-15 1.00872 0
-5.31247e-15 1.00872 0
3.79364e-15 1.00982 0
5.5168e-15 1.00982 0
-5.31247e-15 1.00872 0
-1.07097e-14 1.00872 0
5.5168e-15 1.00982 0
1.12125e-14 1.00982 0
-7.76469e-15 1.00761 0
-8.99458e-15 1.00761 0
1.0471e-14 1.00872 0
9.05703e-15 1.00872 0
-8.99458e-15 1.00761 0
-4.00098e-15 1.00761 0
9.05703e-15 1.00872 0
3.58304e-15 1.00872 0
-1.07097e-14 1.00872 0
-5.62519e-15 1.00872 0
1.12125e-14 1.00982 0
8.3709e-15 1.00982 0
-5.62519e-15 1.00872 0
-2.88014e-16 1.00872 0
8.3709e-15 1.00982 0
5.73167e-15 1.00982 0
0 1.00982 0
-3.54739e-15 1.00982 0
0 1.01092 0
2.60557e-15 1.01092 0
-3.54739e-15 1.00982 0
-2.09656e-14 1.00982 0
2.60557e-15 1.01092 0
-7.20714e-15 1.01092 0
0 1.01092 0
-1.01908e-14 1.01092 0
0 1.01202 0
3.43397e-15 1.01202 0
-1.01908e-14 1.01092 0
1.26712e-15 1.01092 0
3.43397e-15 1.01202 0
1.65788e-14 1.01202 0
-2.09656e-14 1.00982 0
-1.41811e-15 1.00982 0
-7.20714e-15 1.01092 0
7.78913e-15 1.01092 0
-1.41811e-15 1.00982 0
1.36848e-14 1.00982 0
7.78913e-15 1.01092 0
1.65844e-14 1.01092 0
1.26712e-15 1.01092 0
-1.73456e-14 1.01092 0
1.65788e-14 1.01202 0
9.08649e-15 1.01202 0
-1.73456e-14 1.01092 0
-7.05055e-15 1.01092 0
9.08649e-15 1.01202 0
7.75676e-15 1.01202 0
0 1.01202 0
-1.59232e-15 1.01202 0
0 1.01313 0
-1.35162e-16 1.01313 0
-1.59232e-15 1.01202 0
-5.46016e-15 1.01202 0
-1.35162e-16 1.01313 0
5.86933e-16 1.01313 0
0 1.01313 0
1.16353e-15 1.01313 0
0 1.01427 0
4.57553e-15 1.01427 0
1.16353e-15 1.01313 0
3.6637e-15 1.01313 0
4.57553e-15 1.01427 0
3.05156e-15 1.01427 0
-5.46016e-15 1.01202 0
-4.39647e-15 1.01202 0
5.86933e-16 1.01313 0
7.61776e-15 1.01313 0
-4.39647e-15 1.01202 0
-5.86612e-15 1.01202 0
7.61776e-15 1.01313 0
4.18473e-15 1.01313 0
3.6637e-15 1.01313 0
-6.6603e-15 1.01313 0
3.05156e-15 1.01427 0
4.60601e-15 1.01427 0
-6.6603e-15 1.01313 0
-6.60505e-17 1.01313 0
4.60601e-15 1.01427 0
4.94451e-15 1.01427 0
1.36848e-14 1.00982 0
-9.80158e-15 1.00982 0
1.65844e-14 1.01092 0
8.04518e-16 1.01092 0
-9.80158e-15 1.00982 0
-1.01422e-14 1.00982 0
8.04518e-16 1.01092 0
1.33446e-14 1.01092 0
-7.05055e-15 1.01092 0
2.45327e-15 1.01092 0
7.75676e-15 1.01202 0
1.44242e-14 1.01202 0
2.45327e-15 1.01092 0
-1.272e-14 1.01092 0
1.44242e-14 1.01202 0
1.22535e-14 1.01202 0
-1.01422e-14 1.00982 0
-3.35398e-15 1.00982 0
1.33446e-14 1.01092 0
1.31431e-14 1.01092 0
-3.35398e-15 1.00982 0
-6.77735e-15 1.00982 0
1.31431e-14 1.01092 0
9.63315e-15 1.01092 0
-1.272e-14 1.01092 0
-1.29088e-14 1.01092 0
1.22535e-14 1.01202 0
1.12425e-14 1.01202 0
-1.29088e-14 1.01092 0
-9.79102e-15 1.01092 0
1.12425e-14 1.01202 0
9.58961e-15 1.01202 0
-5.86612e-15 1.01202 0
-7.26055e-15 1.01202 0
4.18473e-15 1.01313 0
1.00643e-14 1.01313 0
-7.26055e-15 1.01202 0
-1.06325e-14 1.01202 0
1.00643e-14 1.01313 0
9.4323e-15 1.01313 0
-6.60505e-17 1.01313 0
-9.67031e-15 1.01313 0
4.94451e-15 1.01427 0
7.48098e-15 1.01427 0
-9.67031e-15 1.01313 0
-6.59144e-15 1.01313 0
7.48098e-15 1.01427 0
1.10593e-14 1.01427 0
-1.06325e-14 1.01202 0
-8.89771e-15 1.01202 0
9.4323e-15 1.01313 0
1.19889e-14 1.01313 0
-8.89771e-15 1.01202 0
-7.68265e-15 1.01202 0
1.19889e-14 1.01313 0
9.1735e-15 1.01313 0
-6.59144e-15 1.01313 0
-1.11751e-14 1.01313 0
1.10593e-14 1.01427 0
9.64665e-15 1.01427 0
-1.11751e-14 1.01313 0
-7.57235e-15 1.01313 0
9.64665e-15 1.01427 0
7.34505e-15 1.01427 0
0 1.01427 0
3.44496e-15 1.01427 0
0 1.01543 0
6.06622e-15 1.01543 0
3.44496e-15 1.01427 0
2.60096e-15 1.01427 0
6.06622e-15 1.01543 0
-1.19077e-15 1.01543 0
0 1.01543 0
-6.10274e-15 1.01543 0
0 1.01656 0
-2.74374e-15 1.01656 0
-6.10274e-15 1.01543 0
1.74492e-15 1.01543 0
-2.74374e-15 1.01656 0
2.21926e-15 1.01656 0
2.60096e-15 1.01427 0
-3.51766e-15 1.01427 0
-1.19077e-15 1.01543 0
3.8459e-15 1.01543 0
-3.51766e-15 1.01427 0
-7.94502e-15 1.01427 0
3.8459e-15 1.01543 0
5.88102e-15 1.01543 0
1.74492e-15 1.01543 0
-2.46386e-15 1.01543 0
2.21926e-15 1.01656 0
3.17128e-15 1.01656 0
-2.46386e-15 1.01543 0
-4.10292e-15 1.01543 0
3.17128e-15 1.01656 0
4.06612e-15 1.01656 0
0 1.01656 0
2.51184e-15 1.01656 0
0 1.01752 0
4.08742e-15 1.01752 0
2.51184e-15 1.01656 0
-6.80962e-15 1.01656 0
4.08742e-15 1.01752 0
-7.94608e-16 1.01752 0
0 1.01752 0
-1.29503e-15 1.01752 0
0 1.01785 0
2.00132e-16 1.01785 0
-1.29503e-15 1.01752 0
-2.57352e-15 1.01752 0
2.00132e-16 1.01785 0
7.36824e-15 1.01785 0
-6.80962e-15 1.01656 0
-1.26567e-15 1.01656 0
-7.94608e-16 1.01752 0
-3.66943e-17 1.01752 0
-1.26567e-15 1.01656 0
-1.64703e-15 1.01656 0
-3.66943e-17 1.01752 0
-8.1547e-16 1.01752 0
-2.57352e-15 1.01752 0
-4.03961e-15 1.01752 0
7.36824e-15 1.01785 0
-6.28256e-16 1.01785 0
-4.03961e-15 1.01752 0
-5.2312e-15 1.01752 0
-6.28256e-16 1.01785 0
2.20391e-16 1.01785 0
-7.94502e-15 1.01427 0
-6.15633e-15 1.01427 0
5.88102e-15 1.01543 0
1.03332e-14 1.01543 0
-6.15633e-15 1.01427 0
-7.5028e-15 1.01427 0
1.03332e-14 1.01543 0
7.62614e-15 1.01543 0
-4.10292e-15 1.01543 0
-5.73233e-15 1.01543 0
4.06612e-15 1.01656 0
1.48371e-15 1.01656 0
-5.73233e-15 1.01543 0
-8.37191e-15 1.01543 0
1.48371e-15 1.01656 0
5.27624e-15 1.01656 0
-7.5028e-15 1.01427 0
-1.35817e-15 1.01427 0
7.62614e-15 1.01543 0
1.37514e-15 1.01543 0
-1.35817e-15 1.01427 0
-5.11786e-15 1.01427 0
1.37514e-15 1.01543 0
7.34012e-15 1.01543 0
-8.37191e-15 1.01543 0
-4.38116e-15 1.01543 0
5.27624e-15 1.01656 0
1.87782e-15 1.01656 0
-4.38116e-15 1.01543 0
-6.73139e-15 1.01543 0
1.87782e-15 1.01656 0
5.9063e-15 1.01656 0
-1.64703e-15 1.01656 0
-6.87704e-15 1.01656 0
-8.1547e-16 1.01752 0
3.39068e-18 1.01752 0
-6.87704e-15 1.01656 0
-6.71744e-15 1.01656 0
3.39068e-18 1.01752 0
3.73272e-15 1.01752 0
-5.2312e-15 1.01752 0
-4.90969e-15 1.01752 0
2.20391e-16 1.01785 0
5.05138e-15 1.01785 0
-4.90969e-15 1.01752 0
-4.96653e-15 1.01752 0
5.05138e-15 1.01785 0
3.64814e-15 1.01785 0
-6.71744e-15 1.01656 0
-3.50735e-15 1.01656 0
3.73272e-15 1.01752 0
1.88795e-15 1.01752 0
-3.50735e-15 1.01656 0
-6.51644e-15 1.01656 0
1.88795e-15 1.01752 0
4.68141e-15 1.01752 0
-4.96653e-15 1.01752 0
-2.21616e-15 1.01752 0
3.64814e-15 1.01785 0
2.98524e-15 1.01785 0
-2.21616e-15 1.01752 0
-3.75587e-15 1.01752 0
2.98524e-15 1.01785 0
-6.471e-16 1.01785 0
-6.77735e-15 1.00982 0
-6.81754e-15 1.00982 0
9.63315e-15 1.01092 0
1.06426e-14 1.01092 0
-6.81754e-15 1.00982 0
-1.04044e-14 1.00982 0
1.06426e-14 1.01092 0
9.72122e-15 1.01092 0
-9.79102e-15 1.01092 0
-1.31354e-14 1.01092 0
9.58961e-15 1.01202 0
1.71655e-14 1.01202 0
-1.31354e-14 1.01092 0
-6.02607e-15 1.01092 0
1.71655e-14 1.01202 0
1.15634e-14 1.01202 0
-1.04044e-14 1.00982 0
-3.43048e-15 1.00982 0
9.72122e-15 1.01092 0
7.84202e-15 1.01092 0
-3.43048e-15 1.00982 0
-7.20234e-15 1.00982 0
7.84202e-15 1.01092 0
1.38945e-14 1.01092 0
-6.02607e-15 1.01092 0
-8.32438e-15 1.01092 0
1.15634e-14 1.01202 0
8.50186e-15 1.01202 0
-8.32438e-15 1.01092 0
-8.9015e-15 1.01092 0
8.50186e-15 1.01202 0
1.09291e-14 1.01202 0
-7.68265e-15 1.01202 0
-1.54483e-14 1.01202 0
9.1735e-15 1.01313 0
1.49272e-14 1.01313 0
-1.54483e-14 1.01202 0
-1.12808e-14 1.01202 0
1.49272e-14 1.01313 0
9.00273e-15 1.01313 0
-7.57235e-15 1.01313 0
-1.22136e-14 1.01313 0
7.34505e-15 1.01427 0
1.25042e-14 1.01427 0
-1.22136e-14 1.01313 0
-4.07019e-15 1.01313 0
1.25042e-14 1.01427 0
5.51272e-15 1.01427 0
-1.12808e-14 1.01202 0
-8.20008e-15 1.01202 0
9.00273e-15 1.01313 0
9.46512e-15 1.01313 0
-8.20008e-15 1.01202 0
-1.07168e-14 1.01202 0
9.46512e-15 1.01313 0
7.01577e-15 1.01313 0
-4.07019e-15 1.01313 0
-6.12095e-15 1.01313 0
5.51272e-15 1.01427 0
8.28649e-15 1.01427 0
-6.12095e-15 1.01313 0
-2.58884e-15 1.01313 0
8.28649e-15 1.01427 0
6.47909e-15 1.01427 0
-7.20234e-15 1.00982 0
-5.30634e-15 1.00982 0
1.38945e-14 1.01092 0
8.31421e-15 1.01092 0
-5.30634e-15 1.00982 0
-7.15106e-15 1.00982 0
8.31421e-15 1.01092 0
1.52451e-14 1.01092 0
-8.9015e-15 1.01092 0
-2.93881e-15 1.01092 0
1.09291e-14 1.01202 0
5.41734e-15 1.01202 0
-2.93881e-15 1.01092 0
-4.60532e-15 1.01092 0
5.41734e-15 1.01202 0
6.18205e-15 1.01202 0
-7.15106e-15 1.00982 0
-6.34815e-15 1.00982 0
1.52451e-14 1.01092 0
9.75203e-15 1.01092 0
-6.34815e-15 1.00982 0
-1.87586e-15 1.00982 0
9.75203e-15 1.01092 0
5.29759e-15 1.01092 0
-4.60532e-15 1.01092 0
-4.53558e-15 1.01092 0
6.18205e-15 1.01202 0
5.96807e-15 1.01202 0
-4.53558e-15 1.01092 0
-7.1554e-15 1.01092 0
5.96807e-15 1.01202 0
8.95148e-15 1.01202 0
-1.07168e-14 1.01202 0
-5.09344e-15 1.01202 0
7.01577e-15 1.01313 0
6.85875e-15 1.01313 0
-5.09344e-15 1.01202 0
-4.711e-15 1.01202 0
6.85875e-15 1.01313 0
5.08465e-15 1.01313 0
-2.58884e-15 1.01313 0
-5.23504e-15 1.01313 0
6.47909e-15 1.01427 0
3.53229e-15 1.01427 0
-5.23504e-15 1.01313 0
-1.16161e-14 1.01313 0
3.53229e-15 1.01427 0
9.17408e-15 1.01427 0
-4.711e-15 1.01202 0
-7.75152e-15 1.01202 0
5.08465e-15 1.01313 0
7.11007e-15 1.01313 0
-7.75152e-15 1.01202 0
-8.11697e-15 1.01202 0
7.11007e-15 1.01313 0
7.76408e-15 1.01313 0
-1.16161e-14 1.01313 0
-5.024e-15 1.01313 0
9.17408e-15 1.01427 0
3.20293e-15 1.01427 0
-5.024e-15 1.01313 0
-2.05784e-15 1.01313 0
3.20293e-15 1.01427 0
3.63291e-15 1.01427 0
-5.11786e-15 1.01427 0
-8.33375e-15 1.01427 0
7.34012e-15 1.01543 0
6.51282e-15 1.01543 0
-8.33375e-15 1.01427 0
-4.99332e-15 1.01427 0
6.51282e-15 1.01543 0
3.6478e-15 1.01543 0
-6.73139e-15 1.01543 0
-4.31739e-15 1.01543 0
5.9063e-15 1.01656 0
4.60912e-15 1.01656 0
-4.31739e-15 1.01543 0
-2.94291e-15 1.01543 0
4.60912e-15 1.01656 0
2.09438e-15 1.01656 0
-4.99332e-15 1.01427 0
-3.13666e-15 1.01427 0
3.6478e-15 1.01543 0