# vtk DataFile Version 3.0
#This file was generated by the deal.II library on 2018/10/12 at 1:56:38
ASCII
DATASET UNSTRUCTURED_GRID

POINTS 5120 double
0 0 0
0.392699 0 0
0 0.585758 0
0.392699 0.585758 0
0.392699 0 0
0.785398 0 0
0.392699 0.585758 0
0.785398 0.585758 0
0 0.585758 0
0.392699 0.585758 0
0 1.21344 0
0.392699 1.21344 0
0.392699 0.585758 0
0.785398 0.585758 0
0.392699 1.21344 0
0.785398 1.21344 0
0.785398 0 0
1.1781 0 0
0.785398 0.585758 0
1.1781 0.585758 0
1.1781 0 0
1.5708 0 0
1.1781 0.585758 0
1.5708 0.585758 0
0.785398 0.585758 0
1.1781 0.585758 0
0.785398 1.21344 0
1.1781 1.21344 0
1.1781 0.585758 0
1.5708 0.585758 0
1.1781 1.21344 0
1.5708 1.21344 0
0 1.21344 0
0.392699 1.21344 0
0 1.8399 0
0.392699 1.8399 0
0.392699 1.21344 0
0.785398 1.21344 0
0.392699 1.8399 0
0.785398 1.8399 0
0 1.8399 0
0.392699 1.8399 0
0 2.46785 0
0.392699 2.46785 0
0.392699 1.8399 0
0.785398 1.8399 0
0.392699 2.46785 0
0.785398 2.46785 0
0.785398 1.21344 0
1.1781 1.21344 0
0.785398 1.8399 0
1.1781 1.8399 0
1.1781 1.21344 0
1.5708 1.21344 0
1.1781 1.8399 0
1.5708 1.8399 0
0.785398 1.8399 0
1.1781 1.8399 0
0.785398 2.46785 0
1.1781 2.46785 0
1.1781 1.8399 0
1.5708 1.8399 0
1.1781 2.46785 0
1.5708 2.46785 0
1.5708 0 0
1.9635 0 0
1.5708 0.585758 0
1.9635 0.585758 0
1.9635 0 0
2.35619 0 0
1.9635 0.585758 0
2.35619 0.585758 0
1.5708 0.585758 0
1.9635 0.585758 0
1.5708 1.21344 0
1.9635 1.21344 0
1.9635 0.585758 0
2.35619 0.585758 0
1.9635 1.21344 0
2.35619 1.21344 0
2.35619 0 0
2.74889 0 0
2.35619 0.585758 0
2.74889 0.585758 0
2.74889 0 0
3.14159 0 0
2.74889 0.585758 0
3.14159 0.585758 0
2.35619 0.585758 0
2.74889 0.585758 0
2.35619 1.21344 0
2.74889 1.21344 0
2.74889 0.585758 0
3.14159 0.585758 0
2.74889 1.21344 0
3.14159 1.21344 0
1.5708 1.21344 0
1.9635 1.21344 0
1.5708 1.8399 0
1.9635 1.8399 0
1.9635 1.21344 0
2.35619 1.21344 0
1.9635 1.8399 0
2.35619 1.8399 0
1.5708 1.8399 0
1.9635 1.8399 0
1.5708 2.46785 0
1.9635 2.46785 0
1.9635 1.8399 0
2.35619 1.8399 0
1.9635 2.46785 0
2.35619 2.46785 0
2.35619 1.21344 0
2.74889 1.21344 0
2.35619 1.8399 0
2.74889 1.8399 0
2.74889 1.21344 0
3.14159 1.21344 0
2.74889 1.8399 0
3.14159 1.8399 0
2.35619 1.8399 0
2.74889 1.8399 0
2.35619 2.46785 0
2.74889 2.46785 0
2.74889 1.8399 0
3.14159 1.8399 0
2.74889 2.46785 0
3.14159 2.46785 0
0 2.46785 0
0.392699 2.46785 0
0 3.0954 0
0.392699 3.0954 0
0.392699 2.46785 0
0.785398 2.46785 0
0.392699 3.0954 0
0.785398 3.0954 0
0 3.0954 0
0.392699 3.0954 0
0 3.72298 0
0.392699 3.72298 0
0.392699 3.0954 0
0.785398 3.0954 0
0.392699 3.72298 0
0.785398 3.72298 0
0.785398 2.46785 0
1.1781 2.46785 0
0.785398 3.0954 0
1.1781 3.0954 0
1.1781 2.46785 0
1.5708 2.46785 0
1.1781 3.0954 0
1.5708 3.0954 0
0.785398 3.0954 0
1.1781 3.0954 0
0.785398 3.72298 0
1.1781 3.72298 0
1.1781 3.0954 0
1.5708 3.0954 0
1.1781 3.72298 0
1.5708 3.72298 0
0 3.72298 0
0.392699 3.72298 0
0 4.35044 0
0.392699 4.35044 0
0.392699 3.72298 0
0.785398 3.72298 0
0.392699 4.35044 0
0.785398 4.35044 0
0 4.35044 0
0.392699 4.35044 0
0 4.97781 0
0.392699 4.97781 0
0.392699 4.35044 0
0.785398 4.35044 0
0.392699 4.97781 0
0.785398 4.97781 0
0.785398 3.72298 0
1.1781 3.72298 0
0.785398 4.35044 0
1.1781 4.35044 0
1.1781 3.72298 0
1.5708 3.72298 0
1.1781 4.35044 0
1.5708 4.35044 0
0.785398 4.35044 0
1.1781 4.35044 0
0.785398 4.97781 0
1.1781 4.97781 0
1.1781 4.35044 0
1.5708 4.35044 0
1.1781 4.97781 0
1.5708 4.97781 0
1.5708 2.46785 0
1.9635 2.46785 0
1.5708 3.0954 0
1.9635 3.0954 0
1.9635 2.46785 0
2.35619 2.46785 0
1.9635 3.0954 0
2.35619 3.0954 0
1.5708 3.0954 0
1.9635 3.0954 0
1.5708 3.72298 0
1.9635 3.72298 0
1.9635 3.0954 0
2.35619 3.0954 0
1.9635 3.72298 0
2.35619 3.72298 0
2.35619 2.46785 0
2.74889 2.46785 0
2.35619 3.0954 0
2.74889 3.0954 0
2.74889 2.46785 0
3.14159 2.46785 0
2.74889 3.0954 0
3.14159 3.0954 0
2.35619 3.0954 0
2.74889 3.0954 0
2.35619 3.72298 0
2.74889 3.72298 0
2.74889 3.0954 0
3.14159 3.0954 0
2.74889 3.72298 0
3.14159 3.72298 0
1.5708 3.72298 0
1.9635 3.72298 0
1.5708 4.35044 0
1.9635 4.35044 0
1.9635 3.72298 0
2.35619 3.72298 0
1.9635 4.35044 0
2.35619 4.35044 0
1.5708 4.35044 0
1.9635 4.35044 0
1.5708 4.97781 0
1.9635 4.97781 0
1.9635 4.35044 0
2.35619 4.35044 0
1.9635 4.97781 0
2.35619 4.97781 0
2.35619 3.72298 0
2.74889 3.72298 0
2.35619 4.35044 0
2.74889 4.35044 0
2.74889 3.72298 0
3.14159 3.72298 0
2.74889 4.35044 0
3.14159 4.35044 0
2.35619 4.35044 0
2.74889 4.35044 0
2.35619 4.97781 0
2.74889 4.97781 0
2.74889 4.35044 0
3.14159 4.35044 0
2.74889 4.97781 0
3.14159 4.97781 0
3.14159 0 0
3.53429 0 0
3.14159 0.585758 0
3.53429 0.585758 0
3.53429 0 0
3.92699 0 0
3.53429 0.585758 0
3.92699 0.585758 0
3.14159 0.585758 0
3.53429 0.585758 0
3.14159 1.21344 0
3.53429 1.21344 0
3.53429 0.585758 0
3.92699 0.585758 0
3.53429 1.21344 0
3.92699 1.21344 0
3.92699 0 0
4.31969 0 0
3.92699 0.585758 0
4.31969 0.585758 0
4.31969 0 0
4.71239 0 0
4.31969 0.585758 0
4.71239 0.585758 0
3.92699 0.585758 0
4.31969 0.585758 0
3.92699 1.21344 0
4.31969 1.21344 0
4.31969 0.585758 0
4.71239 0.585758 0
4.31969 1.21344 0
4.71239 1.21344 0
3.14159 1.21344 0
3.53429 1.21344 0
3.14159 1.8399 0
3.53429 1.8399 0
3.53429 1.21344 0
3.92699 1.21344 0
3.53429 1.8399 0
3.92699 1.8399 0
3.14159 1.8399 0
3.53429 1.8399 0
3.14159 2.46785 0
3.53429 2.46785 0
3.53429 1.8399 0
3.92699 1.8399 0
3.53429 2.46785 0
3.92699 2.46785 0
3.92699 1.21344 0
4.31969 1.21344 0
3.92699 1.8399 0
4.31969 1.8399 0
4.31969 1.21344 0
4.71239 1.21344 0
4.31969 1.8399 0
4.71239 1.8399 0
3.92699 1.8399 0
4.31969 1.8399 0
3.92699 2.46785 0
4.31969 2.46785 0
4.31969 1.8399 0
4.71239 1.8399 0
4.31969 2.46785 0
4.71239 2.46785 0
4.71239 0 0
5.10509 0 0
4.71239 0.585758 0
5.10509 0.585758 0
5.10509 0 0
5.49779 0 0
5.10509 0.585758 0
5.49779 0.585758 0
4.71239 0.585758 0
5.10509 0.585758 0
4.71239 1.21344 0
5.10509 1.21344 0
5.10509 0.585758 0
5.49779 0.585758 0
5.10509 1.21344 0
5.49779 1.21344 0
5.49779 0 0
5.89049 0 0
5.49779 0.585758 0
5.89049 0.585758 0
5.89049 0 0
6.28319 0 0
5.89049 0.585758 0
6.28319 0.585758 0
5.49779 0.585758 0
5.89049 0.585758 0
5.49779 1.21344 0
5.89049 1.21344 0
5.89049 0.585758 0
6.28319 0.585758 0
5.89049 1.21344 0
6.28319 1.21344 0
4.71239 1.21344 0
5.10509 1.21344 0
4.71239 1.8399 0
5.10509 1.8399 0
5.10509 1.21344 0
5.49779 1.21344 0
5.10509 1.8399 0
5.49779 1.8399 0
4.71239 1.8399 0
5.10509 1.8399 0
4.71239 2.46785 0
5.10509 2.46785 0
5.10509 1.8399 0
5.49779 1.8399 0
5.10509 2.46785 0
5.49779 2.46785 0
5.49779 1.21344 0
5.89049 1.21344 0
5.49779 1.8399 0
5.89049 1.8399 0
5.89049 1.21344 0
6.28319 1.21344 0
5.89049 1.8399 0
6.28319 1.8399 0
5.49779 1.8399 0
5.89049 1.8399 0
5.49779 2.46785 0
5.89049 2.46785 0
5.89049 1.8399 0
6.28319 1.8399 0
5.89049 2.46785 0
6.28319 2.46785 0
3.14159 2.46785 0
3.53429 2.46785 0
3.14159 3.0954 0
3.53429 3.0954 0
3.53429 2.46785 0
3.92699 2.46785 0
3.53429 3.0954 0
3.92699 3.0954 0
3.14159 3.0954 0
3.53429 3.0954 0
3.14159 3.72298 0
3.53429 3.72298 0
3.53429 3.0954 0
3.92699 3.0954 0
3.53429 3.72298 0
3.92699 3.72298 0
3.92699 2.46785 0
4.31969 2.46785 0
3.92699 3.0954 0
4.31969 3.0954 0
4.31969 2.46785 0
4.71239 2.46785 0
4.31969 3.0954 0
4.71239 3.0954 0
3.92699 3.0954 0
4.31969 3.0954 0
3.92699 3.72298 0
4.31969 3.72298 0
4.31969 3.0954 0
4.71239 3.0954 0
4.31969 3.72298 0
4.71239 3.72298 0
3.14159 3.72298 0
3.53429 3.72298 0
3.14159 4.35044 0
3.53429 4.35044 0
3.53429 3.72298 0
3.92699 3.72298 0
3.53429 4.35044 0
3.92699 4.35044 0
3.14159 4.35044 0
3.53429 4.35044 0
3.14159 4.97781 0
3.53429 4.97781 0
3.53429 4.35044 0
3.92699 4.35044 0
3.53429 4.97781 0
3.92699 4.97781 0
3.92699 3.72298 0
4.31969 3.72298 0
3.92699 4.35044 0
4.31969 4.35044 0
4.31969 3.72298 0
4.71239 3.72298 0
4.31969 4.35044 0
4.71239 4.35044 0
3.92699 4.35044 0
4.31969 4.35044 0
3.92699 4.97781 0
4.31969 4.97781 0
4.31969 4.35044 0
4.71239 4.35044 0
4.31969 4.97781 0
4.71239 4.97781 0
4.71239 2.46785 0
5.10509 2.46785 0
4.71239 3.0954 0
5.10509 3.0954 0
5.10509 2.46785 0
5.49779 2.46785 0
5.10509 3.0954 0
5.49779 3.0954 0
4.71239 3.0954 0
5.10509 3.0954 0
4.71239 3.72298 0
5.10509 3.72298 0
5.10509 3.0954 0
5.49779 3.0954 0
5.10509 3.72298 0
5.49779 3.72298 0
5.49779 2.46785 0
5.89049 2.46785 0
5.49779 3.0954 0
5.89049 3.0954 0
5.89049 2.46785 0
6.28319 2.46785 0
5.89049 3.0954 0
6.28319 3.0954 0
5.49779 3.0954 0
5.89049 3.0954 0
5.49779 3.72298 0
5.89049 3.72298 0
5.89049 3.0954 0
6.28319 3.0954 0
5.89049 3.72298 0
6.28319 3.72298 0
4.71239 3.72298 0
5.10509 3.72298 0
4.71239 4.35044 0
5.10509 4.35044 0
5.10509 3.72298 0
5.49779 3.72298 0
5.10509 4.35044 0
5.49779 4.35044 0
4.71239 4.35044 0
5.10509 4.35044 0
4.71239 4.97781 0
5.10509 4.97781 0
5.10509 4.35044 0
5.49779 4.35044 0
5.10509 4.97781 0
5.49779 4.97781 0
5.49779 3.72298 0
5.89049 3.72298 0
5.49779 4.35044 0
5.89049 4.35044 0
5.89049 3.72298 0
6.28319 3.72298 0
5.89049 4.35044 0
6.28319 4.35044 0
5.49779 4.35044 0
5.89049 4.35044 0
5.49779 4.97781 0
5.89049 4.97781 0
5.89049 4.35044 0
6.28319 4.35044 0
5.89049 4.97781 0
6.28319 4.97781 0
0 4.97781 0
0.392699 4.97781 0
0 5.60505 0
0.392699 5.60505 0
0.392699 4.97781 0
0.785398 4.97781 0
0.392699 5.60505 0
0.785398 5.60505 0
0 5.60505 0
0.392699 5.60505 0
0 6.23218 0
0.392699 6.23218 0
0.392699 5.60505 0
0.785398 5.60505 0
0.392699 6.23218 0
0.785398 6.23218 0
0.785398 4.97781 0
1.1781 4.97781 0
0.785398 5.60505 0
1.1781 5.60505 0
1.1781 4.97781 0
1.5708 4.97781 0
1.1781 5.60505 0
1.5708 5.60505 0
0.785398 5.60505 0
1.1781 5.60505 0
0.785398 6.23218 0
1.1781 6.23218 0
1.1781 5.60505 0
1.5708 5.60505 0
1.1781 6.23218 0
1.5708 6.23218 0
0 6.23218 0
0.392699 6.23218 0
0 6.85923 0
0.392699 6.85923 0
0.392699 6.23218 0
0.785398 6.23218 0
0.392699 6.85923 0
0.785398 6.85923 0
0 6.85923 0
0.392699 6.85923 0
0 7.48629 0
0.392699 7.48629 0
0.392699 6.85923 0
0.785398 6.85923 0
0.392699 7.48629 0
0.785398 7.48629 0
0.785398 6.23218 0
1.1781 6.23218 0
0.785398 6.85923 0
1.1781 6.85923 0
1.1781 6.23218 0
1.5708 6.23218 0
1.1781 6.85923 0
1.5708 6.85923 0
0.785398 6.85923 0
1.1781 6.85923 0
[...]
POINT_DATA 5120
VECTORS uf double
0 1 0
-2.14124e-13 1 0
0 1.00263 0
-2.14911e-13 1.00263 0
-2.14124e-13 1 0
2.11668e-14 1 0
-2.14911e-13 1.00263 0
2.94243e-14 1.00263 0
0 1.00263 0
1.98688e-13 1.00263 0
0 1.00399 0
1.92665e-13 1.00399 0
1.98688e-13 1.00263 0
-7.01632e-14 1.00263 0
1.92665e-13 1.00399 0
-6.51428e-14 1.00399 0
2.11668e-14 1 0
3.29002e-13 1 0
2.94243e-14 1.00263 0
3.14236e-13 1.00263 0
3.29002e-13 1 0
6.24226e-14 1 0
3.14236e-13 1.00263 0
5.66352e-14 1.00263 0
-7.01632e-14 1.00263 0
-3.0859e-13 1.00263 0
-6.51428e-14 1.00399 0
-2.93878e-13 1.00399 0
-3.0859e-13 1.00263 0
-5.74052e-14 1.00263 0
-2.93878e-13 1.00399 0
-5.15683e-14 1.00399 0
0 1.00399 0
-2.83129e-14 1.00399 0
0 1.00564 0
-3.13584e-14 1.00564 0
-2.83129e-14 1.00399 0
1.37584e-13 1.00399 0
-3.13584e-14 1.00564 0
1.4305e-13 1.00564 0
0 1.00564 0
4.52423e-14 1.00564 0
0 1.00716 0
4.15564e-14 1.00716 0
4.52423e-14 1.00564 0
-8.40966e-14 1.00564 0
4.15564e-14 1.00716 0
-7.74362e-14 1.00716 0
1.37584e-13 1.00399 0
-2.76926e-14 1.00399 0
1.4305e-13 1.00564 0
4.51536e-15 1.00564 0
-2.76926e-14 1.00399 0
-1.40801e-14 1.00399 0
4.51536e-15 1.00564 0
1.16206e-14 1.00564 0
-8.40966e-14 1.00564 0
8.12062e-14 1.00564 0
-7.74362e-14 1.00716 0
9.09377e-14 1.00716 0
8.12062e-14 1.00564 0
-5.18353e-14 1.00564 0
9.09377e-14 1.00716 0
-4.00134e-14 1.00716 0
6.24226e-14 1 0
-2.63357e-14 1 0
5.66352e-14 1.00263 0
-1.84282e-14 1.00263 0
-2.63357e-14 1 0
-7.77443e-15 1 0
-1.84282e-14 1.00263 0
1.45257e-14 1.00263 0
-5.74052e-14 1.00263 0
2.1903e-14 1.00263 0
-5.15683e-14 1.00399 0
2.62078e-14 1.00399 0
2.1903e-14 1.00263 0
-8.216e-15 1.00263 0
2.62078e-14 1.00399 0
-6.7953e-17 1.00399 0
-7.77443e-15 1 0
8.26811e-17 1 0
1.45257e-14 1.00263 0
4.28847e-15 1.00263 0
8.26811e-17 1 0
-5.19673e-16 1 0
4.28847e-15 1.00263 0
3.15061e-15 1.00263 0
-8.216e-15 1.00263 0
-4.03449e-15 1.00263 0
-6.7953e-17 1.00399 0
2.57901e-15 1.00399 0
-4.03449e-15 1.00263 0
-3.26261e-15 1.00263 0
2.57901e-15 1.00399 0
6.93654e-15 1.00399 0
-1.40801e-14 1.00399 0
1.01429e-13 1.00399 0
1.16206e-14 1.00564 0
9.53169e-14 1.00564 0
1.01429e-13 1.00399 0
1.23855e-14 1.00399 0
9.53169e-14 1.00564 0
-8.45513e-15 1.00564 0
-5.18353e-14 1.00564 0
-8.26856e-14 1.00564 0
-4.00134e-14 1.00716 0
-8.49408e-14 1.00716 0
-8.26856e-14 1.00564 0
3.18102e-15 1.00564 0
-8.49408e-14 1.00716 0
-1.10946e-16 1.00716 0
1.23855e-14 1.00399 0
-6.6879e-16 1.00399 0
-8.45513e-15 1.00564 0
3.147e-15 1.00564 0
-6.6879e-16 1.00399 0
-4.92175e-16 1.00399 0
3.147e-15 1.00564 0
1.03523e-14 1.00564 0
3.18102e-15 1.00564 0
3.59528e-15 1.00564 0
-1.10946e-16 1.00716 0
-1.41926e-16 1.00716 0
3.59528e-15 1.00564 0
-3.78635e-15 1.00564 0
-1.41926e-16 1.00716 0
-5.20098e-16 1.00716 0
0 1.00716 0
-1.09546e-13 1.00716 0
0 1.00868 0
-1.07405e-13 1.00868 0
-1.09546e-13 1.00716 0
1.84774e-15 1.00716 0
-1.07405e-13 1.00868 0
2.76828e-15 1.00868 0
0 1.00868 0
1.19538e-13 1.00868 0
0 1.01016 0
1.26549e-13 1.01016 0
1.19538e-13 1.00868 0
5.43214e-14 1.00868 0
1.26549e-13 1.01016 0
5.38586e-14 1.01016 0
1.84774e-15 1.00716 0
-1.09072e-13 1.00716 0
2.76828e-15 1.00868 0
-8.34839e-14 1.00868 0
-1.09072e-13 1.00716 0
5.50868e-14 1.00716 0
-8.34839e-14 1.00868 0
4.78246e-14 1.00868 0
5.43214e-14 1.00868 0
8.10928e-14 1.00868 0
5.38586e-14 1.01016 0
8.58237e-14 1.01016 0
8.10928e-14 1.00868 0
-7.19315e-14 1.00868 0
8.58237e-14 1.01016 0
-6.3479e-14 1.01016 0
0 1.01016 0
3.18901e-15 1.01016 0
0 1.01162 0
-4.07788e-15 1.01162 0
3.18901e-15 1.01016 0
-2.21991e-13 1.01016 0
-4.07788e-15 1.01162 0
-2.16745e-13 1.01162 0
0 1.01162 0
1.49006e-14 1.01162 0
0 1.01306 0
7.81186e-15 1.01306 0
1.49006e-14 1.01162 0
2.14127e-13 1.01162 0
7.81186e-15 1.01306 0
2.08561e-13 1.01306 0
-2.21991e-13 1.01016 0
-8.14223e-14 1.01016 0
-2.16745e-13 1.01162 0
-7.51924e-14 1.01162 0
-8.14223e-14 1.01016 0
1.50095e-13 1.01016 0
-7.51924e-14 1.01162 0
1.45244e-13 1.01162 0
2.14127e-13 1.01162 0
3.09016e-14 1.01162 0
2.08561e-13 1.01306 0
2.97566e-14 1.01306 0
3.09016e-14 1.01162 0
-1.50332e-13 1.01162 0
2.97566e-14 1.01306 0
-1.47455e-13 1.01306 0
5.50868e-14 1.00716 0
4.26572e-14 1.00716 0
4.78246e-14 1.00868 0
4.44623e-14 1.00868 0
4.26572e-14 1.00716 0
-4.7407e-15 1.00716 0
4.44623e-14 1.00868 0
5.51111e-15 1.00868 0
-7.19315e-14 1.00868 0
-6.03202e-14 1.00868 0
-6.3479e-14 1.01016 0
-5.06911e-14 1.01016 0
-6.03202e-14 1.00868 0
-3.38478e-14 1.00868 0
-5.06911e-14 1.01016 0
-2.07548e-14 1.01016 0
-4.7407e-15 1.00716 0
-4.18117e-15 1.00716 0
5.51111e-15 1.00868 0
1.49838e-15 1.00868 0
-4.18117e-15 1.00716 0
-6.15525e-15 1.00716 0
1.49838e-15 1.00868 0
7.00758e-15 1.00868 0
-3.38478e-14 1.00868 0
-6.36585e-15 1.00868 0
-2.07548e-14 1.01016 0
7.33188e-15 1.01016 0
-6.36585e-15 1.00868 0
4.88502e-14 1.00868 0
7.33188e-15 1.01016 0
5.13062e-14 1.01016 0
1.50095e-13 1.01016 0
-2.37492e-14 1.01016 0
1.45244e-13 1.01162 0
-1.58814e-14 1.01162 0
-2.37492e-14 1.01016 0
2.51086e-14 1.01016 0
-1.58814e-14 1.01162 0
3.04202e-14 1.01162 0
-1.50332e-13 1.01162 0
-4.56789e-14 1.01162 0
-1.47455e-13 1.01306 0
-3.98204e-14 1.01306 0
-4.56789e-14 1.01162 0
-1.16139e-14 1.01162 0
-3.98204e-14 1.01306 0
-2.10471e-15 1.01306 0
2.51086e-14 1.01016 0
-7.93923e-15 1.01016 0
3.04202e-14 1.01162 0
-6.18386e-15 1.01162 0
-7.93923e-15 1.01016 0
-5.79908e-14 1.01016 0
-6.18386e-15 1.01162 0
-4.06024e-14 1.01162 0
-1.16139e-14 1.01162 0
1.83476e-14 1.01162 0
-2.10471e-15 1.01306 0
2.24548e-14 1.01306 0
1.83476e-14 1.01162 0
-1.14362e-14 1.01162 0
2.24548e-14 1.01306 0
2.53299e-15 1.01306 0
-5.19673e-16 1 0
-3.65513e-15 1 0
3.15061e-15 1.00263 0
1.48562e-14 1.00263 0
-3.65513e-15 1 0
4.56606e-15 1 0
1.48562e-14 1.00263 0
4.96925e-15 1.00263 0
-3.26261e-15 1.00263 0
-2.76165e-16 1.00263 0
6.93654e-15 1.00399 0
6.71799e-15 1.00399 0
-2.76165e-16 1.00263 0
-6.28455e-15 1.00263 0
6.71799e-15 1.00399 0
9.68305e-15 1.00399 0
4.56606e-15 1 0
4.16718e-15 1 0
4.96925e-15 1.00263 0
5.50108e-16 1.00263 0
4.16718e-15 1 0
-1.62059e-15 1 0
5.50108e-16 1.00263 0
6.82121e-15 1.00263 0
-6.28455e-15 1.00263 0
-3.96347e-15 1.00263 0
9.68305e-15 1.00399 0
7.18455e-15 1.00399 0
-3.96347e-15 1.00263 0
-1.31816e-15 1.00263 0
7.18455e-15 1.00399 0
9.20532e-15 1.00399 0
-4.92175e-16 1.00399 0
-5.54323e-15 1.00399 0
1.03523e-14 1.00564 0
9.35762e-15 1.00564 0
-5.54323e-15 1.00399 0
-8.35641e-15 1.00399 0
9.35762e-15 1.00564 0
6.51446e-15 1.00564 0
-3.78635e-15 1.00564 0
3.07497e-16 1.00564 0
-5.20098e-16 1.00716 0
6.18388e-15 1.00716 0
3.07497e-16 1.00564 0
1.56402e-14 1.00564 0
6.18388e-15 1.00716 0
8.03738e-15 1.00716 0
-8.35641e-15 1.00399 0
1.57995e-14 1.00399 0
6.51446e-15 1.00564 0
-4.1355e-15 1.00564 0
1.57995e-14 1.00399 0
-2.52056e-15 1.00399 0
-4.1355e-15 1.00564 0
1.16689e-14 1.00564 0
1.56402e-14 1.00564 0
-1.19083e-14 1.00564 0
8.03738e-15 1.00716 0
1.0187e-14 1.00716 0
-1.19083e-14 1.00564 0
3.54032e-15 1.00564 0
1.0187e-14 1.00716 0
1.02093e-14 1.00716 0
-1.62059e-15 1 0
1.31595e-15 1 0
6.82121e-15 1.00263 0
3.54364e-15 1.00263 0
1.31595e-15 1 0
1.23716e-16 1 0
3.54364e-15 1.00263 0
7.37756e-15 1.00263 0
-1.31816e-15 1.00263 0
5.6176e-15 1.00263 0
9.20532e-15 1.00399 0
-5.85009e-16 1.00399 0
5.6176e-15 1.00263 0
-7.94798e-15 1.00263 0
-5.85009e-16 1.00399 0
1.57221e-14 1.00399 0
1.23716e-16 1 0
1.25091e-15 1 0
7.37756e-15 1.00263 0
3.1144e-15 1.00263 0
1.25091e-15 1 0
-1.55943e-15 1 0
3.1144e-15 1.00263 0
9.14041e-15 1.00263 0
-7.94798e-15 1.00263 0
1.13102e-14 1.00263 0
1.57221e-14 1.00399 0
3.18119e-15 1.00399 0
1.13102e-14 1.00263 0
-4.61958e-15 1.00263 0
3.18119e-15 1.00399 0
4.40991e-15 1.00399 0
-2.52056e-15 1.00399 0
-1.05745e-14 1.00399 0
1.16689e-14 1.00564 0
1.22223e-14 1.00564 0
-1.05745e-14 1.00399 0
4.0399e-15 1.00399 0
1.22223e-14 1.00564 0
4.93062e-15 1.00564 0
3.54032e-15 1.00564 0
4.18664e-15 1.00564 0
1.02093e-14 1.00716 0
6.70473e-15 1.00716 0
4.18664e-15 1.00564 0
-1.49893e-15 1.00564 0
6.70473e-15 1.00716 0
3.15863e-15 1.00716 0
4.0399e-15 1.00399 0
-5.73081e-15 1.00399 0
4.93062e-15 1.00564 0
5.27354e-15 1.00564 0
-5.73081e-15 1.00399 0
-4.79435e-15 1.00399 0
5.27354e-15 1.00564 0
7.38295e-15 1.00564 0
-1.49893e-15 1.00564 0
6.84494e-15 1.00564 0
3.15863e-15 1.00716 0
3.23271e-15 1.00716 0
6.84494e-15 1.00564 0
-1.01831e-15 1.00564 0
3.23271e-15 1.00716 0
4.6521e-15 1.00716 0
-6.15525e-15 1.00716 0
-5.22696e-15 1.00716 0
7.00758e-15 1.00868 0
5.35947e-15 1.00868 0
-5.22696e-15 1.00716 0
-1.09299e-14 1.00716 0
5.35947e-15 1.00868 0
-1.01072e-14 1.00868 0
4.88502e-14 1.00868 0
-1.4881e-14 1.00868 0
5.13062e-14 1.01016 0
-1.17457e-15 1.01016 0
-1.4881e-14 1.00868 0
2.7666e-15 1.00868 0
-1.17457e-15 1.01016 0
5.83138e-15 1.01016 0
-1.09299e-14 1.00716 0
3.16674e-15 1.00716 0
-1.01072e-14 1.00868 0
4.16454e-15 1.00868 0
3.16674e-15 1.00716 0
-1.27834e-14 1.00716 0
4.16454e-15 1.00868 0
1.34767e-14 1.00868 0
2.7666e-15 1.00868 0
-3.19357e-15 1.00868 0
5.83138e-15 1.01016 0
4.54446e-15 1.01016 0
-3.19357e-15 1.00868 0
-7.51948e-15 1.00868 0
4.54446e-15 1.01016 0
5.78965e-15 1.01016 0
-5.79908e-14 1.01016 0
1.47457e-14 1.01016 0
-4.06024e-14 1.01162 0
1.52432e-14 1.01162 0
1.47457e-14 1.01016 0
-7.81223e-15 1.01016 0
1.52432e-14 1.01162 0
-3.78199e-15 1.01162 0
-1.14362e-14 1.01162 0
-1.48766e-14 1.01162 0
2.53299e-15 1.01306 0
-6.60589e-15 1.01306 0
-1.48766e-14 1.01162 0
3.32929e-14 1.01162 0
-6.60589e-15 1.01306 0
3.7032e-14 1.01306 0
-7.81223e-15 1.01016 0
-5.86891e-15 1.01016 0
-3.78199e-15 1.01162 0
6.32224e-15 1.01162 0
-5.86891e-15 1.01016 0
-3.45294e-15 1.01016 0
6.32224e-15 1.01162 0
4.62917e-15 1.01162 0
3.32929e-14 1.01162 0
1.62766e-15 1.01162 0
3.7032e-14 1.01306 0
6.49147e-15 1.01306 0
1.62766e-15 1.01162 0
-5.74862e-15 1.01162 0
6.49147e-15 1.01306 0
2.36878e-15 1.01306 0
-1.27834e-14 1.00716 0
1.53315e-15 1.00716 0
1.34767e-14 1.00868 0
-7.91804e-16 1.00868 0
1.53315e-15 1.00716 0
-2.06978e-15 1.00716 0
-7.91804e-16 1.00868 0
6.89816e-15 1.00868 0
-7.51948e-15 1.00868 0
-7.97537e-15 1.00868 0
5.78965e-15 1.01016 0
5.87066e-15 1.01016 0
-7.97537e-15 1.00868 0
2.61161e-16 1.00868 0
5.87066e-15 1.01016 0
-4.68689e-15 1.01016 0
-2.06978e-15 1.00716 0
2.74591e-15 1.00716 0
6.89816e-15 1.00868 0
4.70224e-15 1.00868 0
2.74591e-15 1.00716 0
8.61157e-15 1.00716 0
4.70224e-15 1.00868 0
-1.94876e-15 1.00868 0
2.61161e-16 1.00868 0
-7.02803e-15 1.00868 0
-4.68689e-15 1.01016 0
6.067e-15 1.01016 0
-7.02803e-15 1.00868 0
-6.34335e-15 1.00868 0
6.067e-15 1.01016 0
8.51508e-15 1.01016 0
-3.45294e-15 1.01016 0
-2.14211e-15 1.01016 0
4.62917e-15 1.01162 0
4.00226e-15 1.01162 0
-2.14211e-15 1.01016 0
-6.09312e-15 1.01016 0
4.00226e-15 1.01162 0
6.03556e-15 1.01162 0
-5.74862e-15 1.01162 0
-1.4512e-15 1.01162 0
2.36878e-15 1.01306 0
-1.53798e-15 1.01306 0
-1.4512e-15 1.01162 0
-2.48403e-15 1.01162 0
-1.53798e-15 1.01306 0
3.07514e-15 1.01306 0
-6.09312e-15 1.01016 0
9.1398e-16 1.01016 0
6.03556e-15 1.01162 0
2.92833e-15 1.01162 0
9.1398e-16 1.01016 0
-3.95881e-15 1.01016 0
2.92833e-15 1.01162 0
5.62839e-15 1.01162 0
-2.48403e-15 1.01162 0
-3.99839e-15 1.01162 0
3.07514e-15 1.01306 0
-6.73385e-16 1.01306 0
-3.99839e-15 1.01162 0
2.94947e-15 1.01162 0
-6.73385e-16 1.01306 0
-3.52975e-16 1.01306 0
0 1.01306 0
-8.0384e-14 1.01306 0
0 1.01448 0
-7.00603e-14 1.01448 0
-8.0384e-14 1.01306 0
-1.39025e-13 1.01306 0
-7.00603e-14 1.01448 0
-1.36583e-13 1.01448 0
0 1.01448 0
8.34463e-14 1.01448 0
0 1.01589 0
8.35933e-14 1.01589 0
8.34463e-14 1.01448 0
1.39286e-13 1.01448 0
8.35933e-14 1.01589 0
1.43681e-13 1.01589 0
-1.39025e-13 1.01306 0
5.28395e-14 1.01306 0
-1.36583e-13 1.01448 0
5.07219e-14 1.01448 0
5.28395e-14 1.01306 0
8.12215e-14 1.01306 0
5.07219e-14 1.01448 0
7.78532e-14 1.01448 0
1.39286e-13 1.01448 0
-1.52431e-13 1.01448 0
1.43681e-13 1.01589 0
-1.41702e-13 1.01589 0
-1.52431e-13 1.01448 0
-3.61296e-14 1.01448 0
-1.41702e-13 1.01589 0
-3.53715e-14 1.01589 0
0 1.01589 0
-7.74341e-14 1.01589 0
0 1.0173 0
-7.31733e-14 1.0173 0
-7.74341e-14 1.01589 0
-9.50598e-14 1.01589 0
-7.31733e-14 1.0173 0
-9.36624e-14 1.0173 0
0 1.0173 0
5.1281e-14 1.0173 0
0 1.01872 0
5.00857e-14 1.01872 0
5.1281e-14 1.0173 0
4.56452e-14 1.0173 0
5.00857e-14 1.01872 0
5.10793e-14 1.01872 0
-9.50598e-14 1.01589 0
1.1693e-13 1.01589 0
-9.36624e-14 1.0173 0
1.14499e-13 1.0173 0
1.1693e-13 1.01589 0
4.51604e-14 1.01589 0
1.14499e-13 1.0173 0
5.12569e-14 1.0173 0
4.56452e-14 1.0173 0
-5.82259e-14 1.0173 0
5.10793e-14 1.01872 0
-5.04751e-14 1.01872 0
-5.82259e-14 1.0173 0
-1.66836e-14 1.0173 0
-5.04751e-14 1.01872 0
-1.90269e-14 1.01872 0
8.12215e-14 1.01306 0
8.20426e-14 1.01306 0
7.78532e-14 1.01448 0
9.10741e-14 1.01448 0
8.20426e-14 1.01306 0
9.67668e-15 1.01306 0
9.10741e-14 1.01448 0
1.42344e-14 1.01448 0
-3.61296e-14 1.01448 0
-2.04101e-14 1.01448 0
-3.53715e-14 1.01589 0
-1.7728e-14 1.01589 0
-2.04101e-14 1.01448 0
-1.15727e-14 1.01448 0
-1.7728e-14 1.01589 0
-4.87727e-15 1.01589 0
9.67668e-15 1.01306 0
-1.78431e-14 1.01306 0
1.42344e-14 1.01448 0
-9.77125e-15 1.01448 0
-1.78431e-14 1.01306 0
6.08476e-15 1.01306 0
-9.77125e-15 1.01448 0
1.34658e-14 1.01448 0
-1.15727e-14 1.01448 0
-1.65273e-15 1.01448 0
-4.87727e-15 1.01589 0
1.08694e-14 1.01589 0
-1.65273e-15 1.01448 0
-9.47327e-15 1.01448 0
1.08694e-14 1.01589 0
-1.01701e-15 1.01589 0
4.51604e-14 1.01589 0
6.96238e-15 1.01589 0
5.12569e-14 1.0173 0
6.72604e-15 1.0173 0
6.96238e-15 1.01589 0
3.94455e-15 1.01589 0
6.72604e-15 1.0173 0
1.99517e-15 1.0173 0
-1.66836e-14 1.0173 0
-1.51573e-14 1.0173 0
-1.90269e-14 1.01872 0
-9.48786e-15 1.01872 0
-1.51573e-14 1.0173 0
-3.70855e-15 1.0173 0
-9.48786e-15 1.01872 0
2.02456e-15 1.01872 0
3.94455e-15 1.01589 0
-3.7995e-15 1.01589 0
1.99517e-15 1.0173 0
6.26557e-15 1.0173 0
-3.7995e-15 1.01589 0
-3.57091e-15 1.01589 0
6.26557e-15 1.0173 0
4.13761e-15 1.0173 0
-3.70855e-15 1.0173 0
-2.62237e-15 1.0173 0
2.02456e-15 1.01872 0
3.93173e-15 1.01872 0
-2.62237e-15 1.0173 0
-2.68571e-15 1.0173 0
3.93173e-15 1.01872 0
2.42106e-15 1.01872 0
0 1.01872 0
1.93978e-14 1.01872 0
0 1.02016 0
2.1405e-14 1.02016 0
1.93978e-14 1.01872 0
-3.98087e-14 1.01872 0
2.1405e-14 1.02016 0
-3.66528e-14 1.02016 0
0 1.02016 0
-4.12514e-14 1.02016 0
0 1.02155 0
-3.71867e-14 1.02155 0
-4.12514e-14 1.02016 0
3.50936e-14 1.02016 0
-3.71867e-14 1.02155 0
3.56421e-14 1.02155 0
-3.98087e-14 1.01872 0
3.89168e-15 1.01872 0
-3.66528e-14 1.02016 0
8.73178e-15 1.02016 0
3.89168e-15 1.01872 0
-1.65924e-14 1.01872 0
8.73178e-15 1.02016 0
-1.40249e-14 1.02016 0
3.50936e-14 1.02016 0
-1.23073e-14 1.02016 0
3.56421e-14 1.02155 0
-1.2385e-14 1.02155 0
-1.23073e-14 1.02016 0
-7.85611e-15 1.02016 0
-1.2385e-14 1.02155 0
-6.43513e-15 1.02155 0
0 1.02155 0
6.18435e-15 1.02155 0
0 1.02277 0
3.03222e-15 1.02277 0
6.18435e-15 1.02155 0
-3.71549e-14 1.02155 0
3.03222e-15 1.02277 0
-3.51276e-14 1.02277 0
0 1.02277 0
5.07886e-15 1.02277 0
0 1.02334 0
2.61939e-15 1.02334 0
5.07886e-15 1.02277 0
-6.10876e-15 1.02277 0
2.61939e-15 1.02334 0
5.235e-15 1.02334 0
-3.71549e-14 1.02155 0
1.24995e-14 1.02155 0
-3.51276e-14 1.02277 0
1.18873e-14 1.02277 0
1.24995e-14 1.02155 0
5.8828e-15 1.02155 0
1.18873e-14 1.02277 0
6.03242e-15 1.02277 0
-6.10876e-15 1.02277 0
-9.9878e-15 1.02277 0
5.235e-15 1.02334 0
-2.03044e-14 1.02334 0
-9.9878e-15 1.02277 0
-7.10601e-16 1.02277 0
-2.03044e-14 1.02334 0
2.13223e-14 1.02334 0
-1.65924e-14 1.01872 0
-1.92917e-14 1.01872 0
-1.40249e-14 1.02016 0
-9.35794e-15 1.02016 0
-1.92917e-14 1.01872 0
-1.26805e-15 1.01872 0
-9.35794e-15 1.02016 0
-1.36638e-16 1.02016 0
-7.85611e-15 1.02016 0
1.15711e-14 1.02016 0
-6.43513e-15 1.02155 0
1.35597e-14 1.02155 0
1.15711e-14 1.02016 0
-1.96598e-15 1.02016 0
1.35597e-14 1.02155 0
7.41334e-16 1.02155 0
-1.26805e-15 1.01872 0
-2.646e-15 1.01872 0
-1.36638e-16 1.02016 0
2.67138e-15 1.02016 0
-2.646e-15 1.01872 0
-5.51635e-15 1.01872 0
2.67138e-15 1.02016 0
4.27321e-15 1.02016 0
-1.96598e-15 1.02016 0
-6.98858e-15 1.02016 0
7.41334e-16 1.02155 0
3.53612e-15 1.02155 0
-6.98858e-15 1.02016 0
-2.96114e-15 1.02016 0
3.53612e-15 1.02155 0
1.47222e-15 1.02155 0
5.8828e-15 1.02155 0
-1.88593e-14 1.02155 0
6.03242e-15 1.02277 0
-1.44444e-14 1.02277 0
-1.88593e-14 1.02155 0
-2.02735e-15 1.02155 0
-1.44444e-14 1.02277 0
2.40109e-15 1.02277 0
-7.10601e-16 1.02277 0
6.67806e-16 1.02277 0
2.13223e-14 1.02334 0
6.68949e-15 1.02334 0
6.67806e-16 1.02277 0
-2.65157e-15 1.02277 0
6.68949e-15 1.02334 0
-4.76404e-16 1.02334 0
-2.02735e-15 1.02155 0
-2.92585e-15 1.02155 0
2.40109e-15 1.02277 0
2.30306e-15 1.02277 0
-2.92585e-15 1.02155 0
8.0802e-16 1.02155 0
2.30306e-15 1.02277 0
6.15771e-16 1.02277 0
-2.65157e-15 1.02277 0
-1.38413e-15 1.02277 0
-4.76404e-16 1.02334 0
8.88429e-15 1.02334 0
-1.38413e-15 1.02277 0
9.06333e-16 1.02277 0
8.88429e-15 1.02334 0
-2.32303e-14 1.02334 0
6.08476e-15 1.01306 0
1.53055e-14 1.01306 0
1.34658e-14 1.01448 0
1.6455e-14 1.01448 0
1.53055e-14 1.01306 0
-2.2864e-14 1.01306 0
1.6455e-14 1.01448 0
-2.46444e-14 1.01448 0
-9.47327e-15 1.01448 0
-6.19715e-15 1.01448 0
-1.01701e-15 1.01589 0
1.43491e-15 1.01589 0
-6.19715e-15 1.01448 0
-7.19049e-16 1.01448 0
1.43491e-15 1.01589 0
-5.38663e-16 1.01589 0
-2.2864e-14 1.01306 0
-3.96829e-15 1.01306 0
-2.46444e-14 1.01448 0
3.49654e-15 1.01448 0
-3.96829e-15 1.01306 0
1.96663e-15 1.01306 0
3.49654e-15 1.01448 0
3.04156e-15 1.01448 0
-7.19049e-16 1.01448 0
-2.93896e-15 1.01448 0
-5.38663e-16 1.01589 0
3.44194e-15 1.01589 0
-2.93896e-15 1.01448 0
-1.4933e-15 1.01448 0
3.44194e-15 1.01589 0
5.57465e-15 1.01589 0
-3.57091e-15 1.01589 0
-4.96801e-15 1.01589 0
4.13761e-15 1.0173 0
7.06765e-15 1.0173 0
-4.96801e-15 1.01589 0
-5.38715e-15 1.01589 0
7.06765e-15 1.0173 0
6.23618e-15 1.0173 0
-2.68571e-15 1.0173 0
-3.71224e-15 1.0173 0
2.42106e-15 1.01872 0
5.38343e-15 1.01872 0
-3.71224e-15 1.0173 0
3.18864e-16 1.0173 0
5.38343e-15 1.01872 0
2.77128e-15 1.01872 0
-5.38715e-15 1.01589 0
-4.23353e-16 1.01589 0
6.23618e-15 1.0173 0
3.50595e-15 1.0173 0
-4.23353e-16 1.01589 0
-3.95929e-15 1.01589 0
3.50595e-15 1.0173 0
3.70675e-15 1.0173 0
3.18864e-16 1.0173 0
-6.81798e-15 1.0173 0
2.77128e-15 1.01872 0
6.64764e-15 1.01872 0
-6.81798e-15 1.0173 0
3.62468e-16 1.0173 0
6.64764e-15 1.01872 0
2.84888e-15 1.01872 0
1.96663e-15 1.01306 0
1.18403e-15 1.01306 0
3.04156e-15 1.01448 0
1.25531e-15 1.01448 0
1.18403e-15 1.01306 0
7.26801e-16 1.01306 0
1.25531e-15 1.01448 0
5.19685e-15 1.01448 0
-1.4933e-15 1.01448 0
1.31213e-15 1.01448 0
5.57465e-15 1.01589 0
-5.83919e-16 1.01589 0
1.31213e-15 1.01448 0
-3.50268e-15 1.01448 0
-5.83919e-16 1.01589 0
2.54071e-15 1.01589 0
7.26801e-16 1.01306 0
-3.24169e-15 1.01306 0
5.19685e-15 1.01448 0
1.55097e-15 1.01448 0
-3.24169e-15 1.01306 0
-4.00138e-15 1.01306 0
1.55097e-15 1.01448 0
3.00296e-15 1.01448 0
-3.50268e-15 1.01448 0
2.63879e-16 1.01448 0
2.54071e-15 1.01589 0
1.50588e-15 1.01589 0
2.63879e-16 1.01448 0
-2.30515e-15 1.01448 0
1.50588e-15 1.01589 0
5.95806e-15 1.01589 0
-3.95929e-15 1.01589 0
-1.8264e-15 1.01589 0
3.70675e-15 1.0173 0
3.92011e-15 1.0173 0
-1.8264e-15 1.01589 0
8.40423e-16 1.01589 0
3.92011e-15 1.0173 0
3.90493e-15 1.0173 0
3.62468e-16 1.0173 0
-1.36357e-16 1.0173 0
2.84888e-15 1.01872 0
1.93772e-15 1.01872 0
-1.36357e-16 1.0173 0
-4.76226e-15 1.0173 0
1.93772e-15 1.01872 0
4.5807e-15 1.01872 0
8.40423e-16 1.01589 0
2.52243e-15 1.01589 0
3.90493e-15 1.0173 0
3.66661e-15 1.0173 0
2.52243e-15 1.01589 0
-3.02026e-15 1.01589 0
3.66661e-15 1.0173 0
8.37686e-15 1.0173 0
-4.76226e-15 1.0173 0
-3.80711e-15 1.0173 0
4.5807e-15 1.01872 0
-7.94552e-16 1.01872 0
-3.80711e-15 1.0173 0
4.19424e-15 1.0173 0
-7.94552e-16 1.01872 0
-1.01965e-15 1.01872 0
-5.51635e-15 1.01872 0
-1.01072e-14 1.01872 0
4.27321e-15 1.02016 0
2.21265e-15 1.02016 0
-1.01072e-14 1.01872 0
-3.0004e-15 1.01872 0
2.21265e-15 1.02016 0
-1.48548e-16 1.02016 0
-2.96114e-15 1.02016 0
-4.83489e-16 1.02016 0
1.47222e-15 1.02155 0
2.2409e-15 1.02155 0
-4.83489e-16 1.02016 0
-1.26289e-15 1.02016 0
2.2409e-15 1.02155 0
1.92855e-15 1.02155 0
-3.0004e-15 1.01872 0
3.25854e-15 1.01872 0
-1.48548e-16 1.02016 0
5.0588e-16 1.02016 0
3.25854e-15 1.01872 0
-3.57231e-15 1.01872 0
5.0588e-16 1.02016 0