# vtk DataFile Version 3.0
#This file was generated by the deal.II library on 2018/10/12 at 1:33:00
ASCII
DATASET UNSTRUCTURED_GRID

POINTS 5120 double
0 0 0
0.392699 0 0
0 0.592424 0
0.392699 0.592424 0
0.392699 0 0
0.785398 0 0
0.392699 0.592424 0
0.785398 0.592424 0
0 0.592424 0
0.392699 0.592424 0
0 1.21973 0
0.392699 1.21973 0
0.392699 0.592424 0
0.785398 0.592424 0
0.392699 1.21973 0
0.785398 1.21973 0
0.785398 0 0
1.1781 0 0
0.785398 0.592424 0
1.1781 0.592424 0
1.1781 0 0
1.5708 0 0
1.1781 0.592424 0
1.5708 0.592424 0
0.785398 0.592424 0
1.1781 0.592424 0
0.785398 1.21973 0
1.1781 1.21973 0
1.1781 0.592424 0
1.5708 0.592424 0
1.1781 1.21973 0
1.5708 1.21973 0
0 1.21973 0
0.392699 1.21973 0
0 1.84593 0
0.392699 1.84593 0
0.392699 1.21973 0
0.785398 1.21973 0
0.392699 1.84593 0
0.785398 1.84593 0
0 1.84593 0
0.392699 1.84593 0
0 2.47335 0
0.392699 2.47335 0
0.392699 1.84593 0
0.785398 1.84593 0
0.392699 2.47335 0
0.785398 2.47335 0
0.785398 1.21973 0
1.1781 1.21973 0
0.785398 1.84593 0
1.1781 1.84593 0
1.1781 1.21973 0
1.5708 1.21973 0
1.1781 1.84593 0
1.5708 1.84593 0
0.785398 1.84593 0
1.1781 1.84593 0
0.785398 2.47335 0
1.1781 2.47335 0
1.1781 1.84593 0
1.5708 1.84593 0
1.1781 2.47335 0
1.5708 2.47335 0
1.5708 0 0
1.9635 0 0
1.5708 0.592424 0
1.9635 0.592424 0
1.9635 0 0
2.35619 0 0
1.9635 0.592424 0
2.35619 0.592424 0
1.5708 0.592424 0
1.9635 0.592424 0
1.5708 1.21973 0
1.9635 1.21973 0
1.9635 0.592424 0
2.35619 0.592424 0
1.9635 1.21973 0
2.35619 1.21973 0
2.35619 0 0
2.74889 0 0
2.35619 0.592424 0
2.74889 0.592424 0
2.74889 0 0
3.14159 0 0
2.74889 0.592424 0
3.14159 0.592424 0
2.35619 0.592424 0
2.74889 0.592424 0
2.35619 1.21973 0
2.74889 1.21973 0
2.74889 0.592424 0
3.14159 0.592424 0
2.74889 1.21973 0
3.14159 1.21973 0
1.5708 1.21973 0
1.9635 1.21973 0
1.5708 1.84593 0
1.9635 1.84593 0
1.9635 1.21973 0
2.35619 1.21973 0
1.9635 1.84593 0
2.35619 1.84593 0
1.5708 1.84593 0
1.9635 1.84593 0
1.5708 2.47335 0
1.9635 2.47335 0
1.9635 1.84593 0
2.35619 1.84593 0
1.9635 2.47335 0
2.35619 2.47335 0
2.35619 1.21973 0
2.74889 1.21973 0
2.35619 1.84593 0
2.74889 1.84593 0
2.74889 1.21973 0
3.14159 1.21973 0
2.74889 1.84593 0
3.14159 1.84593 0
2.35619 1.84593 0
2.74889 1.84593 0
2.35619 2.47335 0
2.74889 2.47335 0
2.74889 1.84593 0
3.14159 1.84593 0
2.74889 2.47335 0
3.14159 2.47335 0
0 2.47335 0
0.392699 2.47335 0
0 3.10043 0
0.392699 3.10043 0
0.392699 2.47335 0
0.785398 2.47335 0
0.392699 3.10043 0
0.785398 3.10043 0
0 3.10043 0
0.392699 3.10043 0
0 3.72754 0
0.392699 3.72754 0
0.392699 3.10043 0
0.785398 3.10043 0
0.392699 3.72754 0
0.785398 3.72754 0
0.785398 2.47335 0
1.1781 2.47335 0
0.785398 3.10043 0
1.1781 3.10043 0
1.1781 2.47335 0
1.5708 2.47335 0
1.1781 3.10043 0
1.5708 3.10043 0
0.785398 3.10043 0
1.1781 3.10043 0
0.785398 3.72754 0
1.1781 3.72754 0
1.1781 3.10043 0
1.5708 3.10043 0
1.1781 3.72754 0
1.5708 3.72754 0
0 3.72754 0
0.392699 3.72754 0
0 4.35455 0
0.392699 4.35455 0
0.392699 3.72754 0
0.785398 3.72754 0
0.392699 4.35455 0
0.785398 4.35455 0
0 4.35455 0
0.392699 4.35455 0
0 4.98149 0
0.392699 4.98149 0
0.392699 4.35455 0
0.785398 4.35455 0
0.392699 4.98149 0
0.785398 4.98149 0
0.785398 3.72754 0
1.1781 3.72754 0
0.785398 4.35455 0
1.1781 4.35455 0
1.1781 3.72754 0
1.5708 3.72754 0
1.1781 4.35455 0
1.5708 4.35455 0
0.785398 4.35455 0
1.1781 4.35455 0
0.785398 4.98149 0
1.1781 4.98149 0
1.1781 4.35455 0
1.5708 4.35455 0
1.1781 4.98149 0
1.5708 4.98149 0
1.5708 2.47335 0
1.9635 2.47335 0
1.5708 3.10043 0
1.9635 3.10043 0
1.9635 2.47335 0
2.35619 2.47335 0
1.9635 3.10043 0
2.35619 3.10043 0
1.5708 3.10043 0
1.9635 3.10043 0
1.5708 3.72754 0
1.9635 3.72754 0
1.9635 3.10043 0
2.35619 3.10043 0
1.9635 3.72754 0
2.35619 3.72754 0
2.35619 2.47335 0
2.74889 2.47335 0
2.35619 3.10043 0
2.74889 3.10043 0
2.74889 2.47335 0
3.14159 2.47335 0
2.74889 3.10043 0
3.14159 3.10043 0
2.35619 3.10043 0
2.74889 3.10043 0
2.35619 3.72754 0
2.74889 3.72754 0
2.74889 3.10043 0
3.14159 3.10043 0
2.74889 3.72754 0
3.14159 3.72754 0
1.5708 3.72754 0
1.9635 3.72754 0
1.5708 4.35455 0
1.9635 4.35455 0
1.9635 3.72754 0
2.35619 3.72754 0
1.9635 4.35455 0
2.35619 4.35455 0
1.5708 4.35455 0
1.9635 4.35455 0
1.5708 4.98149 0
1.9635 4.98149 0
1.9635 4.35455 0
2.35619 4.35455 0
1.9635 4.98149 0
2.35619 4.98149 0
2.35619 3.72754 0
2.74889 3.72754 0
2.35619 4.35455 0
2.74889 4.35455 0
2.74889 3.72754 0
3.14159 3.72754 0
2.74889 4.35455 0
3.14159 4.35455 0
2.35619 4.35455 0
2.74889 4.35455 0
2.35619 4.98149 0
2.74889 4.98149 0
2.74889 4.35455 0
3.14159 4.35455 0
2.74889 4.98149 0
3.14159 4.98149 0
3.14159 0 0
3.53429 0 0
3.14159 0.592424 0
3.53429 0.592424 0
3.53429 0 0
3.92699 0 0
3.53429 0.592424 0
3.92699 0.592424 0
3.14159 0.592424 0
3.53429 0.592424 0
3.14159 1.21973 0
3.53429 1.21973 0
3.53429 0.592424 0
3.92699 0.592424 0
3.53429 1.21973 0
3.92699 1.21973 0
3.92699 0 0
4.31969 0 0
3.92699 0.592424 0
4.31969 0.592424 0
4.31969 0 0
4.71239 0 0
4.31969 0.592424 0
4.71239 0.592424 0
3.92699 0.592424 0
4.31969 0.592424 0
3.92699 1.21973 0
4.31969 1.21973 0
4.31969 0.592424 0
4.71239 0.592424 0
4.31969 1.21973 0
4.71239 1.21973 0
3.14159 1.21973 0
3.53429 1.21973 0
3.14159 1.84593 0
3.53429 1.84593 0
3.53429 1.21973 0
3.92699 1.21973 0
3.53429 1.84593 0
3.92699 1.84593 0
3.14159 1.84593 0
3.53429 1.84593 0
3.14159 2.47335 0
3.53429 2.47335 0
3.53429 1.84593 0
3.92699 1.84593 0
3.53429 2.47335 0
3.92699 2.47335 0
3.92699 1.21973 0
4.31969 1.21973 0
3.92699 1.84593 0
4.31969 1.84593 0
4.31969 1.21973 0
4.71239 1.21973 0
4.31969 1.84593 0
4.71239 1.84593 0
3.92699 1.84593 0
4.31969 1.84593 0
3.92699 2.47335 0
4.31969 2.47335 0
4.31969 1.84593 0
4.71239 1.84593 0
4.31969 2.47335 0
4.71239 2.47335 0
4.71239 0 0
5.10509 0 0
4.71239 0.592424 0
5.10509 0.592424 0
5.10509 0 0
5.49779 0 0
5.10509 0.592424 0
5.49779 0.592424 0
4.71239 0.592424 0
5.10509 0.592424 0
4.71239 1.21973 0
5.10509 1.21973 0
5.10509 0.592424 0
5.49779 0.592424 0
5.10509 1.21973 0
5.49779 1.21973 0
5.49779 0 0
5.89049 0 0
5.49779 0.592424 0
5.89049 0.592424 0
5.89049 0 0
6.28319 0 0
5.89049 0.592424 0
6.28319 0.592424 0
5.49779 0.592424 0
5.89049 0.592424 0
5.49779 1.21973 0
5.89049 1.21973 0
5.89049 0.592424 0
6.28319 0.592424 0
5.89049 1.21973 0
6.28319 1.21973 0
4.71239 1.21973 0
5.10509 1.21973 0
4.71239 1.84593 0
5.10509 1.84593 0
5.10509 1.21973 0
5.49779 1.21973 0
5.10509 1.84593 0
5.49779 1.84593 0
4.71239 1.84593 0
5.10509 1.84593 0
4.71239 2.47335 0
5.10509 2.47335 0
5.10509 1.84593 0
5.49779 1.84593 0
5.10509 2.47335 0
5.49779 2.47335 0
5.49779 1.21973 0
5.89049 1.21973 0
5.49779 1.84593 0
5.89049 1.84593 0
5.89049 1.21973 0
6.28319 1.21973 0
5.89049 1.84593 0
6.28319 1.84593 0
5.49779 1.84593 0
5.89049 1.84593 0
5.49779 2.47335 0
5.89049 2.47335 0
5.89049 1.84593 0
6.28319 1.84593 0
5.89049 2.47335 0
6.28319 2.47335 0
3.14159 2.47335 0
3.53429 2.47335 0
3.14159 3.10043 0
3.53429 3.10043 0
3.53429 2.47335 0
3.92699 2.47335 0
3.53429 3.10043 0
3.92699 3.10043 0
3.14159 3.10043 0
3.53429 3.10043 0
3.14159 3.72754 0
3.53429 3.72754 0
3.53429 3.10043 0
3.92699 3.10043 0
3.53429 3.72754 0
3.92699 3.72754 0
3.92699 2.47335 0
4.31969 2.47335 0
3.92699 3.10043 0
4.31969 3.10043 0
4.31969 2.47335 0
4.71239 2.47335 0
4.31969 3.10043 0
4.71239 3.10043 0
3.92699 3.10043 0
4.31969 3.10043 0
3.92699 3.72754 0
4.31969 3.72754 0
4.31969 3.10043 0
4.71239 3.10043 0
4.31969 3.72754 0
4.71239 3.72754 0
3.14159 3.72754 0
3.53429 3.72754 0
3.14159 4.35455 0
3.53429 4.35455 0
3.53429 3.72754 0
3.92699 3.72754 0
3.53429 4.35455 0
3.92699 4.35455 0
3.14159 4.35455 0
3.53429 4.35455 0
3.14159 4.98149 0
3.53429 4.98149 0
3.53429 4.35455 0
3.92699 4.35455 0
3.53429 4.98149 0
3.92699 4.98149 0
3.92699 3.72754 0
4.31969 3.72754 0
3.92699 4.35455 0
4.31969 4.35455 0
4.31969 3.72754 0
4.71239 3.72754 0
4.31969 4.35455 0
4.71239 4.35455 0
3.92699 4.35455 0
4.31969 4.35455 0
3.92699 4.98149 0
4.31969 4.98149 0
4.31969 4.35455 0
4.71239 4.35455 0
4.31969 4.98149 0
4.71239 4.98149 0
4.71239 2.47335 0
5.10509 2.47335 0
4.71239 3.10043 0
5.10509 3.10043 0
5.10509 2.47335 0
5.49779 2.47335 0
5.10509 3.10043 0
5.49779 3.10043 0
4.71239 3.10043 0
5.10509 3.10043 0
4.71239 3.72754 0
5.10509 3.72754 0
5.10509 3.10043 0
5.49779 3.10043 0
5.10509 3.72754 0
5.49779 3.72754 0
5.49779 2.47335 0
5.89049 2.47335 0
5.49779 3.10043 0
5.89049 3.10043 0
5.89049 2.47335 0
6.28319 2.47335 0
5.89049 3.10043 0
6.28319 3.10043 0
5.49779 3.10043 0
5.89049 3.10043 0
5.49779 3.72754 0
5.89049 3.72754 0
5.89049 3.10043 0
6.28319 3.10043 0
5.89049 3.72754 0
6.28319 3.72754 0
4.71239 3.72754 0
5.10509 3.72754 0
4.71239 4.35455 0
5.10509 4.35455 0
5.10509 3.72754 0
5.49779 3.72754 0
5.10509 4.35455 0
5.49779 4.35455 0
4.71239 4.35455 0
5.10509 4.35455 0
4.71239 4.98149 0
5.10509 4.98149 0
5.10509 4.35455 0
5.49779 4.35455 0
5.10509 4.98149 0
5.49779 4.98149 0
5.49779 3.72754 0
5.89049 3.72754 0
5.49779 4.35455 0
5.89049 4.35455 0
5.89049 3.72754 0
6.28319 3.72754 0
5.89049 4.35455 0
6.28319 4.35455 0
5.49779 4.35455 0
5.89049 4.35455 0
5.49779 4.98149 0
5.89049 4.98149 0
5.89049 4.35455 0
6.28319 4.35455 0
5.89049 4.98149 0
6.28319 4.98149 0
0 4.98149 0
0.392699 4.98149 0
0 5.60831 0
0.392699 5.60831 0
0.392699 4.98149 0
0.785398 4.98149 0
0.392699 5.60831 0
0.785398 5.60831 0
0 5.60831 0
0.392699 5.60831 0
0 6.23505 0
0.392699 6.23505 0
0.392699 5.60831 0
0.785398 5.60831 0
0.392699 6.23505 0
0.785398 6.23505 0
0.785398 4.98149 0
1.1781 4.98149 0
0.785398 5.60831 0
1.1781 5.60831 0
1.1781 4.98149 0
1.5708 4.98149 0
1.1781 5.60831 0
1.5708 5.60831 0
0.785398 5.60831 0
1.1781 5.60831 0
0.785398 6.23505 0
1.1781 6.23505 0
1.1781 5.60831 0
1.5708 5.60831 0
1.1781 6.23505 0
1.5708 6.23505 0
0 6.23505 0
0.392699 6.23505 0
0 6.86171 0
0.392699 6.86171 0
0.392699 6.23505 0
0.785398 6.23505 0
0.392699 6.86171 0
0.785398 6.86171 0
0 6.86171 0
0.392699 6.86171 0
0 7.48839 0
0.392699 7.48839 0
0.392699 6.86171 0
0.785398 6.86171 0
0.392699 7.48839 0
0.785398 7.48839 0
0.785398 6.23505 0
1.1781 6.23505 0
0.785398 6.86171 0
[...]
POINT_DATA 5120
VECTORS uf double
0 1 0
-1.73732e-13 1 0
0 1.00257 0
-1.57052e-13 1.00257 0
-1.73732e-13 1 0
6.05588e-15 1 0
-1.57052e-13 1.00257 0
1.71234e-14 1.00257 0
0 1.00257 0
1.42034e-13 1.00257 0
0 1.00388 0
1.40121e-13 1.00388 0
1.42034e-13 1.00257 0
-4.82737e-14 1.00257 0
1.40121e-13 1.00388 0
-4.56354e-14 1.00388 0
6.05588e-15 1 0
2.65944e-13 1 0
1.71234e-14 1.00257 0
2.57244e-13 1.00257 0
2.65944e-13 1 0
4.08608e-14 1 0
2.57244e-13 1.00257 0
4.85097e-14 1.00257 0
-4.82737e-14 1.00257 0
-2.58744e-13 1.00257 0
-4.56354e-14 1.00388 0
-2.54772e-13 1.00388 0
-2.58744e-13 1.00257 0
-4.40968e-14 1.00257 0
-2.54772e-13 1.00388 0
-4.22969e-14 1.00388 0
0 1.00388 0
-1.87514e-14 1.00388 0
0 1.00549 0
-6.70863e-15 1.00549 0
-1.87514e-14 1.00388 0
1.02635e-13 1.00388 0
-6.70863e-15 1.00549 0
1.08589e-13 1.00549 0
0 1.00549 0
3.646e-14 1.00549 0
0 1.00697 0
4.08449e-14 1.00697 0
3.646e-14 1.00549 0
-4.87949e-14 1.00549 0
4.08449e-14 1.00697 0
-3.55295e-14 1.00697 0
1.02635e-13 1.00388 0
2.58017e-16 1.00388 0
1.08589e-13 1.00549 0
2.48687e-15 1.00549 0
2.58017e-16 1.00388 0
-5.80474e-15 1.00388 0
2.48687e-15 1.00549 0
4.25964e-15 1.00549 0
-4.87949e-14 1.00549 0
4.44441e-14 1.00549 0
-3.55295e-14 1.00697 0
4.10456e-14 1.00697 0
4.44441e-14 1.00549 0
-4.39501e-14 1.00549 0
4.10456e-14 1.00697 0
-2.30519e-14 1.00697 0
4.08608e-14 1 0
-3.27073e-14 1 0
4.85097e-14 1.00257 0
-2.04241e-14 1.00257 0
-3.27073e-14 1 0
-5.30684e-15 1 0
-2.04241e-14 1.00257 0
-3.35932e-15 1.00257 0
-4.40968e-14 1.00257 0
2.73092e-14 1.00257 0
-4.22969e-14 1.00388 0
2.57013e-14 1.00388 0
2.73092e-14 1.00257 0
2.32909e-15 1.00257 0
2.57013e-14 1.00388 0
4.30154e-15 1.00388 0
-5.30684e-15 1 0
3.50105e-15 1 0
-3.35932e-15 1.00257 0
-8.25647e-16 1.00257 0
3.50105e-15 1 0
-5.30503e-15 1 0
-8.25647e-16 1.00257 0
7.48218e-15 1.00257 0
2.32909e-15 1.00257 0
-7.33379e-15 1.00257 0
4.30154e-15 1.00388 0
1.15976e-14 1.00388 0
-7.33379e-15 1.00257 0
1.14035e-15 1.00257 0
1.15976e-14 1.00388 0
6.78348e-15 1.00388 0
-5.80474e-15 1.00388 0
3.45738e-14 1.00388 0
4.25964e-15 1.00549 0
3.60871e-14 1.00549 0
3.45738e-14 1.00388 0
7.95126e-15 1.00388 0
3.60871e-14 1.00549 0
-1.32845e-15 1.00549 0
-4.39501e-14 1.00549 0
-1.18353e-14 1.00549 0
-2.30519e-14 1.00697 0
-1.32578e-14 1.00697 0
-1.18353e-14 1.00549 0
-8.41352e-15 1.00549 0
-1.32578e-14 1.00697 0
4.35821e-15 1.00697 0
7.95126e-15 1.00388 0
-4.57765e-15 1.00388 0
-1.32845e-15 1.00549 0
3.69408e-15 1.00549 0
-4.57765e-15 1.00388 0
2.77071e-15 1.00388 0
3.69408e-15 1.00549 0
2.976e-15 1.00549 0
-8.41352e-15 1.00549 0
-2.8921e-15 1.00549 0
4.35821e-15 1.00697 0
-3.55336e-16 1.00697 0
-2.8921e-15 1.00549 0
-7.5696e-15 1.00549 0
-3.55336e-16 1.00697 0
-1.56404e-15 1.00697 0
0 1.00697 0
-9.52982e-14 1.00697 0
0 1.00845 0
-8.84333e-14 1.00845 0
-9.52982e-14 1.00697 0
-3.54658e-14 1.00697 0
-8.84333e-14 1.00845 0
-3.00834e-14 1.00845 0
0 1.00845 0
9.41675e-14 1.00845 0
0 1.00989 0
9.31695e-14 1.00989 0
9.41675e-14 1.00845 0
8.3197e-14 1.00845 0
9.31695e-14 1.00989 0
7.81055e-14 1.00989 0
-3.54658e-14 1.00697 0
-5.78215e-14 1.00697 0
-3.00834e-14 1.00845 0
-5.47198e-14 1.00845 0
-5.78215e-14 1.00697 0
5.32031e-14 1.00697 0
-5.47198e-14 1.00845 0
4.62386e-14 1.00845 0
8.3197e-14 1.00845 0
6.87639e-14 1.00845 0
7.81055e-14 1.00989 0
6.52054e-14 1.00989 0
6.87639e-14 1.00845 0
-7.2198e-14 1.00845 0
6.52054e-14 1.00989 0
-6.69358e-14 1.00989 0
0 1.00989 0
1.24433e-14 1.00989 0
0 1.01132 0
1.05122e-14 1.01132 0
1.24433e-14 1.00989 0
-2.03974e-13 1.00989 0
1.05122e-14 1.01132 0
-2.03423e-13 1.01132 0
0 1.01132 0
6.70278e-16 1.01132 0
0 1.01272 0
3.42862e-15 1.01272 0
6.70278e-16 1.01132 0
1.97428e-13 1.01132 0
3.42862e-15 1.01272 0
1.91102e-13 1.01272 0
-2.03974e-13 1.00989 0
-5.64428e-14 1.00989 0
-2.03423e-13 1.01132 0
-5.50895e-14 1.01132 0
-5.64428e-14 1.00989 0
1.55291e-13 1.00989 0
-5.50895e-14 1.01132 0
1.43521e-13 1.01132 0
1.97428e-13 1.01132 0
3.44287e-14 1.01132 0
1.91102e-13 1.01272 0
2.77918e-14 1.01272 0
3.44287e-14 1.01132 0
-1.58521e-13 1.01132 0
2.77918e-14 1.01272 0
-1.4986e-13 1.01272 0
5.32031e-14 1.00697 0
1.69944e-14 1.00697 0
4.62386e-14 1.00845 0
1.64656e-14 1.00845 0
1.69944e-14 1.00697 0
-4.00058e-15 1.00697 0
1.64656e-14 1.00845 0
1.15813e-15 1.00845 0
-7.2198e-14 1.00845 0
-3.03622e-14 1.00845 0
-6.69358e-14 1.00989 0
-2.92085e-14 1.00989 0
-3.03622e-14 1.00845 0
-9.42723e-15 1.00845 0
-2.92085e-14 1.00989 0
-4.84078e-15 1.00989 0
-4.00058e-15 1.00697 0
-5.62886e-16 1.00697 0
1.15813e-15 1.00845 0
-1.17613e-15 1.00845 0
-5.62886e-16 1.00697 0
6.33385e-16 1.00697 0
-1.17613e-15 1.00845 0
4.90553e-15 1.00845 0
-9.42723e-15 1.00845 0
-6.07147e-16 1.00845 0
-4.84078e-15 1.00989 0
4.51138e-15 1.00989 0
-6.07147e-16 1.00845 0
1.81911e-14 1.00845 0
4.51138e-15 1.00989 0
1.96858e-14 1.00989 0
1.55291e-13 1.00989 0
-1.7264e-14 1.00989 0
1.43521e-13 1.01132 0
-1.84576e-14 1.01132 0
-1.7264e-14 1.00989 0
4.86309e-15 1.00989 0
-1.84576e-14 1.01132 0
1.29866e-14 1.01132 0
-1.58521e-13 1.01132 0
-4.42318e-14 1.01132 0
-1.4986e-13 1.01272 0
-3.41287e-14 1.01272 0
-4.42318e-14 1.01132 0
-3.94966e-15 1.01132 0
-3.41287e-14 1.01272 0
4.08576e-15 1.01272 0
4.86309e-15 1.00989 0
-2.90359e-15 1.00989 0
1.29866e-14 1.01132 0
-4.83366e-15 1.01132 0
-2.90359e-15 1.00989 0
-1.57127e-14 1.00989 0
-4.83366e-15 1.01132 0
-1.78401e-14 1.01132 0
-3.94966e-15 1.01132 0
1.31303e-14 1.01132 0
4.08576e-15 1.01272 0
2.06256e-14 1.01272 0
1.31303e-14 1.01132 0
-5.5591e-15 1.01132 0
2.06256e-14 1.01272 0
-1.99088e-15 1.01272 0
-5.30503e-15 1 0
1.59933e-15 1 0
7.48218e-15 1.00257 0
2.56539e-15 1.00257 0
1.59933e-15 1 0
4.88052e-15 1 0
2.56539e-15 1.00257 0
2.28215e-15 1.00257 0
1.14035e-15 1.00257 0
8.38564e-15 1.00257 0
6.78348e-15 1.00388 0
5.37683e-15 1.00388 0
8.38564e-15 1.00257 0
-2.66288e-16 1.00257 0
5.37683e-15 1.00388 0
3.75045e-15 1.00388 0
4.88052e-15 1 0
5.16564e-15 1 0
2.28215e-15 1.00257 0
4.28838e-15 1.00257 0
5.16564e-15 1 0
-4.24543e-15 1 0
4.28838e-15 1.00257 0
1.75937e-14 1.00257 0
-2.66288e-16 1.00257 0
-7.66643e-15 1.00257 0
3.75045e-15 1.00388 0
1.5014e-14 1.00388 0
-7.66643e-15 1.00257 0
-4.2343e-15 1.00257 0
1.5014e-14 1.00388 0
1.19657e-14 1.00388 0
2.77071e-15 1.00388 0
-3.61954e-15 1.00388 0
2.976e-15 1.00549 0
6.37344e-15 1.00549 0
-3.61954e-15 1.00388 0
6.22778e-16 1.00388 0
6.37344e-15 1.00549 0
3.96721e-15 1.00549 0
-7.5696e-15 1.00549 0
-9.53564e-16 1.00549 0
-1.56404e-15 1.00697 0
6.5088e-15 1.00697 0
-9.53564e-16 1.00549 0
8.60701e-15 1.00549 0
6.5088e-15 1.00697 0
5.44073e-15 1.00697 0
6.22778e-16 1.00388 0
6.34544e-15 1.00388 0
3.96721e-15 1.00549 0
-6.20189e-16 1.00549 0
6.34544e-15 1.00388 0
1.01178e-17 1.00388 0
-6.20189e-16 1.00549 0
5.95498e-15 1.00549 0
8.60701e-15 1.00549 0
-8.16178e-15 1.00549 0
5.44073e-15 1.00697 0
3.13517e-15 1.00697 0
-8.16178e-15 1.00549 0
2.77108e-15 1.00549 0
3.13517e-15 1.00697 0
2.78833e-15 1.00697 0
-4.24543e-15 1 0
7.20228e-15 1 0
1.75937e-14 1.00257 0
3.39484e-15 1.00257 0
7.20228e-15 1 0
3.24495e-15 1 0
3.39484e-15 1.00257 0
1.15087e-14 1.00257 0
-4.2343e-15 1.00257 0
1.15589e-14 1.00257 0
1.19657e-14 1.00388 0
-4.89206e-15 1.00388 0
1.15589e-14 1.00257 0
-8.15475e-15 1.00257 0
-4.89206e-15 1.00388 0
1.96882e-14 1.00388 0
3.24495e-15 1 0
1.98181e-15 1 0
1.15087e-14 1.00257 0
7.59386e-15 1.00257 0
1.98181e-15 1 0
5.05055e-15 1 0
7.59386e-15 1.00257 0
5.49355e-15 1.00257 0
-8.15475e-15 1.00257 0
9.29633e-15 1.00257 0
1.96882e-14 1.00388 0
4.04589e-15 1.00388 0
9.29633e-15 1.00257 0
-3.12738e-15 1.00257 0
4.04589e-15 1.00388 0
1.28917e-14 1.00388 0
1.01178e-17 1.00388 0
-8.31664e-15 1.00388 0
5.95498e-15 1.00549 0
9.00327e-15 1.00549 0
-8.31664e-15 1.00388 0
1.56317e-15 1.00388 0
9.00327e-15 1.00549 0
2.53744e-16 1.00549 0
2.77108e-15 1.00549 0
-2.76534e-16 1.00549 0
2.78833e-15 1.00697 0
1.8527e-15 1.00697 0
-2.76534e-16 1.00549 0
-1.48082e-15 1.00549 0
1.8527e-15 1.00697 0
1.40108e-15 1.00697 0
1.56317e-15 1.00388 0
-3.41091e-15 1.00388 0
2.53744e-16 1.00549 0
8.19531e-15 1.00549 0
-3.41091e-15 1.00388 0
-5.29928e-15 1.00388 0
8.19531e-15 1.00549 0
4.01201e-15 1.00549 0
-1.48082e-15 1.00549 0
1.09405e-15 1.00549 0
1.40108e-15 1.00697 0
4.45708e-15 1.00697 0
1.09405e-15 1.00549 0
-5.28531e-15 1.00549 0
4.45708e-15 1.00697 0
6.49816e-15 1.00697 0
6.33385e-16 1.00697 0
1.79424e-15 1.00697 0
4.90553e-15 1.00845 0
6.74852e-16 1.00845 0
1.79424e-15 1.00697 0
-1.18088e-14 1.00697 0
6.74852e-16 1.00845 0
-3.56264e-15 1.00845 0
1.81911e-14 1.00845 0
-1.30624e-14 1.00845 0
1.96858e-14 1.00989 0
-4.02167e-15 1.00989 0
-1.30624e-14 1.00845 0
7.18079e-15 1.00845 0
-4.02167e-15 1.00989 0
-8.38283e-16 1.00989 0
-1.18088e-14 1.00697 0
8.07335e-15 1.00697 0
-3.56264e-15 1.00845 0
-2.42742e-16 1.00845 0
8.07335e-15 1.00697 0
-6.24226e-15 1.00697 0
-2.42742e-16 1.00845 0
8.37036e-15 1.00845 0
7.18079e-15 1.00845 0
3.14675e-15 1.00845 0
-8.38283e-16 1.00989 0
-8.06015e-16 1.00989 0
3.14675e-15 1.00845 0
-1.70493e-15 1.00845 0
-8.06015e-16 1.00989 0
1.31403e-15 1.00989 0
-1.57127e-14 1.00989 0
1.34562e-14 1.00989 0
-1.78401e-14 1.01132 0
1.38036e-14 1.01132 0
1.34562e-14 1.00989 0
-6.25699e-15 1.00989 0
1.38036e-14 1.01132 0
8.73752e-15 1.01132 0
-5.5591e-15 1.01132 0
-9.49225e-15 1.01132 0
-1.99088e-15 1.01272 0
1.62715e-15 1.01272 0
-9.49225e-15 1.01132 0
2.01468e-14 1.01132 0
1.62715e-15 1.01272 0
3.15553e-14 1.01272 0
-6.25699e-15 1.00989 0
-1.36868e-15 1.00989 0
8.73752e-15 1.01132 0
2.92744e-15 1.01132 0
-1.36868e-15 1.00989 0
-1.58974e-15 1.00989 0
2.92744e-15 1.01132 0
3.45994e-15 1.01132 0
2.01468e-14 1.01132 0
7.18402e-15 1.01132 0
3.15553e-14 1.01272 0
3.68422e-16 1.01272 0
7.18402e-15 1.01132 0
-1.87856e-15 1.01132 0
3.68422e-16 1.01272 0
4.76583e-15 1.01272 0
-6.24226e-15 1.00697 0
6.86545e-15 1.00697 0
8.37036e-15 1.00845 0
-1.78133e-15 1.00845 0
6.86545e-15 1.00697 0
6.0412e-16 1.00697 0
-1.78133e-15 1.00845 0
5.04514e-15 1.00845 0
-1.70493e-15 1.00845 0
-2.51537e-15 1.00845 0
1.31403e-15 1.00989 0
8.89144e-16 1.00989 0
-2.51537e-15 1.00845 0
6.92285e-15 1.00845 0
8.89144e-16 1.00989 0
-1.03901e-14 1.00989 0
6.0412e-16 1.00697 0
5.98522e-15 1.00697 0
5.04514e-15 1.00845 0
-1.62093e-15 1.00845 0
5.98522e-15 1.00697 0
3.26186e-15 1.00697 0
-1.62093e-15 1.00845 0
2.58529e-15 1.00845 0
6.92285e-15 1.00845 0
-4.13693e-15 1.00845 0
-1.03901e-14 1.00989 0
1.06069e-14 1.00989 0
-4.13693e-15 1.00845 0
-3.68661e-15 1.00845 0
1.06069e-14 1.00989 0
9.20337e-15 1.00989 0
-1.58974e-15 1.00989 0
1.22031e-15 1.00989 0
3.45994e-15 1.01132 0
5.86972e-17 1.01132 0
1.22031e-15 1.00989 0
-3.3452e-15 1.00989 0
5.86972e-17 1.01132 0
5.45314e-15 1.01132 0
-1.87856e-15 1.01132 0
1.0555e-15 1.01132 0
4.76583e-15 1.01272 0
2.30105e-15 1.01272 0
1.0555e-15 1.01132 0
5.45238e-16 1.01132 0
2.30105e-15 1.01272 0
2.40498e-15 1.01272 0
-3.3452e-15 1.00989 0
-4.25593e-15 1.00989 0
5.45314e-15 1.01132 0
4.6392e-15 1.01132 0
-4.25593e-15 1.00989 0
-5.11876e-15 1.00989 0
4.6392e-15 1.01132 0
4.14625e-15 1.01132 0
5.45238e-16 1.01132 0
-8.41233e-15 1.01132 0
2.40498e-15 1.01272 0
3.53461e-15 1.01272 0
-8.41233e-15 1.01132 0
6.22444e-15 1.01132 0
3.53461e-15 1.01272 0
-3.97688e-15 1.01272 0
0 1.01272 0
-5.52079e-14 1.01272 0
0 1.0141 0
-3.88469e-14 1.0141 0
-5.52079e-14 1.01272 0
-1.29174e-13 1.01272 0
-3.88469e-14 1.0141 0
-1.23916e-13 1.0141 0
0 1.0141 0
3.84841e-14 1.0141 0
0 1.01548 0
4.05567e-14 1.01548 0
3.84841e-14 1.0141 0
1.14045e-13 1.0141 0
4.05567e-14 1.01548 0
1.07496e-13 1.01548 0
-1.29174e-13 1.01272 0
3.72766e-14 1.01272 0
-1.23916e-13 1.0141 0
4.23724e-14 1.0141 0
3.72766e-14 1.01272 0
1.0354e-13 1.01272 0
4.23724e-14 1.0141 0
1.02217e-13 1.0141 0
1.14045e-13 1.0141 0
-1.35378e-13 1.0141 0
1.07496e-13 1.01548 0
-1.24645e-13 1.01548 0
-1.35378e-13 1.0141 0
-7.02279e-14 1.0141 0
-1.24645e-13 1.01548 0
-7.04511e-14 1.01548 0
0 1.01548 0
-5.3455e-14 1.01548 0
0 1.01686 0
-4.45471e-14 1.01686 0
-5.3455e-14 1.01548 0
-8.99621e-14 1.01548 0
-4.45471e-14 1.01686 0
-8.83531e-14 1.01686 0
0 1.01686 0
3.54741e-14 1.01686 0
0 1.01825 0
3.29109e-14 1.01825 0
3.54741e-14 1.01686 0
5.93403e-14 1.01686 0
3.29109e-14 1.01825 0
6.18633e-14 1.01825 0
-8.99621e-14 1.01548 0
7.34329e-14 1.01548 0
-8.83531e-14 1.01686 0
7.64168e-14 1.01686 0
7.34329e-14 1.01548 0
3.78614e-14 1.01548 0
7.64168e-14 1.01686 0
4.29913e-14 1.01686 0
5.93403e-14 1.01686 0
-2.10857e-14 1.01686 0
6.18633e-14 1.01825 0
-1.57461e-14 1.01825 0
-2.10857e-14 1.01686 0
-2.31759e-15 1.01686 0
-1.57461e-14 1.01825 0
-6.10416e-15 1.01825 0
1.0354e-13 1.01272 0
5.10993e-14 1.01272 0
1.02217e-13 1.0141 0
6.00067e-14 1.0141 0
5.10993e-14 1.01272 0
-3.69515e-15 1.01272 0
6.00067e-14 1.0141 0
4.29321e-15 1.0141 0
-7.02279e-14 1.0141 0
-4.96326e-15 1.0141 0
-7.04511e-14 1.01548 0
-4.51035e-15 1.01548 0
-4.96326e-15 1.0141 0
-4.0555e-15 1.0141 0
-4.51035e-15 1.01548 0
2.27375e-15 1.01548 0
-3.69515e-15 1.01272 0
-1.41476e-14 1.01272 0
4.29321e-15 1.0141 0
-4.50814e-15 1.0141 0
-1.41476e-14 1.01272 0
1.12348e-14 1.01272 0
-4.50814e-15 1.0141 0
4.28196e-15 1.0141 0
-4.0555e-15 1.0141 0
-4.89064e-15 1.0141 0
2.27375e-15 1.01548 0
1.00469e-14 1.01548 0
-4.89064e-15 1.0141 0
-2.73803e-16 1.0141 0
1.00469e-14 1.01548 0
-3.10124e-15 1.01548 0
3.78614e-14 1.01548 0
-3.07487e-15 1.01548 0
4.29913e-14 1.01686 0
-1.74e-15 1.01686 0
-3.07487e-15 1.01548 0
7.87044e-16 1.01548 0
-1.74e-15 1.01686 0
5.224e-15 1.01686 0
-2.31759e-15 1.01686 0
3.40811e-15 1.01686 0
-6.10416e-15 1.01825 0
1.75159e-15 1.01825 0
3.40811e-15 1.01686 0
-2.29659e-15 1.01686 0
1.75159e-15 1.01825 0
5.55852e-16 1.01825 0
7.87044e-16 1.01548 0
-4.29114e-15 1.01548 0
5.224e-15 1.01686 0
6.8501e-15 1.01686 0
-4.29114e-15 1.01548 0
-4.42232e-15 1.01548 0
6.8501e-15 1.01686 0
4.30988e-15 1.01686 0
-2.29659e-15 1.01686 0
-2.0437e-15 1.01686 0
5.55852e-16 1.01825 0
1.12646e-15 1.01825 0
-2.0437e-15 1.01686 0
-3.41985e-15 1.01686 0
1.12646e-15 1.01825 0
1.70422e-15 1.01825 0
0 1.01825 0
3.55567e-14 1.01825 0
0 1.01966 0
3.19063e-14 1.01966 0
3.55567e-14 1.01825 0
-3.47542e-14 1.01825 0
3.19063e-14 1.01966 0
-3.14942e-14 1.01966 0
0 1.01966 0
-4.19933e-14 1.01966 0
0 1.02102 0
-3.54558e-14 1.02102 0
-4.19933e-14 1.01966 0
3.68041e-14 1.01966 0
-3.54558e-14 1.02102 0
3.61824e-14 1.02102 0
-3.47542e-14 1.01825 0
3.71312e-15 1.01825 0
-3.14942e-14 1.01966 0
5.07052e-15 1.01966 0
3.71312e-15 1.01825 0
-1.36946e-14 1.01825 0
5.07052e-15 1.01966 0
-8.05319e-15 1.01966 0
3.68041e-14 1.01966 0
-1.58532e-15 1.01966 0
3.61824e-14 1.02102 0
2.5221e-16 1.02102 0
-1.58532e-15 1.01966 0
-3.09127e-15 1.01966 0
2.5221e-16 1.02102 0
8.89405e-16 1.02102 0
0 1.02102 0
8.26964e-15 1.02102 0
0 1.02222 0
4.61472e-15 1.02222 0
8.26964e-15 1.02102 0
-3.28108e-14 1.02102 0
4.61472e-15 1.02222 0
-3.2583e-14 1.02222 0
0 1.02222 0
1.90808e-15 1.02222 0
0 1.02276 0
-3.09169e-15 1.02276 0
1.90808e-15 1.02222 0
-4.26565e-15 1.02222 0
-3.09169e-15 1.02276 0
9.0707e-15 1.02276 0
-3.28108e-14 1.02102 0
1.49313e-15 1.02102 0
-3.2583e-14 1.02222 0
-1.18395e-15 1.02222 0
1.49313e-15 1.02102 0
3.33077e-15 1.02102 0
-1.18395e-15 1.02222 0
1.71517e-15 1.02222 0
-4.26565e-15 1.02222 0
-5.54951e-15 1.02222 0
9.0707e-15 1.02276 0
-1.65244e-14 1.02276 0
-5.54951e-15 1.02222 0
-1.398e-15 1.02222 0
-1.65244e-14 1.02276 0
1.81333e-14 1.02276 0
-1.36946e-14 1.01825 0
-1.41013e-14 1.01825 0
-8.05319e-15 1.01966 0
-4.75445e-15 1.01966 0
-1.41013e-14 1.01825 0
-9.82954e-16 1.01825 0
-4.75445e-15 1.01966 0
1.21929e-15 1.01966 0
-3.09127e-15 1.01966 0
5.67597e-15 1.01966 0
8.89405e-16 1.02102 0
7.00435e-15 1.02102 0
5.67597e-15 1.01966 0
-3.56995e-15 1.01966 0
7.00435e-15 1.02102 0
1.51712e-15 1.02102 0
-9.82954e-16 1.01825 0
1.60081e-15 1.01825 0
1.21929e-15 1.01966 0
-2.14883e-15 1.01966 0
1.60081e-15 1.01825 0
-2.13335e-15 1.01825 0
-2.14883e-15 1.01966 0
1.74403e-15 1.01966 0
-3.56995e-15 1.01966 0
-4.23821e-15 1.01966 0
1.51712e-15 1.02102 0
1.51567e-15 1.02102 0
-4.23821e-15 1.01966 0
-2.38179e-15 1.01966 0
1.51567e-15 1.02102 0
1.23758e-15 1.02102 0
3.33077e-15 1.02102 0
-1.09735e-14 1.02102 0
1.71517e-15 1.02222 0
-6.01403e-15 1.02222 0
-1.09735e-14 1.02102 0
-1.03684e-15 1.02102 0
-6.01403e-15 1.02222 0
5.30308e-16 1.02222 0
-1.398e-15 1.02222 0
-4.07443e-15 1.02222 0
1.81333e-14 1.02276 0
1.81231e-15 1.02276 0
-4.07443e-15 1.02222 0
-2.04923e-15 1.02222 0
1.81231e-15 1.02276 0
-2.16397e-15 1.02276 0
-1.03684e-15 1.02102 0
-2.80449e-15 1.02102 0
5.30308e-16 1.02222 0
1.80143e-15 1.02222 0
-2.80449e-15 1.02102 0
6.14738e-16 1.02102 0
1.80143e-15 1.02222 0
1.02801e-15 1.02222 0
-2.04923e-15 1.02222 0
-6.32577e-16 1.02222 0
-2.16397e-15 1.02276 0
8.40248e-15 1.02276 0
-6.32577e-16 1.02222 0
3.70065e-16 1.02222 0
8.40248e-15 1.02276 0
-2.03626e-14 1.02276 0
1.12348e-14 1.01272 0
3.01568e-15 1.01272 0
4.28196e-15 1.0141 0
1.49573e-14 1.0141 0
3.01568e-15 1.01272 0
-2.23617e-14 1.01272 0
1.49573e-14 1.0141 0
-2.14192e-14 1.0141 0
-2.73803e-16 1.0141 0
-3.06524e-15 1.0141 0
-3.10124e-15 1.01548 0
3.06883e-16 1.01548 0
-3.06524e-15 1.0141 0
1.94848e-15 1.0141 0
3.06883e-16 1.01548 0
6.85437e-16 1.01548 0
-2.23617e-14 1.01272 0
-2.00702e-15 1.01272 0
-2.14192e-14 1.0141 0
2.37685e-15 1.0141 0
-2.00702e-15 1.01272 0
-1.82278e-15 1.01272 0
2.37685e-15 1.0141 0
3.89279e-15 1.0141 0
1.94848e-15 1.0141 0
-1.98627e-15 1.0141 0
6.85437e-16 1.01548 0
4.30078e-15 1.01548 0
-1.98627e-15 1.0141 0
-5.76959e-17 1.0141 0
4.30078e-15 1.01548 0
4.89103e-15 1.01548 0
-4.42232e-15 1.01548 0
-7.28129e-16 1.01548 0
4.30988e-15 1.01686 0
1.42186e-15 1.01686 0
-7.28129e-16 1.01548 0
-5.23513e-15 1.01548 0
1.42186e-15 1.01686 0
8.56744e-15 1.01686 0
-3.41985e-15 1.01686 0
-5.38138e-16 1.01686 0
1.70422e-15 1.01825 0
1.86406e-16 1.01825 0
-5.38138e-16 1.01686 0
-1.50676e-15 1.01686 0
1.86406e-16 1.01825 0
-2.45996e-15 1.01825 0
-5.23513e-15 1.01548 0
-2.16808e-15 1.01548 0
8.56744e-15 1.01686 0
4.2453e-15 1.01686 0
-2.16808e-15 1.01548 0
-3.4964e-15 1.01548 0
4.2453e-15 1.01686 0
4.31831e-15 1.01686 0
-1.50676e-15 1.01686 0
-4.41882e-15 1.01686 0
-2.45996e-15 1.01825 0
3.85852e-15 1.01825 0
-4.41882e-15 1.01686 0
2.31423e-15 1.01686 0
3.85852e-15 1.01825 0
-4.27033e-16 1.01825 0
-1.82278e-15 1.01272 0
-3.2559e-16 1.01272 0
3.89279e-15 1.0141 0
2.52391e-15 1.0141 0
-3.2559e-16 1.01272 0
2.39895e-15 1.01272 0
2.52391e-15 1.0141 0
6.37533e-15 1.0141 0
-5.76959e-17 1.0141 0
-8.03159e-16 1.0141 0
4.89103e-15 1.01548 0
3.9478e-15 1.01548 0
-8.03159e-16 1.0141 0
-2.51296e-15 1.0141 0
3.9478e-15 1.01548 0
1.63395e-15 1.01548 0
2.39895e-15 1.01272 0
-6.82224e-15 1.01272 0
6.37533e-15 1.0141 0
5.16339e-15 1.0141 0
-6.82224e-15 1.01272 0
4.57421e-15 1.01272 0
5.16339e-15 1.0141 0
-2.99753e-15 1.0141 0
-2.51296e-15 1.0141 0
-2.27118e-16 1.0141 0
1.63395e-15 1.01548 0
4.48331e-15 1.01548 0
-2.27118e-16 1.0141 0
-3.21851e-16 1.0141 0
4.48331e-15 1.01548 0
4.64286e-15 1.01548 0
-3.4964e-15 1.01548 0
-2.45657e-15 1.01548 0
4.31831e-15 1.01686 0
4.02967e-16 1.01686 0
-2.45657e-15 1.01548 0
-7.47378e-16 1.01548 0
4.02967e-16 1.01686 0
1.46082e-15 1.01686 0
2.31423e-15 1.01686 0
7.46213e-16 1.01686 0
-4.27033e-16 1.01825 0
1.9235e-15 1.01825 0
7.46213e-16 1.01686 0
-4.96657e-15 1.01686 0
1.9235e-15 1.01825 0
6.14142e-15 1.01825 0
-7.47378e-16 1.01548 0
3.11607e-16 1.01548 0
1.46082e-15 1.01686 0
1.67245e-15 1.01686 0
3.11607e-16 1.01548 0
-1.22105e-15 1.01548 0
1.67245e-15 1.01686 0
4.71608e-15 1.01686 0
-4.96657e-15 1.01686 0
-4.08965e-16 1.01686 0
6.14142e-15 1.01825 0
-1.95088e-15 1.01825 0
-4.08965e-16 1.01686 0
6.18652e-15 1.01686 0
-1.95088e-15 1.01825 0
-4.16205e-15 1.01825 0
-2.13335e-15 1.01825 0
-8.48421e-15 1.01825 0
1.74403e-15 1.01966 0
2.94304e-15 1.01966 0
-8.48421e-15 1.01825 0
5.19368e-17 1.01825 0
2.94304e-15 1.01966 0
-6.21493e-16 1.01966 0
-2.38179e-15 1.01966 0
-1.74236e-16 1.01966 0
1.23758e-15 1.02102 0
2.1212e-15 1.02102 0
-1.74236e-16 1.01966 0
-1.60087e-15 1.01966 0
2.1212e-15 1.02102 0
2.38387e-15 1.02102 0
5.19368e-17 1.01825 0
1.69113e-15 1.01825 0
-6.21493e-16 1.01966 0
1.00532e-15 1.01966 0
1.69113e-15 1.01825 0
-3.24235e-15 1.01825 0
1.00532e-15 1.01966 0