# vtk DataFile Version 3.0
#This file was generated by the deal.II library on 2018/10/12 at 2:02:55
ASCII
DATASET UNSTRUCTURED_GRID

POINTS 5120 double
0 0 0
0.392699 0 0
0 0.583836 0
0.392699 0.583836 0
0.392699 0 0
0.785398 0 0
0.392699 0.583836 0
0.785398 0.583836 0
0 0.583836 0
0.392699 0.583836 0
0 1.21162 0
0.392699 1.21162 0
0.392699 0.583836 0
0.785398 0.583836 0
0.392699 1.21162 0
0.785398 1.21162 0
0.785398 0 0
1.1781 0 0
0.785398 0.583836 0
1.1781 0.583836 0
1.1781 0 0
1.5708 0 0
1.1781 0.583836 0
1.5708 0.583836 0
0.785398 0.583836 0
1.1781 0.583836 0
0.785398 1.21162 0
1.1781 1.21162 0
1.1781 0.583836 0
1.5708 0.583836 0
1.1781 1.21162 0
1.5708 1.21162 0
0 1.21162 0
0.392699 1.21162 0
0 1.83815 0
0.392699 1.83815 0
0.392699 1.21162 0
0.785398 1.21162 0
0.392699 1.83815 0
0.785398 1.83815 0
0 1.83815 0
0.392699 1.83815 0
0 2.46627 0
0.392699 2.46627 0
0.392699 1.83815 0
0.785398 1.83815 0
0.392699 2.46627 0
0.785398 2.46627 0
0.785398 1.21162 0
1.1781 1.21162 0
0.785398 1.83815 0
1.1781 1.83815 0
1.1781 1.21162 0
1.5708 1.21162 0
1.1781 1.83815 0
1.5708 1.83815 0
0.785398 1.83815 0
1.1781 1.83815 0
0.785398 2.46627 0
1.1781 2.46627 0
1.1781 1.83815 0
1.5708 1.83815 0
1.1781 2.46627 0
1.5708 2.46627 0
1.5708 0 0
1.9635 0 0
1.5708 0.583836 0
1.9635 0.583836 0
1.9635 0 0
2.35619 0 0
1.9635 0.583836 0
2.35619 0.583836 0
1.5708 0.583836 0
1.9635 0.583836 0
1.5708 1.21162 0
1.9635 1.21162 0
1.9635 0.583836 0
2.35619 0.583836 0
1.9635 1.21162 0
2.35619 1.21162 0
2.35619 0 0
2.74889 0 0
2.35619 0.583836 0
2.74889 0.583836 0
2.74889 0 0
3.14159 0 0
2.74889 0.583836 0
3.14159 0.583836 0
2.35619 0.583836 0
2.74889 0.583836 0
2.35619 1.21162 0
2.74889 1.21162 0
2.74889 0.583836 0
3.14159 0.583836 0
2.74889 1.21162 0
3.14159 1.21162 0
1.5708 1.21162 0
1.9635 1.21162 0
1.5708 1.83815 0
1.9635 1.83815 0
1.9635 1.21162 0
2.35619 1.21162 0
1.9635 1.83815 0
2.35619 1.83815 0
1.5708 1.83815 0
1.9635 1.83815 0
1.5708 2.46627 0
1.9635 2.46627 0
1.9635 1.83815 0
2.35619 1.83815 0
1.9635 2.46627 0
2.35619 2.46627 0
2.35619 1.21162 0
2.74889 1.21162 0
2.35619 1.83815 0
2.74889 1.83815 0
2.74889 1.21162 0
3.14159 1.21162 0
2.74889 1.83815 0
3.14159 1.83815 0
2.35619 1.83815 0
2.74889 1.83815 0
2.35619 2.46627 0
2.74889 2.46627 0
2.74889 1.83815 0
3.14159 1.83815 0
2.74889 2.46627 0
3.14159 2.46627 0
0 2.46627 0
0.392699 2.46627 0
0 3.09394 0
0.392699 3.09394 0
0.392699 2.46627 0
0.785398 2.46627 0
0.392699 3.09394 0
0.785398 3.09394 0
0 3.09394 0
0.392699 3.09394 0
0 3.72166 0
0.392699 3.72166 0
0.392699 3.09394 0
0.785398 3.09394 0
0.392699 3.72166 0
0.785398 3.72166 0
0.785398 2.46627 0
1.1781 2.46627 0
0.785398 3.09394 0
1.1781 3.09394 0
1.1781 2.46627 0
1.5708 2.46627 0
1.1781 3.09394 0
1.5708 3.09394 0
0.785398 3.09394 0
1.1781 3.09394 0
0.785398 3.72166 0
1.1781 3.72166 0
1.1781 3.09394 0
1.5708 3.09394 0
1.1781 3.72166 0
1.5708 3.72166 0
0 3.72166 0
0.392699 3.72166 0
0 4.34926 0
0.392699 4.34926 0
0.392699 3.72166 0
0.785398 3.72166 0
0.392699 4.34926 0
0.785398 4.34926 0
0 4.34926 0
0.392699 4.34926 0
0 4.97675 0
0.392699 4.97675 0
0.392699 4.34926 0
0.785398 4.34926 0
0.392699 4.97675 0
0.785398 4.97675 0
0.785398 3.72166 0
1.1781 3.72166 0
0.785398 4.34926 0
1.1781 4.34926 0
1.1781 3.72166 0
1.5708 3.72166 0
1.1781 4.34926 0
1.5708 4.34926 0
0.785398 4.34926 0
1.1781 4.34926 0
0.785398 4.97675 0
1.1781 4.97675 0
1.1781 4.34926 0
1.5708 4.34926 0
1.1781 4.97675 0
1.5708 4.97675 0
1.5708 2.46627 0
1.9635 2.46627 0
1.5708 3.09394 0
1.9635 3.09394 0
1.9635 2.46627 0
2.35619 2.46627 0
1.9635 3.09394 0
2.35619 3.09394 0
1.5708 3.09394 0
1.9635 3.09394 0
1.5708 3.72166 0
1.9635 3.72166 0
1.9635 3.09394 0
2.35619 3.09394 0
1.9635 3.72166 0
2.35619 3.72166 0
2.35619 2.46627 0
2.74889 2.46627 0
2.35619 3.09394 0
2.74889 3.09394 0
2.74889 2.46627 0
3.14159 2.46627 0
2.74889 3.09394 0
3.14159 3.09394 0
2.35619 3.09394 0
2.74889 3.09394 0
2.35619 3.72166 0
2.74889 3.72166 0
2.74889 3.09394 0
3.14159 3.09394 0
2.74889 3.72166 0
3.14159 3.72166 0
1.5708 3.72166 0
1.9635 3.72166 0
1.5708 4.34926 0
1.9635 4.34926 0
1.9635 3.72166 0
2.35619 3.72166 0
1.9635 4.34926 0
2.35619 4.34926 0
1.5708 4.34926 0
1.9635 4.34926 0
1.5708 4.97675 0
1.9635 4.97675 0
1.9635 4.34926 0
2.35619 4.34926 0
1.9635 4.97675 0
2.35619 4.97675 0
2.35619 3.72166 0
2.74889 3.72166 0
2.35619 4.34926 0
2.74889 4.34926 0
2.74889 3.72166 0
3.14159 3.72166 0
2.74889 4.34926 0
3.14159 4.34926 0
2.35619 4.34926 0
2.74889 4.34926 0
2.35619 4.97675 0
2.74889 4.97675 0
2.74889 4.34926 0
3.14159 4.34926 0
2.74889 4.97675 0
3.14159 4.97675 0
3.14159 0 0
3.53429 0 0
3.14159 0.583836 0
3.53429 0.583836 0
3.53429 0 0
3.92699 0 0
3.53429 0.583836 0
3.92699 0.583836 0
3.14159 0.583836 0
3.53429 0.583836 0
3.14159 1.21162 0
3.53429 1.21162 0
3.53429 0.583836 0
3.92699 0.583836 0
3.53429 1.21162 0
3.92699 1.21162 0
3.92699 0 0
4.31969 0 0
3.92699 0.583836 0
4.31969 0.583836 0
4.31969 0 0
4.71239 0 0
4.31969 0.583836 0
4.71239 0.583836 0
3.92699 0.583836 0
4.31969 0.583836 0
3.92699 1.21162 0
4.31969 1.21162 0
4.31969 0.583836 0
4.71239 0.583836 0
4.31969 1.21162 0
4.71239 1.21162 0
3.14159 1.21162 0
3.53429 1.21162 0
3.14159 1.83815 0
3.53429 1.83815 0
3.53429 1.21162 0
3.92699 1.21162 0
3.53429 1.83815 0
3.92699 1.83815 0
3.14159 1.83815 0
3.53429 1.83815 0
3.14159 2.46627 0
3.53429 2.46627 0
3.53429 1.83815 0
3.92699 1.83815 0
3.53429 2.46627 0
3.92699 2.46627 0
3.92699 1.21162 0
4.31969 1.21162 0
3.92699 1.83815 0
4.31969 1.83815 0
4.31969 1.21162 0
4.71239 1.21162 0
4.31969 1.83815 0
4.71239 1.83815 0
3.92699 1.83815 0
4.31969 1.83815 0
3.92699 2.46627 0
4.31969 2.46627 0
4.31969 1.83815 0
4.71239 1.83815 0
4.31969 2.46627 0
4.71239 2.46627 0
4.71239 0 0
5.10509 0 0
4.71239 0.583836 0
5.10509 0.583836 0
5.10509 0 0
5.49779 0 0
5.10509 0.583836 0
5.49779 0.583836 0
4.71239 0.583836 0
5.10509 0.583836 0
4.71239 1.21162 0
5.10509 1.21162 0
5.10509 0.583836 0
5.49779 0.583836 0
5.10509 1.21162 0
5.49779 1.21162 0
5.49779 0 0
5.89049 0 0
5.49779 0.583836 0
5.89049 0.583836 0
5.89049 0 0
6.28319 0 0
5.89049 0.583836 0
6.28319 0.583836 0
5.49779 0.583836 0
5.89049 0.583836 0
5.49779 1.21162 0
5.89049 1.21162 0
5.89049 0.583836 0
6.28319 0.583836 0
5.89049 1.21162 0
6.28319 1.21162 0
4.71239 1.21162 0
5.10509 1.21162 0
4.71239 1.83815 0
5.10509 1.83815 0
5.10509 1.21162 0
5.49779 1.21162 0
5.10509 1.83815 0
5.49779 1.83815 0
4.71239 1.83815 0
5.10509 1.83815 0
4.71239 2.46627 0
5.10509 2.46627 0
5.10509 1.83815 0
5.49779 1.83815 0
5.10509 2.46627 0
5.49779 2.46627 0
5.49779 1.21162 0
5.89049 1.21162 0
5.49779 1.83815 0
5.89049 1.83815 0
5.89049 1.21162 0
6.28319 1.21162 0
5.89049 1.83815 0
6.28319 1.83815 0
5.49779 1.83815 0
5.89049 1.83815 0
5.49779 2.46627 0
5.89049 2.46627 0
5.89049 1.83815 0
6.28319 1.83815 0
5.89049 2.46627 0
6.28319 2.46627 0
3.14159 2.46627 0
3.53429 2.46627 0
3.14159 3.09394 0
3.53429 3.09394 0
3.53429 2.46627 0
3.92699 2.46627 0
3.53429 3.09394 0
3.92699 3.09394 0
3.14159 3.09394 0
3.53429 3.09394 0
3.14159 3.72166 0
3.53429 3.72166 0
3.53429 3.09394 0
3.92699 3.09394 0
3.53429 3.72166 0
3.92699 3.72166 0
3.92699 2.46627 0
4.31969 2.46627 0
3.92699 3.09394 0
4.31969 3.09394 0
4.31969 2.46627 0
4.71239 2.46627 0
4.31969 3.09394 0
4.71239 3.09394 0
3.92699 3.09394 0
4.31969 3.09394 0
3.92699 3.72166 0
4.31969 3.72166 0
4.31969 3.09394 0
4.71239 3.09394 0
4.31969 3.72166 0
4.71239 3.72166 0
3.14159 3.72166 0
3.53429 3.72166 0
3.14159 4.34926 0
3.53429 4.34926 0
3.53429 3.72166 0
3.92699 3.72166 0
3.53429 4.34926 0
3.92699 4.34926 0
3.14159 4.34926 0
3.53429 4.34926 0
3.14159 4.97675 0
3.53429 4.97675 0
3.53429 4.34926 0
3.92699 4.34926 0
3.53429 4.97675 0
3.92699 4.97675 0
3.92699 3.72166 0
4.31969 3.72166 0
3.92699 4.34926 0
4.31969 4.34926 0
4.31969 3.72166 0
4.71239 3.72166 0
4.31969 4.34926 0
4.71239 4.34926 0
3.92699 4.34926 0
4.31969 4.34926 0
3.92699 4.97675 0
4.31969 4.97675 0
4.31969 4.34926 0
4.71239 4.34926 0
4.31969 4.97675 0
4.71239 4.97675 0
4.71239 2.46627 0
5.10509 2.46627 0
4.71239 3.09394 0
5.10509 3.09394 0
5.10509 2.46627 0
5.49779 2.46627 0
5.10509 3.09394 0
5.49779 3.09394 0
4.71239 3.09394 0
5.10509 3.09394 0
4.71239 3.72166 0
5.10509 3.72166 0
5.10509 3.09394 0
5.49779 3.09394 0
5.10509 3.72166 0
5.49779 3.72166 0
5.49779 2.46627 0
5.89049 2.46627 0
5.49779 3.09394 0
5.89049 3.09394 0
5.89049 2.46627 0
6.28319 2.46627 0
5.89049 3.09394 0
6.28319 3.09394 0
5.49779 3.09394 0
5.89049 3.09394 0
5.49779 3.72166 0
5.89049 3.72166 0
5.89049 3.09394 0
6.28319 3.09394 0
5.89049 3.72166 0
6.28319 3.72166 0
4.71239 3.72166 0
5.10509 3.72166 0
4.71239 4.34926 0
5.10509 4.34926 0
5.10509 3.72166 0
5.49779 3.72166 0
5.10509 4.34926 0
5.49779 4.34926 0
4.71239 4.34926 0
5.10509 4.34926 0
4.71239 4.97675 0
5.10509 4.97675 0
5.10509 4.34926 0
5.49779 4.34926 0
5.10509 4.97675 0
5.49779 4.97675 0
5.49779 3.72166 0
5.89049 3.72166 0
5.49779 4.34926 0
5.89049 4.34926 0
5.89049 3.72166 0
6.28319 3.72166 0
5.89049 4.34926 0
6.28319 4.34926 0
5.49779 4.34926 0
5.89049 4.34926 0
5.49779 4.97675 0
5.89049 4.97675 0
5.89049 4.34926 0
6.28319 4.34926 0
5.89049 4.97675 0
6.28319 4.97675 0
0 4.97675 0
0.392699 4.97675 0
0 5.60411 0
0.392699 5.60411 0
0.392699 4.97675 0
0.785398 4.97675 0
0.392699 5.60411 0
0.785398 5.60411 0
0 5.60411 0
0.392699 5.60411 0
0 6.23136 0
0.392699 6.23136 0
0.392699 5.60411 0
0.785398 5.60411 0
0.392699 6.23136 0
0.785398 6.23136 0
0.785398 4.97675 0
1.1781 4.97675 0
0.785398 5.60411 0
1.1781 5.60411 0
1.1781 4.97675 0
1.5708 4.97675 0
1.1781 5.60411 0
1.5708 5.60411 0
0.785398 5.60411 0
1.1781 5.60411 0
0.785398 6.23136 0
1.1781 6.23136 0
1.1781 5.60411 0
1.5708 5.60411 0
1.1781 6.23136 0
1.5708 6.23136 0
0 6.23136 0
0.392699 6.23136 0
0 6.85852 0
0.392699 6.85852 0
0.392699 6.23136 0
0.785398 6.23136 0
0.392699 6.85852 0
0.785398 6.85852 0
0 6.85852 0
0.392699 6.85852 0
0 7.48569 0
0.392699 7.48569 0
0.392699 6.85852 0
0.785398 6.85852 0
0.392699 7.48569 0
0.785398 7.48569 0
0.785398 6.23136 0
1.1781 6.23136 0
0.785398 6.85852 0
[...]
POINT_DATA 5120
VECTORS uf double
0 1 0
-2.33225e-13 1 0
0 1.00265 0
-2.28929e-13 1.00265 0
-2.33225e-13 1 0
2.26368e-14 1 0
-2.28929e-13 1.00265 0
2.00198e-14 1.00265 0
0 1.00265 0
2.1717e-13 1.00265 0
0 1.00402 0
2.05772e-13 1.00402 0
2.1717e-13 1.00265 0
-6.08507e-14 1.00265 0
2.05772e-13 1.00402 0
-6.96253e-14 1.00402 0
2.26368e-14 1 0
3.43871e-13 1 0
2.00198e-14 1.00265 0
3.34487e-13 1.00265 0
3.43871e-13 1 0
8.92458e-14 1 0
3.34487e-13 1.00265 0
8.86809e-14 1.00265 0
-6.08507e-14 1.00265 0
-3.26712e-13 1.00265 0
-6.96253e-14 1.00402 0
-3.10792e-13 1.00402 0
-3.26712e-13 1.00265 0
-8.4988e-14 1.00265 0
-3.10792e-13 1.00402 0
-8.66486e-14 1.00402 0
0 1.00402 0
-3.78101e-14 1.00402 0
0 1.00568 0
-3.58121e-14 1.00568 0
-3.78101e-14 1.00402 0
1.44354e-13 1.00402 0
-3.58121e-14 1.00568 0
1.51359e-13 1.00568 0
0 1.00568 0
4.73845e-14 1.00568 0
0 1.00721 0
5.20779e-14 1.00721 0
4.73845e-14 1.00568 0
-9.51088e-14 1.00568 0
5.20779e-14 1.00721 0
-8.46148e-14 1.00721 0
1.44354e-13 1.00402 0
-2.52153e-14 1.00402 0
1.51359e-13 1.00568 0
-1.61612e-15 1.00568 0
-2.52153e-14 1.00402 0
-7.57385e-15 1.00402 0
-1.61612e-15 1.00568 0
7.20759e-15 1.00568 0
-9.51088e-14 1.00568 0
9.03647e-14 1.00568 0
-8.46148e-14 1.00721 0
9.19279e-14 1.00721 0
9.03647e-14 1.00568 0
-5.73626e-14 1.00568 0
9.19279e-14 1.00721 0
-4.31247e-14 1.00721 0
8.92458e-14 1 0
-2.42557e-14 1 0
8.86809e-14 1.00265 0
-1.20114e-14 1.00265 0
-2.42557e-14 1 0
-2.44176e-15 1 0
-1.20114e-14 1.00265 0
3.23345e-15 1.00265 0
-8.4988e-14 1.00265 0
1.30362e-14 1.00265 0
-8.66486e-14 1.00402 0
2.74942e-14 1.00402 0
1.30362e-14 1.00265 0
-1.03998e-15 1.00265 0
2.74942e-14 1.00402 0
3.67464e-15 1.00402 0
-2.44176e-15 1 0
4.36475e-15 1 0
3.23345e-15 1.00265 0
2.13743e-15 1.00265 0
4.36475e-15 1 0
1.93016e-15 1 0
2.13743e-15 1.00265 0
-5.77384e-17 1.00265 0
-1.03998e-15 1.00265 0
-1.11585e-14 1.00265 0
3.67464e-15 1.00402 0
1.31993e-14 1.00402 0
-1.11585e-14 1.00265 0
-2.61996e-15 1.00265 0
1.31993e-14 1.00402 0
8.69398e-15 1.00402 0
-7.57385e-15 1.00402 0
1.03085e-13 1.00402 0
7.20759e-15 1.00568 0
1.14428e-13 1.00568 0
1.03085e-13 1.00402 0
9.11086e-16 1.00402 0
1.14428e-13 1.00568 0
1.7675e-15 1.00568 0
-5.73626e-14 1.00568 0
-9.72519e-14 1.00568 0
-4.31247e-14 1.00721 0
-1.00995e-13 1.00721 0
-9.72519e-14 1.00568 0
-1.44526e-15 1.00568 0
-1.00995e-13 1.00721 0
-4.35558e-15 1.00721 0
9.11086e-16 1.00402 0
-7.6509e-15 1.00402 0
1.7675e-15 1.00568 0
8.30907e-15 1.00568 0
-7.6509e-15 1.00402 0
-1.272e-15 1.00402 0
8.30907e-15 1.00568 0
4.00861e-15 1.00568 0
-1.44526e-15 1.00568 0
-7.20727e-15 1.00568 0
-4.35558e-15 1.00721 0
1.69467e-15 1.00721 0
-7.20727e-15 1.00568 0
-2.37892e-15 1.00568 0
1.69467e-15 1.00721 0
-5.80587e-15 1.00721 0
0 1.00721 0
-1.2125e-13 1.00721 0
0 1.00874 0
-1.09496e-13 1.00874 0
-1.2125e-13 1.00721 0
1.03186e-14 1.00721 0
-1.09496e-13 1.00874 0
8.55223e-15 1.00874 0
0 1.00874 0
1.29826e-13 1.00874 0
0 1.01023 0
1.26237e-13 1.01023 0
1.29826e-13 1.00874 0
4.27076e-14 1.00874 0
1.26237e-13 1.01023 0
5.37634e-14 1.01023 0
1.03186e-14 1.00721 0
-1.12557e-13 1.00721 0
8.55223e-15 1.00874 0
-8.97387e-14 1.00874 0
-1.12557e-13 1.00721 0
5.75383e-14 1.00721 0
-8.97387e-14 1.00874 0
5.60219e-14 1.00874 0
4.27076e-14 1.00874 0
8.97783e-14 1.00874 0
5.37634e-14 1.01023 0
8.90419e-14 1.01023 0
8.97783e-14 1.00874 0
-6.88704e-14 1.00874 0
8.90419e-14 1.01023 0
-5.97198e-14 1.01023 0
0 1.01023 0
5.05358e-15 1.01023 0
0 1.0117 0
-4.01698e-15 1.0117 0
5.05358e-15 1.01023 0
-2.27015e-13 1.01023 0
-4.01698e-15 1.0117 0
-2.17036e-13 1.0117 0
0 1.0117 0
1.55028e-14 1.0117 0
0 1.01314 0
1.02612e-14 1.01314 0
1.55028e-14 1.0117 0
2.1875e-13 1.0117 0
1.02612e-14 1.01314 0
2.17002e-13 1.01314 0
-2.27015e-13 1.01023 0
-8.2287e-14 1.01023 0
-2.17036e-13 1.0117 0
-7.94263e-14 1.0117 0
-8.2287e-14 1.01023 0
1.4772e-13 1.01023 0
-7.94263e-14 1.0117 0
1.44722e-13 1.0117 0
2.1875e-13 1.0117 0
3.33391e-14 1.0117 0
2.17002e-13 1.01314 0
3.48215e-14 1.01314 0
3.33391e-14 1.0117 0
-1.54967e-13 1.0117 0
3.48215e-14 1.01314 0
-1.44563e-13 1.01314 0
5.75383e-14 1.00721 0
6.7364e-14 1.00721 0
5.60219e-14 1.00874 0
6.56787e-14 1.00874 0
6.7364e-14 1.00721 0
-2.83215e-15 1.00721 0
6.56787e-14 1.00874 0
9.35958e-15 1.00874 0
-6.88704e-14 1.00874 0
-8.228e-14 1.00874 0
-5.97198e-14 1.01023 0
-8.09021e-14 1.01023 0
-8.228e-14 1.00874 0
-4.75655e-14 1.00874 0
-8.09021e-14 1.01023 0
-3.43013e-14 1.01023 0
-2.83215e-15 1.00721 0
-9.79458e-16 1.00721 0
9.35958e-15 1.00874 0
2.62247e-16 1.00874 0
-9.79458e-16 1.00721 0
-2.4189e-15 1.00721 0
2.62247e-16 1.00874 0
8.33844e-15 1.00874 0
-4.75655e-14 1.00874 0
-4.71736e-15 1.00874 0
-3.43013e-14 1.01023 0
8.10189e-15 1.01023 0
-4.71736e-15 1.00874 0
6.02007e-14 1.00874 0
8.10189e-15 1.01023 0
6.53544e-14 1.01023 0
1.4772e-13 1.01023 0
-1.3197e-14 1.01023 0
1.44722e-13 1.0117 0
-8.3887e-15 1.0117 0
-1.3197e-14 1.01023 0
3.49897e-14 1.01023 0
-8.3887e-15 1.0117 0
4.56309e-14 1.0117 0
-1.54967e-13 1.0117 0
-4.79292e-14 1.0117 0
-1.44563e-13 1.01314 0
-3.9981e-14 1.01314 0
-4.79292e-14 1.0117 0
-1.03924e-14 1.0117 0
-3.9981e-14 1.01314 0
-7.80637e-15 1.01314 0
3.49897e-14 1.01023 0
-7.85895e-15 1.01023 0
4.56309e-14 1.0117 0
-6.16863e-15 1.0117 0
-7.85895e-15 1.01023 0
-6.67993e-14 1.01023 0
-6.16863e-15 1.0117 0
-5.59342e-14 1.0117 0
-1.03924e-14 1.0117 0
1.57951e-14 1.0117 0
-7.80637e-15 1.01314 0
1.92221e-14 1.01314 0
1.57951e-14 1.0117 0
-9.74502e-15 1.0117 0
1.92221e-14 1.01314 0
-3.09643e-15 1.01314 0
1.93016e-15 1 0
2.62455e-16 1 0
-5.77384e-17 1.00265 0
2.28154e-15 1.00265 0
2.62455e-16 1 0
5.33926e-15 1 0
2.28154e-15 1.00265 0
-3.22405e-16 1.00265 0
-2.61996e-15 1.00265 0
7.59012e-15 1.00265 0
8.69398e-15 1.00402 0
3.16327e-17 1.00402 0
7.59012e-15 1.00265 0
-1.26817e-15 1.00265 0
3.16327e-17 1.00402 0
2.28617e-15 1.00402 0
5.33926e-15 1 0
4.16789e-15 1 0
-3.22405e-16 1.00265 0
4.91656e-15 1.00265 0
4.16789e-15 1 0
-1.30083e-15 1 0
4.91656e-15 1.00265 0
8.14603e-15 1.00265 0
-1.26817e-15 1.00265 0
-1.28216e-14 1.00265 0
2.28617e-15 1.00402 0
9.19061e-15 1.00402 0
-1.28216e-14 1.00265 0
-1.86804e-15 1.00265 0
9.19061e-15 1.00402 0
2.79216e-15 1.00402 0
-1.272e-15 1.00402 0
2.28407e-15 1.00402 0
4.00861e-15 1.00568 0
7.07465e-15 1.00568 0
2.28407e-15 1.00402 0
-6.1168e-15 1.00402 0
7.07465e-15 1.00568 0
1.67986e-14 1.00568 0
-2.37892e-15 1.00568 0
-1.96595e-15 1.00568 0
-5.80587e-15 1.00721 0
8.64807e-16 1.00721 0
-1.96595e-15 1.00568 0
-1.92382e-15 1.00568 0
8.64807e-16 1.00721 0
1.7135e-14 1.00721 0
-6.1168e-15 1.00402 0
1.27878e-14 1.00402 0
1.67986e-14 1.00568 0
-5.49867e-15 1.00568 0
1.27878e-14 1.00402 0
-1.77609e-15 1.00402 0
-5.49867e-15 1.00568 0
1.79646e-14 1.00568 0
-1.92382e-15 1.00568 0
-3.45271e-15 1.00568 0
1.7135e-14 1.00721 0
1.40718e-15 1.00721 0
-3.45271e-15 1.00568 0
1.14394e-15 1.00568 0
1.40718e-15 1.00721 0
5.63395e-15 1.00721 0
-1.30083e-15 1 0
2.6903e-15 1 0
8.14603e-15 1.00265 0
8.3791e-15 1.00265 0
2.6903e-15 1 0
3.35034e-15 1 0
8.3791e-15 1.00265 0
8.71706e-15 1.00265 0
-1.86804e-15 1.00265 0
1.20364e-15 1.00265 0
2.79216e-15 1.00402 0
-1.22844e-15 1.00402 0
1.20364e-15 1.00265 0
-8.35239e-15 1.00265 0
-1.22844e-15 1.00402 0
1.53684e-14 1.00402 0
3.35034e-15 1 0
2.12886e-15 1 0
8.71706e-15 1.00265 0
1.4527e-14 1.00265 0
2.12886e-15 1 0
1.43823e-15 1 0
1.4527e-14 1.00265 0
1.29524e-14 1.00265 0
-8.35239e-15 1.00265 0
2.87062e-16 1.00265 0
1.53684e-14 1.00402 0
1.635e-15 1.00402 0
2.87062e-16 1.00265 0
-8.45354e-15 1.00265 0
1.635e-15 1.00402 0
8.81431e-15 1.00402 0
-1.77609e-15 1.00402 0
-9.66091e-15 1.00402 0
1.79646e-14 1.00568 0
1.03743e-14 1.00568 0
-9.66091e-15 1.00402 0
3.18858e-15 1.00402 0
1.03743e-14 1.00568 0
-1.00507e-15 1.00568 0
1.14394e-15 1.00568 0
1.61854e-15 1.00568 0
5.63395e-15 1.00721 0
7.35224e-15 1.00721 0
1.61854e-15 1.00568 0
4.265e-15 1.00568 0
7.35224e-15 1.00721 0
-2.34043e-15 1.00721 0
3.18858e-15 1.00402 0
-1.60797e-15 1.00402 0
-1.00507e-15 1.00568 0
1.18282e-14 1.00568 0
-1.60797e-15 1.00402 0
-8.23227e-15 1.00402 0
1.18282e-14 1.00568 0
1.04465e-14 1.00568 0
4.265e-15 1.00568 0
-3.21323e-15 1.00568 0
-2.34043e-15 1.00721 0
-1.17452e-15 1.00721 0
-3.21323e-15 1.00568 0
-9.84227e-15 1.00568 0
-1.17452e-15 1.00721 0
5.09328e-15 1.00721 0
-2.4189e-15 1.00721 0
-3.2941e-15 1.00721 0
8.33844e-15 1.00874 0
8.06962e-15 1.00874 0
-3.2941e-15 1.00721 0
-1.70993e-14 1.00721 0
8.06962e-15 1.00874 0
-4.45014e-15 1.00874 0
6.02007e-14 1.00874 0
-1.76123e-14 1.00874 0
6.53544e-14 1.01023 0
7.652e-16 1.01023 0
-1.76123e-14 1.00874 0
1.93565e-15 1.00874 0
7.652e-16 1.01023 0
6.1036e-15 1.01023 0
-1.70993e-14 1.00721 0
6.45966e-15 1.00721 0
-4.45014e-15 1.00874 0
2.61351e-15 1.00874 0
6.45966e-15 1.00721 0
-6.02701e-15 1.00721 0
2.61351e-15 1.00874 0
1.10112e-14 1.00874 0
1.93565e-15 1.00874 0
2.31625e-15 1.00874 0
6.1036e-15 1.01023 0
4.59993e-15 1.01023 0
2.31625e-15 1.00874 0
-2.32729e-15 1.00874 0
4.59993e-15 1.01023 0
4.44956e-15 1.01023 0
-6.67993e-14 1.01023 0
1.3597e-14 1.01023 0
-5.59342e-14 1.0117 0
1.77604e-14 1.0117 0
1.3597e-14 1.01023 0
-6.6994e-15 1.01023 0
1.77604e-14 1.0117 0
-3.42517e-15 1.0117 0
-9.74502e-15 1.0117 0
-1.6349e-14 1.0117 0
-3.09643e-15 1.01314 0
-7.44737e-15 1.01314 0
-1.6349e-14 1.0117 0
3.3652e-14 1.0117 0
-7.44737e-15 1.01314 0
3.61183e-14 1.01314 0
-6.6994e-15 1.01023 0
-4.64064e-15 1.01023 0
-3.42517e-15 1.0117 0
6.2655e-15 1.0117 0
-4.64064e-15 1.01023 0
-3.66953e-15 1.01023 0
6.2655e-15 1.0117 0
5.18638e-15 1.0117 0
3.3652e-14 1.0117 0
3.14396e-15 1.0117 0
3.61183e-14 1.01314 0
3.16559e-15 1.01314 0
3.14396e-15 1.0117 0
-5.52802e-15 1.0117 0
3.16559e-15 1.01314 0
5.46509e-15 1.01314 0
-6.02701e-15 1.00721 0
-5.34886e-16 1.00721 0
1.10112e-14 1.00874 0
4.61358e-15 1.00874 0
-5.34886e-16 1.00721 0
6.89717e-15 1.00721 0
4.61358e-15 1.00874 0
-1.39163e-15 1.00874 0
-2.32729e-15 1.00874 0
-6.06863e-15 1.00874 0
4.44956e-15 1.01023 0
3.9094e-15 1.01023 0
-6.06863e-15 1.00874 0
2.57753e-15 1.00874 0
3.9094e-15 1.01023 0
-2.1803e-16 1.01023 0
6.89717e-15 1.00721 0
8.19236e-15 1.00721 0
-1.39163e-15 1.00874 0
1.58899e-15 1.00874 0
8.19236e-15 1.00721 0
6.16766e-15 1.00721 0
1.58899e-15 1.00874 0
-7.78928e-16 1.00874 0
2.57753e-15 1.00874 0
-4.334e-15 1.00874 0
-2.1803e-16 1.01023 0
6.5419e-15 1.01023 0
-4.334e-15 1.00874 0
-7.33431e-15 1.00874 0
6.5419e-15 1.01023 0
1.23175e-14 1.01023 0
-3.66953e-15 1.01023 0
1.19698e-16 1.01023 0
5.18638e-15 1.0117 0
3.76082e-15 1.0117 0
1.19698e-16 1.01023 0
-7.14904e-15 1.01023 0
3.76082e-15 1.0117 0
3.36242e-15 1.0117 0
-5.52802e-15 1.0117 0
-3.11443e-15 1.0117 0
5.46509e-15 1.01314 0
1.31789e-15 1.01314 0
-3.11443e-15 1.0117 0
7.25366e-16 1.0117 0
1.31789e-15 1.01314 0
2.1296e-15 1.01314 0
-7.14904e-15 1.01023 0
2.65912e-15 1.01023 0
3.36242e-15 1.0117 0
1.02157e-15 1.0117 0
2.65912e-15 1.01023 0
-3.74878e-15 1.01023 0
1.02157e-15 1.0117 0
8.55533e-15 1.0117 0
7.25366e-16 1.0117 0
-3.99024e-15 1.0117 0
2.1296e-15 1.01314 0
-1.0052e-15 1.01314 0
-3.99024e-15 1.0117 0
1.14989e-15 1.0117 0
-1.0052e-15 1.01314 0
-2.10119e-15 1.01314 0
0 1.01314 0
-8.65509e-14 1.01314 0
0 1.01457 0
-8.55957e-14 1.01457 0
-8.65509e-14 1.01314 0
-1.46529e-13 1.01314 0
-8.55957e-14 1.01457 0
-1.43179e-13 1.01457 0
0 1.01457 0
1.02554e-13 1.01457 0
0 1.01599 0
9.25982e-14 1.01599 0
1.02554e-13 1.01457 0
1.51484e-13 1.01457 0
9.25982e-14 1.01599 0
1.55031e-13 1.01599 0
-1.46529e-13 1.01314 0
5.25741e-14 1.01314 0
-1.43179e-13 1.01457 0
5.09984e-14 1.01457 0
5.25741e-14 1.01314 0
6.8401e-14 1.01314 0
5.09984e-14 1.01457 0
6.98305e-14 1.01457 0
1.51484e-13 1.01457 0
-1.56896e-13 1.01457 0
1.55031e-13 1.01599 0
-1.53889e-13 1.01599 0
-1.56896e-13 1.01457 0
-2.50739e-14 1.01457 0
-1.53889e-13 1.01599 0
-2.74499e-14 1.01599 0
0 1.01599 0
-8.67406e-14 1.01599 0
0 1.01741 0
-8.94591e-14 1.01741 0
-8.67406e-14 1.01599 0
-1.04007e-13 1.01599 0
-8.94591e-14 1.01741 0
-1.00407e-13 1.01741 0
0 1.01741 0
5.67477e-14 1.01741 0
0 1.01884 0
5.83391e-14 1.01884 0
5.67477e-14 1.01741 0
4.25169e-14 1.01741 0
5.83391e-14 1.01884 0
4.71351e-14 1.01884 0
-1.04007e-13 1.01599 0
1.26145e-13 1.01599 0
-1.00407e-13 1.01741 0
1.24794e-13 1.01741 0
1.26145e-13 1.01599 0
4.7423e-14 1.01599 0
1.24794e-13 1.01741 0
5.20891e-14 1.01741 0
4.25169e-14 1.01741 0
-6.94485e-14 1.01741 0
4.71351e-14 1.01884 0
-6.5949e-14 1.01884 0
-6.94485e-14 1.01741 0
-1.76995e-14 1.01741 0
-6.5949e-14 1.01884 0
-1.86554e-14 1.01884 0
6.8401e-14 1.01314 0
8.82118e-14 1.01314 0
6.98305e-14 1.01457 0
9.05076e-14 1.01457 0
8.82118e-14 1.01314 0
1.64179e-14 1.01314 0
9.05076e-14 1.01457 0
1.29638e-14 1.01457 0
-2.50739e-14 1.01457 0
-2.33226e-14 1.01457 0
-2.74499e-14 1.01599 0
-1.95493e-14 1.01599 0
-2.33226e-14 1.01457 0
-1.24401e-14 1.01457 0
-1.95493e-14 1.01599 0
-5.65734e-15 1.01599 0
1.64179e-14 1.01314 0
-1.37878e-14 1.01314 0
1.29638e-14 1.01457 0
-9.82166e-15 1.01457 0
-1.37878e-14 1.01314 0
1.05337e-14 1.01314 0
-9.82166e-15 1.01457 0
6.62462e-15 1.01457 0
-1.24401e-14 1.01457 0
-1.58967e-15 1.01457 0
-5.65734e-15 1.01599 0
8.44232e-15 1.01599 0
-1.58967e-15 1.01457 0
-6.09353e-15 1.01457 0
8.44232e-15 1.01599 0
1.94628e-15 1.01599 0
4.7423e-14 1.01599 0
7.57168e-15 1.01599 0
5.20891e-14 1.01741 0
6.52698e-15 1.01741 0
7.57168e-15 1.01599 0
1.14835e-15 1.01599 0
6.52698e-15 1.01741 0
6.65111e-15 1.01741 0
-1.76995e-14 1.01741 0
-1.88057e-14 1.01741 0
-1.86554e-14 1.01884 0
-1.18584e-14 1.01884 0
-1.88057e-14 1.01741 0
-6.36942e-15 1.01741 0
-1.18584e-14 1.01884 0
2.19979e-15 1.01884 0
1.14835e-15 1.01599 0
-9.84372e-16 1.01599 0
6.65111e-15 1.01741 0
5.35056e-15 1.01741 0
-9.84372e-16 1.01599 0
-1.03021e-14 1.01599 0
5.35056e-15 1.01741 0
9.58946e-15 1.01741 0
-6.36942e-15 1.01741 0
-2.47352e-15 1.01741 0
2.19979e-15 1.01884 0
2.35851e-15 1.01884 0
-2.47352e-15 1.01741 0
-6.03583e-15 1.01741 0
2.35851e-15 1.01884 0
6.05842e-15 1.01884 0
0 1.01884 0
1.90249e-14 1.01884 0
0 1.02029 0
1.73226e-14 1.02029 0
1.90249e-14 1.01884 0
-3.90777e-14 1.01884 0
1.73226e-14 1.02029 0
-3.79448e-14 1.02029 0
0 1.02029 0
-3.80603e-14 1.02029 0
0 1.02169 0
-3.64449e-14 1.02169 0
-3.80603e-14 1.02029 0
3.71211e-14 1.02029 0
-3.64449e-14 1.02169 0
3.65611e-14 1.02169 0
-3.90777e-14 1.01884 0
1.03551e-14 1.01884 0
-3.79448e-14 1.02029 0
1.57854e-14 1.02029 0
1.03551e-14 1.01884 0
-1.89421e-14 1.01884 0
1.57854e-14 1.02029 0
-1.35577e-14 1.02029 0
3.71211e-14 1.02029 0
-1.46243e-14 1.02029 0
3.65611e-14 1.02169 0
-1.27387e-14 1.02169 0
-1.46243e-14 1.02029 0
-9.03732e-15 1.02029 0
-1.27387e-14 1.02169 0
-4.89801e-15 1.02169 0
0 1.02169 0
6.91363e-15 1.02169 0
0 1.02291 0
3.61666e-15 1.02291 0
6.91363e-15 1.02169 0
-3.51754e-14 1.02169 0
3.61666e-15 1.02291 0
-3.60859e-14 1.02291 0
0 1.02291 0
5.97843e-15 1.02291 0
0 1.02349 0
5.02276e-15 1.02349 0
5.97843e-15 1.02291 0
-4.3633e-15 1.02291 0
5.02276e-15 1.02349 0
5.24701e-15 1.02349 0
-3.51754e-14 1.02169 0
1.41401e-14 1.02169 0
-3.60859e-14 1.02291 0
1.40351e-14 1.02291 0
1.41401e-14 1.02169 0
5.62305e-15 1.02169 0
1.40351e-14 1.02291 0
5.05922e-15 1.02291 0
-4.3633e-15 1.02291 0
-1.03264e-14 1.02291 0
5.24701e-15 1.02349 0
-1.95771e-14 1.02349 0
-1.03264e-14 1.02291 0
1.79246e-15 1.02291 0
-1.95771e-14 1.02349 0
2.12401e-14 1.02349 0
-1.89421e-14 1.01884 0
-2.00769e-14 1.01884 0
-1.35577e-14 1.02029 0
-1.17264e-14 1.02029 0
-2.00769e-14 1.01884 0
-1.32408e-15 1.01884 0
-1.17264e-14 1.02029 0
8.54439e-16 1.02029 0
-9.03732e-15 1.02029 0
1.59384e-14 1.02029 0
-4.89801e-15 1.02169 0
1.54246e-14 1.02169 0
1.59384e-14 1.02029 0
-3.68776e-15 1.02029 0
1.54246e-14 1.02169 0
2.53139e-15 1.02169 0
-1.32408e-15 1.01884 0
1.47484e-16 1.01884 0
8.54439e-16 1.02029 0
-3.68419e-16 1.02029 0
1.47484e-16 1.01884 0
-7.09093e-15 1.01884 0
-3.68419e-16 1.02029 0
3.82681e-15 1.02029 0
-3.68776e-15 1.02029 0
-5.55214e-15 1.02029 0
2.53139e-15 1.02169 0
1.89441e-15 1.02169 0
-5.55214e-15 1.02029 0
-4.64911e-15 1.02029 0
1.89441e-15 1.02169 0
2.43343e-15 1.02169 0
5.62305e-15 1.02169 0
-1.9961e-14 1.02169 0
5.05922e-15 1.02291 0
-1.57856e-14 1.02291 0
-1.9961e-14 1.02169 0
-2.80527e-15 1.02169 0
-1.57856e-14 1.02291 0
2.15616e-15 1.02291 0
1.79246e-15 1.02291 0
3.93056e-16 1.02291 0
2.12401e-14 1.02349 0
8.83921e-15 1.02349 0
3.93056e-16 1.02291 0
-3.06179e-15 1.02291 0
8.83921e-15 1.02349 0
-1.26427e-15 1.02349 0
-2.80527e-15 1.02169 0
-1.91314e-15 1.02169 0
2.15616e-15 1.02291 0
1.65004e-15 1.02291 0
-1.91314e-15 1.02169 0
-2.86345e-16 1.02169 0
1.65004e-15 1.02291 0
9.71623e-16 1.02291 0
-3.06179e-15 1.02291 0
-1.40733e-15 1.02291 0
-1.26427e-15 1.02349 0
8.19651e-15 1.02349 0
-1.40733e-15 1.02291 0
-5.48524e-16 1.02291 0
8.19651e-15 1.02349 0
-2.33434e-14 1.02349 0
1.05337e-14 1.01314 0
1.59081e-14 1.01314 0
6.62462e-15 1.01457 0
1.86543e-14 1.01457 0
1.59081e-14 1.01314 0
-2.49211e-14 1.01314 0
1.86543e-14 1.01457 0
-2.36614e-14 1.01457 0
-6.09353e-15 1.01457 0
-6.91065e-15 1.01457 0
1.94628e-15 1.01599 0
1.33294e-15 1.01599 0
-6.91065e-15 1.01457 0
1.94245e-15 1.01457 0
1.33294e-15 1.01599 0
-3.30919e-15 1.01599 0
-2.49211e-14 1.01314 0
-8.67934e-16 1.01314 0
-2.36614e-14 1.01457 0
1.87893e-15 1.01457 0
-8.67934e-16 1.01314 0
-1.75566e-15 1.01314 0
1.87893e-15 1.01457 0
5.81659e-15 1.01457 0
1.94245e-15 1.01457 0
-4.27191e-15 1.01457 0
-3.30919e-15 1.01599 0
2.5339e-15 1.01599 0
-4.27191e-15 1.01457 0
-4.28331e-15 1.01457 0
2.5339e-15 1.01599 0
6.01754e-15 1.01599 0
-1.03021e-14 1.01599 0
-3.83734e-15 1.01599 0
9.58946e-15 1.01741 0
6.90716e-15 1.01741 0
-3.83734e-15 1.01599 0
-1.76422e-15 1.01599 0
6.90716e-15 1.01741 0
5.05357e-15 1.01741 0
-6.03583e-15 1.01741 0
-3.9219e-15 1.01741 0
6.05842e-15 1.01884 0
4.69006e-15 1.01884 0
-3.9219e-15 1.01741 0
7.43896e-16 1.01741 0
4.69006e-15 1.01884 0
6.9025e-16 1.01884 0
-1.76422e-15 1.01599 0
9.45461e-16 1.01599 0
5.05357e-15 1.01741 0
4.00586e-15 1.01741 0
9.45461e-16 1.01599 0
-8.16029e-16 1.01599 0
4.00586e-15 1.01741 0
2.70633e-15 1.01741 0
7.43896e-16 1.01741 0
-6.60234e-15 1.01741 0
6.9025e-16 1.01884 0
3.85688e-15 1.01884 0
-6.60234e-15 1.01741 0
-7.42006e-16 1.01741 0
3.85688e-15 1.01884 0
2.86642e-15 1.01884 0
-1.75566e-15 1.01314 0
-3.1655e-16 1.01314 0
5.81659e-15 1.01457 0
5.35405e-15 1.01457 0
-3.1655e-16 1.01314 0
4.15899e-15 1.01314 0
5.35405e-15 1.01457 0
5.38884e-15 1.01457 0
-4.28331e-15 1.01457 0
-6.60833e-16 1.01457 0
6.01754e-15 1.01599 0
1.49081e-16 1.01599 0
-6.60833e-16 1.01457 0
-3.09595e-15 1.01457 0
1.49081e-16 1.01599 0
8.91945e-16 1.01599 0
4.15899e-15 1.01314 0
-1.18403e-15 1.01314 0
5.38884e-15 1.01457 0
4.15701e-15 1.01457 0
-1.18403e-15 1.01314 0
4.14152e-16 1.01314 0
4.15701e-15 1.01457 0
1.56571e-15 1.01457 0
-3.09595e-15 1.01457 0
-6.57552e-16 1.01457 0
8.91945e-16 1.01599 0
6.97176e-16 1.01599 0
-6.57552e-16 1.01457 0
-2.03828e-15 1.01457 0
6.97176e-16 1.01599 0
6.47263e-15 1.01599 0
-8.16029e-16 1.01599 0
1.81381e-16 1.01599 0
2.70633e-15 1.01741 0
1.40585e-15 1.01741 0
1.81381e-16 1.01599 0
3.27922e-15 1.01599 0
1.40585e-15 1.01741 0
6.54581e-16 1.01741 0
-7.42006e-16 1.01741 0
-2.84773e-16 1.01741 0
2.86642e-15 1.01884 0
3.2938e-15 1.01884 0
-2.84773e-16 1.01741 0
-3.78374e-15 1.01741 0
3.2938e-15 1.01884 0
4.73212e-15 1.01884 0
3.27922e-15 1.01599 0
2.98474e-16 1.01599 0
6.54581e-16 1.01741 0
4.91758e-15 1.01741 0
2.98474e-16 1.01599 0
-2.63842e-15 1.01599 0
4.91758e-15 1.01741 0
7.31713e-15 1.01741 0
-3.78374e-15 1.01741 0
-5.56954e-15 1.01741 0
4.73212e-15 1.01884 0
2.95817e-16 1.01884 0
-5.56954e-15 1.01741 0
3.99192e-15 1.01741 0
2.95817e-16 1.01884 0
-2.06684e-15 1.01884 0
-7.09093e-15 1.01884 0
-8.09443e-15 1.01884 0
3.82681e-15 1.02029 0
-1.36791e-15 1.02029 0
-8.09443e-15 1.01884 0
-4.18754e-15 1.01884 0
-1.36791e-15 1.02029 0
1.04058e-15 1.02029 0
-4.64911e-15 1.02029 0
1.87358e-16 1.02029 0
2.43343e-15 1.02169 0
2.02536e-15 1.02169 0
1.87358e-16 1.02029 0
-1.44134e-15 1.02029 0
2.02536e-15 1.02169 0
1.28368e-15 1.02169 0
-4.18754e-15 1.01884 0
4.08863e-15 1.01884 0
1.04058e-15 1.02029 0
7.97573e-16 1.02029 0
4.08863e-15 1.01884 0
-3.2321e-15 1.01884 0
7.97573e-16 1.02029 0
4.44341e-15 1.02029 0