# vtk DataFile Version 3.0
#This file was generated by the deal.II library on 2018/10/11 at 23:46:19
ASCII
DATASET UNSTRUCTURED_GRID

POINTS 5120 double
0 0 0
0.392699 0 0
0 0.620553 0
0.392699 0.620553 0
0.392699 0 0
0.785398 0 0
0.392699 0.620553 0
0.785398 0.620553 0
0 0.620553 0
0.392699 0.620553 0
0 1.24586 0
0.392699 1.24586 0
0.392699 0.620553 0
0.785398 0.620553 0
0.392699 1.24586 0
0.785398 1.24586 0
0.785398 0 0
1.1781 0 0
0.785398 0.620553 0
1.1781 0.620553 0
1.1781 0 0
1.5708 0 0
1.1781 0.620553 0
1.5708 0.620553 0
0.785398 0.620553 0
1.1781 0.620553 0
0.785398 1.24586 0
1.1781 1.24586 0
1.1781 0.620553 0
1.5708 0.620553 0
1.1781 1.24586 0
1.5708 1.24586 0
0 1.24586 0
0.392699 1.24586 0
0 1.87096 0
0.392699 1.87096 0
0.392699 1.24586 0
0.785398 1.24586 0
0.392699 1.87096 0
0.785398 1.87096 0
0 1.87096 0
0.392699 1.87096 0
0 2.49622 0
0.392699 2.49622 0
0.392699 1.87096 0
0.785398 1.87096 0
0.392699 2.49622 0
0.785398 2.49622 0
0.785398 1.24586 0
1.1781 1.24586 0
0.785398 1.87096 0
1.1781 1.87096 0
1.1781 1.24586 0
1.5708 1.24586 0
1.1781 1.87096 0
1.5708 1.87096 0
0.785398 1.87096 0
1.1781 1.87096 0
0.785398 2.49622 0
1.1781 2.49622 0
1.1781 1.87096 0
1.5708 1.87096 0
1.1781 2.49622 0
1.5708 2.49622 0
1.5708 0 0
1.9635 0 0
1.5708 0.620553 0
1.9635 0.620553 0
1.9635 0 0
2.35619 0 0
1.9635 0.620553 0
2.35619 0.620553 0
1.5708 0.620553 0
1.9635 0.620553 0
1.5708 1.24586 0
1.9635 1.24586 0
1.9635 0.620553 0
2.35619 0.620553 0
1.9635 1.24586 0
2.35619 1.24586 0
2.35619 0 0
2.74889 0 0
2.35619 0.620553 0
2.74889 0.620553 0
2.74889 0 0
3.14159 0 0
2.74889 0.620553 0
3.14159 0.620553 0
2.35619 0.620553 0
2.74889 0.620553 0
2.35619 1.24586 0
2.74889 1.24586 0
2.74889 0.620553 0
3.14159 0.620553 0
2.74889 1.24586 0
3.14159 1.24586 0
1.5708 1.24586 0
1.9635 1.24586 0
1.5708 1.87096 0
1.9635 1.87096 0
1.9635 1.24586 0
2.35619 1.24586 0
1.9635 1.87096 0
2.35619 1.87096 0
1.5708 1.87096 0
1.9635 1.87096 0
1.5708 2.49622 0
1.9635 2.49622 0
1.9635 1.87096 0
2.35619 1.87096 0
1.9635 2.49622 0
2.35619 2.49622 0
2.35619 1.24586 0
2.74889 1.24586 0
2.35619 1.87096 0
2.74889 1.87096 0
2.74889 1.24586 0
3.14159 1.24586 0
2.74889 1.87096 0
3.14159 1.87096 0
2.35619 1.87096 0
2.74889 1.87096 0
2.35619 2.49622 0
2.74889 2.49622 0
2.74889 1.87096 0
3.14159 1.87096 0
2.74889 2.49622 0
3.14159 2.49622 0
0 2.49622 0
0.392699 2.49622 0
0 3.12143 0
0.392699 3.12143 0
0.392699 2.49622 0
0.785398 2.49622 0
0.392699 3.12143 0
0.785398 3.12143 0
0 3.12143 0
0.392699 3.12143 0
0 3.74664 0
0.392699 3.74664 0
0.392699 3.12143 0
0.785398 3.12143 0
0.392699 3.74664 0
0.785398 3.74664 0
0.785398 2.49622 0
1.1781 2.49622 0
0.785398 3.12143 0
1.1781 3.12143 0
1.1781 2.49622 0
1.5708 2.49622 0
1.1781 3.12143 0
1.5708 3.12143 0
0.785398 3.12143 0
1.1781 3.12143 0
0.785398 3.74664 0
1.1781 3.74664 0
1.1781 3.12143 0
1.5708 3.12143 0
1.1781 3.74664 0
1.5708 3.74664 0
0 3.74664 0
0.392699 3.74664 0
0 4.37183 0
0.392699 4.37183 0
0.392699 3.74664 0
0.785398 3.74664 0
0.392699 4.37183 0
0.785398 4.37183 0
0 4.37183 0
0.392699 4.37183 0
0 4.99701 0
0.392699 4.99701 0
0.392699 4.37183 0
0.785398 4.37183 0
0.392699 4.99701 0
0.785398 4.99701 0
0.785398 3.74664 0
1.1781 3.74664 0
0.785398 4.37183 0
1.1781 4.37183 0
1.1781 3.74664 0
1.5708 3.74664 0
1.1781 4.37183 0
1.5708 4.37183 0
0.785398 4.37183 0
1.1781 4.37183 0
0.785398 4.99701 0
1.1781 4.99701 0
1.1781 4.37183 0
1.5708 4.37183 0
1.1781 4.99701 0
1.5708 4.99701 0
1.5708 2.49622 0
1.9635 2.49622 0
1.5708 3.12143 0
1.9635 3.12143 0
1.9635 2.49622 0
2.35619 2.49622 0
1.9635 3.12143 0
2.35619 3.12143 0
1.5708 3.12143 0
1.9635 3.12143 0
1.5708 3.74664 0
1.9635 3.74664 0
1.9635 3.12143 0
2.35619 3.12143 0
1.9635 3.74664 0
2.35619 3.74664 0
2.35619 2.49622 0
2.74889 2.49622 0
2.35619 3.12143 0
2.74889 3.12143 0
2.74889 2.49622 0
3.14159 2.49622 0
2.74889 3.12143 0
3.14159 3.12143 0
2.35619 3.12143 0
2.74889 3.12143 0
2.35619 3.74664 0
2.74889 3.74664 0
2.74889 3.12143 0
3.14159 3.12143 0
2.74889 3.74664 0
3.14159 3.74664 0
1.5708 3.74664 0
1.9635 3.74664 0
1.5708 4.37183 0
1.9635 4.37183 0
1.9635 3.74664 0
2.35619 3.74664 0
1.9635 4.37183 0
2.35619 4.37183 0
1.5708 4.37183 0
1.9635 4.37183 0
1.5708 4.99701 0
1.9635 4.99701 0
1.9635 4.37183 0
2.35619 4.37183 0
1.9635 4.99701 0
2.35619 4.99701 0
2.35619 3.74664 0
2.74889 3.74664 0
2.35619 4.37183 0
2.74889 4.37183 0
2.74889 3.74664 0
3.14159 3.74664 0
2.74889 4.37183 0
3.14159 4.37183 0
2.35619 4.37183 0
2.74889 4.37183 0
2.35619 4.99701 0
2.74889 4.99701 0
2.74889 4.37183 0
3.14159 4.37183 0
2.74889 4.99701 0
3.14159 4.99701 0
3.14159 0 0
3.53429 0 0
3.14159 0.620553 0
3.53429 0.620553 0
3.53429 0 0
3.92699 0 0
3.53429 0.620553 0
3.92699 0.620553 0
3.14159 0.620553 0
3.53429 0.620553 0
3.14159 1.24586 0
3.53429 1.24586 0
3.53429 0.620553 0
3.92699 0.620553 0
3.53429 1.24586 0
3.92699 1.24586 0
3.92699 0 0
4.31969 0 0
3.92699 0.620553 0
4.31969 0.620553 0
4.31969 0 0
4.71239 0 0
4.31969 0.620553 0
4.71239 0.620553 0
3.92699 0.620553 0
4.31969 0.620553 0
3.92699 1.24586 0
4.31969 1.24586 0
4.31969 0.620553 0
4.71239 0.620553 0
4.31969 1.24586 0
4.71239 1.24586 0
3.14159 1.24586 0
3.53429 1.24586 0
3.14159 1.87096 0
3.53429 1.87096 0
3.53429 1.24586 0
3.92699 1.24586 0
3.53429 1.87096 0
3.92699 1.87096 0
3.14159 1.87096 0
3.53429 1.87096 0
3.14159 2.49622 0
3.53429 2.49622 0
3.53429 1.87096 0
3.92699 1.87096 0
3.53429 2.49622 0
3.92699 2.49622 0
3.92699 1.24586 0
4.31969 1.24586 0
3.92699 1.87096 0
4.31969 1.87096 0
4.31969 1.24586 0
4.71239 1.24586 0
4.31969 1.87096 0
4.71239 1.87096 0
3.92699 1.87096 0
4.31969 1.87096 0
3.92699 2.49622 0
4.31969 2.49622 0
4.31969 1.87096 0
4.71239 1.87096 0
4.31969 2.49622 0
4.71239 2.49622 0
4.71239 0 0
5.10509 0 0
4.71239 0.620553 0
5.10509 0.620553 0
5.10509 0 0
5.49779 0 0
5.10509 0.620553 0
5.49779 0.620553 0
4.71239 0.620553 0
5.10509 0.620553 0
4.71239 1.24586 0
5.10509 1.24586 0
5.10509 0.620553 0
5.49779 0.620553 0
5.10509 1.24586 0
5.49779 1.24586 0
5.49779 0 0
5.89049 0 0
5.49779 0.620553 0
5.89049 0.620553 0
5.89049 0 0
6.28319 0 0
5.89049 0.620553 0
6.28319 0.620553 0
5.49779 0.620553 0
5.89049 0.620553 0
5.49779 1.24586 0
5.89049 1.24586 0
5.89049 0.620553 0
6.28319 0.620553 0
5.89049 1.24586 0
6.28319 1.24586 0
4.71239 1.24586 0
5.10509 1.24586 0
4.71239 1.87096 0
5.10509 1.87096 0
5.10509 1.24586 0
5.49779 1.24586 0
5.10509 1.87096 0
5.49779 1.87096 0
4.71239 1.87096 0
5.10509 1.87096 0
4.71239 2.49622 0
5.10509 2.49622 0
5.10509 1.87096 0
5.49779 1.87096 0
5.10509 2.49622 0
5.49779 2.49622 0
5.49779 1.24586 0
5.89049 1.24586 0
5.49779 1.87096 0
5.89049 1.87096 0
5.89049 1.24586 0
6.28319 1.24586 0
5.89049 1.87096 0
6.28319 1.87096 0
5.49779 1.87096 0
5.89049 1.87096 0
5.49779 2.49622 0
5.89049 2.49622 0
5.89049 1.87096 0
6.28319 1.87096 0
5.89049 2.49622 0
6.28319 2.49622 0
3.14159 2.49622 0
3.53429 2.49622 0
3.14159 3.12143 0
3.53429 3.12143 0
3.53429 2.49622 0
3.92699 2.49622 0
3.53429 3.12143 0
3.92699 3.12143 0
3.14159 3.12143 0
3.53429 3.12143 0
3.14159 3.74664 0
3.53429 3.74664 0
3.53429 3.12143 0
3.92699 3.12143 0
3.53429 3.74664 0
3.92699 3.74664 0
3.92699 2.49622 0
4.31969 2.49622 0
3.92699 3.12143 0
4.31969 3.12143 0
4.31969 2.49622 0
4.71239 2.49622 0
4.31969 3.12143 0
4.71239 3.12143 0
3.92699 3.12143 0
4.31969 3.12143 0
3.92699 3.74664 0
4.31969 3.74664 0
4.31969 3.12143 0
4.71239 3.12143 0
4.31969 3.74664 0
4.71239 3.74664 0
3.14159 3.74664 0
3.53429 3.74664 0
3.14159 4.37183 0
3.53429 4.37183 0
3.53429 3.74664 0
3.92699 3.74664 0
3.53429 4.37183 0
3.92699 4.37183 0
3.14159 4.37183 0
3.53429 4.37183 0
3.14159 4.99701 0
3.53429 4.99701 0
3.53429 4.37183 0
3.92699 4.37183 0
3.53429 4.99701 0
3.92699 4.99701 0
3.92699 3.74664 0
4.31969 3.74664 0
3.92699 4.37183 0
4.31969 4.37183 0
4.31969 3.74664 0
4.71239 3.74664 0
4.31969 4.37183 0
4.71239 4.37183 0
3.92699 4.37183 0
4.31969 4.37183 0
3.92699 4.99701 0
4.31969 4.99701 0
4.31969 4.37183 0
4.71239 4.37183 0
4.31969 4.99701 0
4.71239 4.99701 0
4.71239 2.49622 0
5.10509 2.49622 0
4.71239 3.12143 0
5.10509 3.12143 0
5.10509 2.49622 0
5.49779 2.49622 0
5.10509 3.12143 0
5.49779 3.12143 0
4.71239 3.12143 0
5.10509 3.12143 0
4.71239 3.74664 0
5.10509 3.74664 0
5.10509 3.12143 0
5.49779 3.12143 0
5.10509 3.74664 0
5.49779 3.74664 0
5.49779 2.49622 0
5.89049 2.49622 0
5.49779 3.12143 0
5.89049 3.12143 0
5.89049 2.49622 0
6.28319 2.49622 0
5.89049 3.12143 0
6.28319 3.12143 0
5.49779 3.12143 0
5.89049 3.12143 0
5.49779 3.74664 0
5.89049 3.74664 0
5.89049 3.12143 0
6.28319 3.12143 0
5.89049 3.74664 0
6.28319 3.74664 0
4.71239 3.74664 0
5.10509 3.74664 0
4.71239 4.37183 0
5.10509 4.37183 0
5.10509 3.74664 0
5.49779 3.74664 0
5.10509 4.37183 0
5.49779 4.37183 0
4.71239 4.37183 0
5.10509 4.37183 0
4.71239 4.99701 0
5.10509 4.99701 0
5.10509 4.37183 0
5.49779 4.37183 0
5.10509 4.99701 0
5.49779 4.99701 0
5.49779 3.74664 0
5.89049 3.74664 0
5.49779 4.37183 0
5.89049 4.37183 0
5.89049 3.74664 0
6.28319 3.74664 0
5.89049 4.37183 0
6.28319 4.37183 0
5.49779 4.37183 0
5.89049 4.37183 0
5.49779 4.99701 0
5.89049 4.99701 0
5.89049 4.37183 0
6.28319 4.37183 0
5.89049 4.99701 0
6.28319 4.99701 0
0 4.99701 0
0.392699 4.99701 0
0 5.62218 0
0.392699 5.62218 0
0.392699 4.99701 0
0.785398 4.99701 0
0.392699 5.62218 0
0.785398 5.62218 0
0 5.62218 0
0.392699 5.62218 0
0 6.24732 0
0.392699 6.24732 0
0.392699 5.62218 0
0.785398 5.62218 0
0.392699 6.24732 0
0.785398 6.24732 0
0.785398 4.99701 0
1.1781 4.99701 0
0.785398 5.62218 0
1.1781 5.62218 0
1.1781 4.99701 0
1.5708 4.99701 0
1.1781 5.62218 0
1.5708 5.62218 0
0.785398 5.62218 0
1.1781 5.62218 0
0.785398 6.24732 0
1.1781 6.24732 0
1.1781 5.62218 0
1.5708 5.62218 0
1.1781 6.24732 0
1.5708 6.24732 0
0 6.24732 0
0.392699 6.24732 0
0 6.87246 0
0.392699 6.87246 0
0.392699 6.24732 0
0.785398 6.24732 0
0.392699 6.87246 0
0.785398 6.87246 0
0 6.87246 0
0.392699 6.87246 0
0 7.49759 0
0.392699 7.49759 0
0.392699 6.87246 0
0.785398 6.87246 0
0.392699 7.49759 0
0.785398 7.49759 0
0.785398 6.24732 0
1.1781 6.24732 0
0.785398 6.87246 0
[...]
POINT_DATA 5120
VECTORS uf double
0 1 0
-1.15061e-14 1 0
0 1.00185 0
-4.39033e-15 1.00185 0
-1.15061e-14 1 0
-5.92964e-15 1 0
-4.39033e-15 1.00185 0
1.31918e-14 1.00185 0
0 1.00185 0
3.0952e-16 1.00185 0
0 1.00281 0
1.06803e-14 1.00281 0
3.0952e-16 1.00185 0
-9.10119e-15 1.00185 0
1.06803e-14 1.00281 0
4.4493e-15 1.00281 0
-5.92964e-15 1 0
-2.97266e-15 1 0
1.31918e-14 1.00185 0
3.1796e-14 1.00185 0
-2.97266e-15 1 0
-1.33875e-14 1 0
3.1796e-14 1.00185 0
2.03564e-14 1.00185 0
-9.10119e-15 1.00185 0
-2.60657e-14 1.00185 0
4.4493e-15 1.00281 0
-9.53602e-16 1.00281 0
-2.60657e-14 1.00185 0
-1.82165e-14 1.00185 0
-9.53602e-16 1.00281 0
1.21866e-14 1.00281 0
0 1.00281 0
-9.86708e-16 1.00281 0
0 1.00398 0
7.44578e-15 1.00398 0
-9.86708e-16 1.00281 0
-8.44004e-15 1.00281 0
7.44578e-15 1.00398 0
3.15473e-15 1.00398 0
0 1.00398 0
-8.43699e-15 1.00398 0
0 1.00507 0
-2.76896e-15 1.00507 0
-8.43699e-15 1.00398 0
-2.90425e-15 1.00398 0
-2.76896e-15 1.00507 0
2.69125e-14 1.00507 0
-8.44004e-15 1.00281 0
-1.48434e-14 1.00281 0
3.15473e-15 1.00398 0
1.9045e-14 1.00398 0
-1.48434e-14 1.00281 0
-1.67688e-14 1.00281 0
1.9045e-14 1.00398 0
2.31034e-14 1.00398 0
-2.90425e-15 1.00398 0
-8.12449e-15 1.00398 0
2.69125e-14 1.00507 0
4.22541e-15 1.00507 0
-8.12449e-15 1.00398 0
-2.17426e-14 1.00398 0
4.22541e-15 1.00507 0
1.01333e-14 1.00507 0
-1.33875e-14 1 0
-1.09215e-14 1 0
2.03564e-14 1.00185 0
1.18141e-14 1.00185 0
-1.09215e-14 1 0
-1.08807e-14 1 0
1.18141e-14 1.00185 0
1.0895e-14 1.00185 0
-1.82165e-14 1.00185 0
-1.01877e-14 1.00185 0
1.21866e-14 1.00281 0
8.05856e-15 1.00281 0
-1.01877e-14 1.00185 0
-1.3883e-14 1.00185 0
8.05856e-15 1.00281 0
1.14898e-14 1.00281 0
-1.08807e-14 1 0
-9.4181e-15 1 0
1.0895e-14 1.00185 0
7.53969e-15 1.00185 0
-9.4181e-15 1 0
-2.52998e-15 1 0
7.53969e-15 1.00185 0
3.52145e-15 1.00185 0
-1.3883e-14 1.00185 0
-1.48608e-14 1.00185 0
1.14898e-14 1.00281 0
2.19463e-14 1.00281 0
-1.48608e-14 1.00185 0
-8.81023e-15 1.00185 0
2.19463e-14 1.00281 0
1.25697e-14 1.00281 0
-1.67688e-14 1.00281 0
-6.29484e-15 1.00281 0
2.31034e-14 1.00398 0
1.43553e-14 1.00398 0
-6.29484e-15 1.00281 0
-6.77966e-15 1.00281 0
1.43553e-14 1.00398 0
1.83529e-14 1.00398 0
-2.17426e-14 1.00398 0
-1.43706e-14 1.00398 0
1.01333e-14 1.00507 0
8.06492e-15 1.00507 0
-1.43706e-14 1.00398 0
-1.93382e-14 1.00398 0
8.06492e-15 1.00507 0
1.72577e-14 1.00507 0
-6.77966e-15 1.00281 0
-1.63942e-14 1.00281 0
1.83529e-14 1.00398 0
1.70184e-14 1.00398 0
-1.63942e-14 1.00281 0
-1.25657e-14 1.00281 0
1.70184e-14 1.00398 0
1.87406e-14 1.00398 0
-1.93382e-14 1.00398 0
-1.26232e-14 1.00398 0
1.72577e-14 1.00507 0
8.48514e-15 1.00507 0
-1.26232e-14 1.00398 0
-1.13596e-14 1.00398 0
8.48514e-15 1.00507 0
7.45616e-15 1.00507 0
0 1.00507 0
5.86551e-15 1.00507 0
0 1.00616 0
2.96782e-15 1.00616 0
5.86551e-15 1.00507 0
-3.02623e-14 1.00507 0
2.96782e-15 1.00616 0
-6.33058e-15 1.00616 0
0 1.00616 0
-3.10717e-15 1.00616 0
0 1.00724 0
-7.52314e-17 1.00724 0
-3.10717e-15 1.00616 0
9.03825e-15 1.00616 0
-7.52314e-17 1.00724 0
2.80088e-14 1.00724 0
-3.02623e-14 1.00507 0
-1.2386e-14 1.00507 0
-6.33058e-15 1.00616 0
1.11539e-14 1.00616 0
-1.2386e-14 1.00507 0
-9.39622e-16 1.00507 0
1.11539e-14 1.00616 0
7.10543e-15 1.00616 0
9.03825e-15 1.00616 0
-1.50914e-14 1.00616 0
2.80088e-14 1.00724 0
2.32387e-14 1.00724 0
-1.50914e-14 1.00616 0
-1.57399e-14 1.00616 0
2.32387e-14 1.00724 0
-1.9095e-16 1.00724 0
0 1.00724 0
9.77175e-16 1.00724 0
0 1.0083 0
8.92501e-15 1.0083 0
9.77175e-16 1.00724 0
-2.73109e-14 1.00724 0
8.92501e-15 1.0083 0
-6.61887e-15 1.0083 0
0 1.0083 0
-3.19777e-15 1.0083 0
0 1.00935 0
-3.73498e-17 1.00935 0
-3.19777e-15 1.0083 0
1.94471e-15 1.0083 0
-3.73498e-17 1.00935 0
2.69228e-14 1.00935 0
-2.73109e-14 1.00724 0
-1.5147e-14 1.00724 0
-6.61887e-15 1.0083 0
-2.10143e-16 1.0083 0
-1.5147e-14 1.00724 0
4.32864e-15 1.00724 0
-2.10143e-16 1.0083 0
1.99443e-14 1.0083 0
1.94471e-15 1.0083 0
3.30395e-15 1.0083 0
2.69228e-14 1.00935 0
3.28513e-15 1.00935 0
3.30395e-15 1.0083 0
-1.5081e-14 1.0083 0
3.28513e-15 1.00935 0
-7.64987e-16 1.00935 0
-9.39622e-16 1.00507 0
-1.04034e-14 1.00507 0
7.10543e-15 1.00616 0
7.92743e-15 1.00616 0
-1.04034e-14 1.00507 0
-2.07376e-14 1.00507 0
7.92743e-15 1.00616 0
2.06731e-14 1.00616 0
-1.57399e-14 1.00616 0
-1.08151e-14 1.00616 0
-1.9095e-16 1.00724 0
4.72781e-15 1.00724 0
-1.08151e-14 1.00616 0
-9.16939e-15 1.00616 0
4.72781e-15 1.00724 0
1.59041e-14 1.00724 0
-2.07376e-14 1.00507 0
-6.38604e-15 1.00507 0
2.06731e-14 1.00616 0
9.13392e-15 1.00616 0
-6.38604e-15 1.00507 0
-1.61738e-14 1.00507 0
9.13392e-15 1.00616 0
1.97517e-14 1.00616 0
-9.16939e-15 1.00616 0
-2.72832e-15 1.00616 0
1.59041e-14 1.00724 0
6.48209e-15 1.00724 0
-2.72832e-15 1.00616 0
-1.42964e-14 1.00616 0
6.48209e-15 1.00724 0
1.97797e-14 1.00724 0
4.32864e-15 1.00724 0
1.17239e-15 1.00724 0
1.99443e-14 1.0083 0
1.85821e-14 1.0083 0
1.17239e-15 1.00724 0
-2.16081e-14 1.00724 0
1.85821e-14 1.0083 0
2.2554e-14 1.0083 0
-1.5081e-14 1.0083 0
-1.61105e-14 1.0083 0
-7.64987e-16 1.00935 0
8.35376e-15 1.00935 0
-1.61105e-14 1.0083 0
-1.41456e-14 1.0083 0
8.35376e-15 1.00935 0
1.24475e-14 1.00935 0
-2.16081e-14 1.00724 0
-5.5699e-15 1.00724 0
2.2554e-14 1.0083 0
1.53708e-14 1.0083 0
-5.5699e-15 1.00724 0
-1.75348e-14 1.00724 0
1.53708e-14 1.0083 0
1.89638e-14 1.0083 0
-1.41456e-14 1.0083 0
-1.53083e-14 1.0083 0
1.24475e-14 1.00935 0
1.21244e-14 1.00935 0
-1.53083e-14 1.0083 0
-1.55632e-14 1.0083 0
1.21244e-14 1.00935 0
1.19942e-14 1.00935 0
-2.52998e-15 1 0
-1.54562e-14 1 0
3.52145e-15 1.00185 0
2.03159e-14 1.00185 0
-1.54562e-14 1 0
-5.35826e-15 1 0
2.03159e-14 1.00185 0
1.37184e-14 1.00185 0
-8.81023e-15 1.00185 0
-8.40037e-15 1.00185 0
1.25697e-14 1.00281 0
1.09984e-14 1.00281 0
-8.40037e-15 1.00185 0
-6.46342e-15 1.00185 0
1.09984e-14 1.00281 0
-1.34139e-15 1.00281 0
-5.35826e-15 1 0
-7.54504e-15 1 0
1.37184e-14 1.00185 0
1.77659e-14 1.00185 0
-7.54504e-15 1 0
-1.04692e-14 1 0
1.77659e-14 1.00185 0
1.75982e-14 1.00185 0
-6.46342e-15 1.00185 0
-2.10288e-14 1.00185 0
-1.34139e-15 1.00281 0
1.47955e-14 1.00281 0
-2.10288e-14 1.00185 0
-8.83e-15 1.00185 0
1.47955e-14 1.00281 0
7.57175e-15 1.00281 0
-1.25657e-14 1.00281 0
-1.37613e-14 1.00281 0
1.87406e-14 1.00398 0
1.68314e-14 1.00398 0
-1.37613e-14 1.00281 0
1.25917e-15 1.00281 0
1.68314e-14 1.00398 0
3.92951e-15 1.00398 0
-1.13596e-14 1.00398 0
-1.21091e-14 1.00398 0
7.45616e-15 1.00507 0
1.66497e-14 1.00507 0
-1.21091e-14 1.00398 0
-6.03804e-15 1.00398 0
1.66497e-14 1.00507 0
1.67186e-14 1.00507 0
1.25917e-15 1.00281 0
-1.14679e-14 1.00281 0
3.92951e-15 1.00398 0
1.948e-14 1.00398 0
-1.14679e-14 1.00281 0
-9.9401e-15 1.00281 0
1.948e-14 1.00398 0
1.5099e-14 1.00398 0
-6.03804e-15 1.00398 0
-1.36486e-14 1.00398 0
1.67186e-14 1.00507 0
1.72786e-14 1.00507 0
-1.36486e-14 1.00398 0
-7.03543e-15 1.00398 0
1.72786e-14 1.00507 0
1.42856e-14 1.00507 0
-1.04692e-14 1 0
-9.81352e-15 1 0
1.75982e-14 1.00185 0
2.50844e-14 1.00185 0
-9.81352e-15 1 0
-7.16917e-15 1 0
2.50844e-14 1.00185 0
1.67554e-14 1.00185 0
-8.83e-15 1.00185 0
-2.44172e-14 1.00185 0
7.57175e-15 1.00281 0
1.64585e-14 1.00281 0
-2.44172e-14 1.00185 0
-1.59787e-14 1.00185 0
1.64585e-14 1.00281 0
1.61143e-14 1.00281 0
-7.16917e-15 1 0
-5.03288e-15 1 0
1.67554e-14 1.00185 0
1.33714e-14 1.00185 0
-5.03288e-15 1 0
-1.26002e-14 1 0
1.33714e-14 1.00185 0
2.42662e-14 1.00185 0
-1.59787e-14 1.00185 0
-9.84492e-15 1.00185 0
1.61143e-14 1.00281 0
1.41437e-14 1.00281 0
-9.84492e-15 1.00185 0
-1.1946e-14 1.00185 0
1.41437e-14 1.00281 0
1.52689e-14 1.00281 0
-9.9401e-15 1.00281 0
-5.64946e-15 1.00281 0
1.5099e-14 1.00398 0
1.05113e-14 1.00398 0
-5.64946e-15 1.00281 0
-4.49247e-15 1.00281 0
1.05113e-14 1.00398 0
9.11975e-15 1.00398 0
-7.03543e-15 1.00398 0
-7.36348e-15 1.00398 0
1.42856e-14 1.00507 0
1.29405e-14 1.00507 0
-7.36348e-15 1.00398 0
-1.03147e-14 1.00398 0
1.29405e-14 1.00507 0
1.18314e-14 1.00507 0
-4.49247e-15 1.00281 0
-1.51557e-14 1.00281 0
9.11975e-15 1.00398 0
1.80345e-14 1.00398 0
-1.51557e-14 1.00281 0
-1.58353e-14 1.00281 0
1.80345e-14 1.00398 0
1.62521e-14 1.00398 0
-1.03147e-14 1.00398 0
-1.07767e-14 1.00398 0
1.18314e-14 1.00507 0
1.64246e-14 1.00507 0
-1.07767e-14 1.00398 0
-5.58139e-15 1.00398 0
1.64246e-14 1.00507 0
1.02747e-14 1.00507 0
-1.61738e-14 1.00507 0
-1.99301e-14 1.00507 0
1.97517e-14 1.00616 0
2.23032e-14 1.00616 0
-1.99301e-14 1.00507 0
-1.62394e-14 1.00507 0
2.23032e-14 1.00616 0
1.63943e-14 1.00616 0
-1.42964e-14 1.00616 0
-1.50303e-14 1.00616 0
1.97797e-14 1.00724 0
1.33406e-14 1.00724 0
-1.50303e-14 1.00616 0
-9.94544e-15 1.00616 0
1.33406e-14 1.00724 0
1.64642e-14 1.00724 0
-1.62394e-14 1.00507 0
-8.48187e-15 1.00507 0
1.63943e-14 1.00616 0
1.52477e-14 1.00616 0
-8.48187e-15 1.00507 0
-1.38984e-14 1.00507 0
1.52477e-14 1.00616 0
1.55185e-14 1.00616 0
-9.94544e-15 1.00616 0
-1.13012e-14 1.00616 0
1.64642e-14 1.00724 0
7.02595e-15 1.00724 0
-1.13012e-14 1.00616 0
-8.04758e-15 1.00616 0
7.02595e-15 1.00724 0
1.0167e-14 1.00724 0
-1.75348e-14 1.00724 0
-7.218e-15 1.00724 0
1.89638e-14 1.0083 0
1.32397e-14 1.0083 0
-7.218e-15 1.00724 0
-1.65397e-14 1.00724 0
1.32397e-14 1.0083 0
1.71257e-14 1.0083 0
-1.55632e-14 1.0083 0
-1.40521e-14 1.0083 0
1.19942e-14 1.00935 0
1.53312e-14 1.00935 0
-1.40521e-14 1.0083 0
-1.62816e-14 1.0083 0
1.53312e-14 1.00935 0
1.39025e-14 1.00935 0
-1.65397e-14 1.00724 0
-9.5377e-15 1.00724 0
1.71257e-14 1.0083 0
1.4416e-14 1.0083 0
-9.5377e-15 1.00724 0
-8.8129e-15 1.00724 0
1.4416e-14 1.0083 0
1.59477e-14 1.0083 0
-1.62816e-14 1.0083 0
-1.04873e-14 1.0083 0
1.39025e-14 1.00935 0
1.30789e-14 1.00935 0
-1.04873e-14 1.0083 0
-1.1815e-14 1.0083 0
1.30789e-14 1.00935 0
1.05172e-14 1.00935 0
-1.38984e-14 1.00507 0
-7.12641e-15 1.00507 0
1.55185e-14 1.00616 0
1.20585e-14 1.00616 0
-7.12641e-15 1.00507 0
-3.31423e-15 1.00507 0
1.20585e-14 1.00616 0
9.16304e-15 1.00616 0
-8.04758e-15 1.00616 0
-7.28343e-15 1.00616 0
1.0167e-14 1.00724 0
8.96225e-15 1.00724 0
-7.28343e-15 1.00616 0
-7.1751e-15 1.00616 0
8.96225e-15 1.00724 0
9.52324e-15 1.00724 0
-3.31423e-15 1.00507 0
-9.55555e-15 1.00507 0
9.16304e-15 1.00616 0
1.15862e-14 1.00616 0
-9.55555e-15 1.00507 0
-1.68802e-15 1.00507 0
1.15862e-14 1.00616 0
5.05056e-15 1.00616 0
-7.1751e-15 1.00616 0
-8.44742e-15 1.00616 0
9.52324e-15 1.00724 0
1.15722e-14 1.00724 0
-8.44742e-15 1.00616 0
-8.18955e-15 1.00616 0
1.15722e-14 1.00724 0
1.44071e-14 1.00724 0
-8.8129e-15 1.00724 0
-8.14173e-15 1.00724 0
1.59477e-14 1.0083 0
1.07686e-14 1.0083 0
-8.14173e-15 1.00724 0
-7.54877e-15 1.00724 0
1.07686e-14 1.0083 0
8.8995e-15 1.0083 0
-1.1815e-14 1.0083 0
-1.0034e-14 1.0083 0
1.05172e-14 1.00935 0
9.08695e-15 1.00935 0
-1.0034e-14 1.0083 0
-1.42163e-14 1.0083 0
9.08695e-15 1.00935 0
1.88889e-14 1.00935 0
-7.54877e-15 1.00724 0
-1.48113e-15 1.00724 0
8.8995e-15 1.0083 0
5.94843e-15 1.0083 0
-1.48113e-15 1.00724 0
-1.08168e-14 1.00724 0
5.94843e-15 1.0083 0
1.49536e-14 1.0083 0
-1.42163e-14 1.0083 0
-6.83534e-15 1.0083 0
1.88889e-14 1.00935 0
7.02718e-15 1.00935 0
-6.83534e-15 1.0083 0
-7.28564e-15 1.0083 0
7.02718e-15 1.00935 0
8.09305e-15 1.00935 0
0 1.00935 0
-5.91794e-15 1.00935 0
0 1.0104 0
3.09145e-15 1.0104 0
-5.91794e-15 1.00935 0
-2.10467e-14 1.00935 0
3.09145e-15 1.0104 0
1.28258e-15 1.0104 0
0 1.0104 0
-4.3058e-15 1.0104 0
0 1.01146 0
2.33698e-16 1.01146 0
-4.3058e-15 1.0104 0
-5.56475e-15 1.0104 0
2.33698e-16 1.01146 0
1.56636e-14 1.01146 0
-2.10467e-14 1.00935 0
2.21358e-15 1.00935 0
1.28258e-15 1.0104 0
2.30068e-16 1.0104 0
2.21358e-15 1.00935 0
3.49012e-15 1.00935 0
2.30068e-16 1.0104 0
1.22968e-14 1.0104 0
-5.56475e-15 1.0104 0
-1.19122e-14 1.0104 0
1.56636e-14 1.01146 0
9.04451e-15 1.01146 0
-1.19122e-14 1.0104 0
-1.24748e-14 1.0104 0
9.04451e-15 1.01146 0
1.14129e-14 1.01146 0
0 1.01146 0
7.74142e-16 1.01146 0
0 1.01253 0
1.01872e-15 1.01253 0
7.74142e-16 1.01146 0
-7.54009e-15 1.01146 0
1.01872e-15 1.01253 0
3.24632e-15 1.01253 0
0 1.01253 0
-2.66536e-15 1.01253 0
0 1.01363 0
5.86342e-15 1.01363 0
-2.66536e-15 1.01253 0
-2.11071e-16 1.01253 0
5.86342e-15 1.01363 0
3.65306e-15 1.01363 0
-7.54009e-15 1.01146 0
-7.09714e-15 1.01146 0
3.24632e-15 1.01253 0
9.51317e-15 1.01253 0
-7.09714e-15 1.01146 0
-1.18668e-14 1.01146 0
9.51317e-15 1.01253 0
1.04393e-14 1.01253 0
-2.11071e-16 1.01253 0
-6.55654e-15 1.01253 0
3.65306e-15 1.01363 0
6.16354e-15 1.01363 0
-6.55654e-15 1.01253 0
-7.69318e-15 1.01253 0
6.16354e-15 1.01363 0
7.01173e-15 1.01363 0
3.49012e-15 1.00935 0
-1.45944e-14 1.00935 0
1.22968e-14 1.0104 0
5.09099e-15 1.0104 0
-1.45944e-14 1.00935 0
-1.08523e-14 1.00935 0
5.09099e-15 1.0104 0
9.56179e-15 1.0104 0
-1.24748e-14 1.0104 0
-4.166e-15 1.0104 0
1.14129e-14 1.01146 0
1.2427e-14 1.01146 0
-4.166e-15 1.0104 0
-9.54971e-15 1.0104 0
1.2427e-14 1.01146 0
7.62796e-15 1.01146 0
-1.08523e-14 1.00935 0
-1.21335e-14 1.00935 0
9.56179e-15 1.0104 0
1.13072e-14 1.0104 0
-1.21335e-14 1.00935 0
-8.27087e-15 1.00935 0
1.13072e-14 1.0104 0
1.08386e-14 1.0104 0
-9.54971e-15 1.0104 0
-1.15627e-14 1.0104 0
7.62796e-15 1.01146 0
1.31708e-14 1.01146 0
-1.15627e-14 1.0104 0
-1.44336e-14 1.0104 0
1.31708e-14 1.01146 0
1.44513e-14 1.01146 0
-1.18668e-14 1.01146 0
-8.65294e-15 1.01146 0
1.04393e-14 1.01253 0
1.17339e-14 1.01253 0
-8.65294e-15 1.01146 0
-9.69753e-15 1.01146 0
1.17339e-14 1.01253 0
9.61019e-15 1.01253 0
-7.69318e-15 1.01253 0
-1.21799e-14 1.01253 0
7.01173e-15 1.01363 0
1.05475e-14 1.01363 0
-1.21799e-14 1.01253 0
-8.30992e-15 1.01253 0
1.05475e-14 1.01363 0
1.22523e-14 1.01363 0
-9.69753e-15 1.01146 0
-1.33453e-14 1.01146 0
9.61019e-15 1.01253 0
1.39009e-14 1.01253 0
-1.33453e-14 1.01146 0
-1.39687e-14 1.01146 0
1.39009e-14 1.01253 0
1.49176e-14 1.01253 0
-8.30992e-15 1.01253 0
-1.36068e-14 1.01253 0
1.22523e-14 1.01363 0
1.53383e-14 1.01363 0
-1.36068e-14 1.01253 0
-1.31346e-14 1.01253 0
1.53383e-14 1.01363 0
1.13953e-14 1.01363 0
0 1.01363 0
1.87494e-15 1.01363 0
0 1.01474 0
6.6437e-15 1.01474 0
1.87494e-15 1.01363 0
-9.07242e-17 1.01363 0
6.6437e-15 1.01474 0
2.72816e-15 1.01474 0
0 1.01474 0
-5.42299e-15 1.01474 0
0 1.01584 0
-4.11265e-15 1.01584 0
-5.42299e-15 1.01474 0
2.67135e-16 1.01474 0
-4.11265e-15 1.01584 0
-1.73984e-15 1.01584 0
-9.07242e-17 1.01363 0
-8.33417e-15 1.01363 0
2.72816e-15 1.01474 0
7.13726e-15 1.01474 0
-8.33417e-15 1.01363 0
-8.59692e-15 1.01363 0
7.13726e-15 1.01474 0
7.8114e-15 1.01474 0
2.67135e-16 1.01474 0
-2.07096e-15 1.01474 0
-1.73984e-15 1.01584 0
3.2025e-15 1.01584 0
-2.07096e-15 1.01474 0
-4.23784e-15 1.01474 0
3.2025e-15 1.01584 0
2.31208e-15 1.01584 0
0 1.01584 0
3.7229e-16 1.01584 0
0 1.01677 0
2.47655e-15 1.01677 0
3.7229e-16 1.01584 0
-4.72045e-15 1.01584 0
2.47655e-15 1.01677 0
1.62783e-15 1.01677 0
0 1.01677 0
-2.66952e-16 1.01677 0
0 1.01706 0
1.7667e-15 1.01706 0
-2.66952e-16 1.01677 0
-4.25647e-15 1.01677 0
1.7667e-15 1.01706 0
3.345e-15 1.01706 0
-4.72045e-15 1.01584 0
-4.45046e-15 1.01584 0
1.62783e-15 1.01677 0
2.04662e-15 1.01677 0
-4.45046e-15 1.01584 0
-2.93035e-15 1.01584 0
2.04662e-15 1.01677 0
2.31228e-15 1.01677 0
-4.25647e-15 1.01677 0
-6.54699e-15 1.01677 0
3.345e-15 1.01706 0
9.73367e-16 1.01706 0
-6.54699e-15 1.01677 0
-6.32758e-15 1.01677 0
9.73367e-16 1.01706 0
7.1189e-16 1.01706 0
-8.59692e-15 1.01363 0
-1.12534e-14 1.01363 0
7.8114e-15 1.01474 0
1.20596e-14 1.01474 0
-1.12534e-14 1.01363 0
-1.10159e-14 1.01363 0
1.20596e-14 1.01474 0
8.77932e-15 1.01474 0
-4.23784e-15 1.01474 0
-8.52256e-15 1.01474 0
2.31208e-15 1.01584 0
5.84163e-15 1.01584 0
-8.52256e-15 1.01474 0
-9.52473e-15 1.01474 0
5.84163e-15 1.01584 0
6.77435e-15 1.01584 0
-1.10159e-14 1.01363 0
-9.77739e-15 1.01363 0
8.77932e-15 1.01474 0
7.46628e-15 1.01474 0
-9.77739e-15 1.01363 0
-6.21896e-15 1.01363 0
7.46628e-15 1.01474 0
5.76153e-15 1.01474 0
-9.52473e-15 1.01474 0
-1.02132e-14 1.01474 0
6.77435e-15 1.01584 0
5.48905e-15 1.01584 0
-1.02132e-14 1.01474 0
-6.65115e-15 1.01474 0
5.48905e-15 1.01584 0
4.13921e-15 1.01584 0
-2.93035e-15 1.01584 0
-7.09675e-15 1.01584 0
2.31228e-15 1.01677 0
2.86871e-15 1.01677 0
-7.09675e-15 1.01584 0
-5.45508e-15 1.01584 0
2.86871e-15 1.01677 0
3.99782e-15 1.01677 0
-6.32758e-15 1.01677 0
-5.8053e-15 1.01677 0
7.1189e-16 1.01706 0
7.21493e-15 1.01706 0
-5.8053e-15 1.01677 0
-4.04827e-15 1.01677 0
7.21493e-15 1.01706 0
5.56742e-15 1.01706 0
-5.45508e-15 1.01584 0
-5.2501e-15 1.01584 0
3.99782e-15 1.01677 0
5.02042e-15 1.01677 0
-5.2501e-15 1.01584 0
-4.15901e-15 1.01584 0
5.02042e-15 1.01677 0
3.44608e-15 1.01677 0
-4.04827e-15 1.01677 0
-3.99737e-15 1.01677 0
5.56742e-15 1.01706 0
5.43887e-15 1.01706 0
-3.99737e-15 1.01677 0
-2.25276e-15 1.01677 0
5.43887e-15 1.01706 0
-2.03398e-15 1.01706 0
-8.27087e-15 1.00935 0
-1.20821e-14 1.00935 0
1.08386e-14 1.0104 0
1.12461e-14 1.0104 0
-1.20821e-14 1.00935 0
-1.13979e-14 1.00935 0
1.12461e-14 1.0104 0
1.1818e-14 1.0104 0
-1.44336e-14 1.0104 0
-1.39172e-14 1.0104 0
1.44513e-14 1.01146 0
1.77257e-14 1.01146 0
-1.39172e-14 1.0104 0
-8.32545e-15 1.0104 0
1.77257e-14 1.01146 0
1.19251e-14 1.01146 0
-1.13979e-14 1.00935 0
-1.16867e-14 1.00935 0
1.1818e-14 1.0104 0
9.29518e-15 1.0104 0
-1.16867e-14 1.00935 0
-1.33776e-14 1.00935 0
9.29518e-15 1.0104 0
1.29756e-14 1.0104 0
-8.32545e-15 1.0104 0
-8.55289e-15 1.0104 0
1.19251e-14 1.01146 0
1.12273e-14 1.01146 0
-8.55289e-15 1.0104 0
-8.86318e-15 1.0104 0
1.12273e-14 1.01146 0
1.22507e-14 1.01146 0
-1.39687e-14 1.01146 0
-1.66647e-14 1.01146 0
1.49176e-14 1.01253 0
1.39083e-14 1.01253 0
-1.66647e-14 1.01146 0
-1.60142e-14 1.01146 0
1.39083e-14 1.01253 0
1.57523e-14 1.01253 0
-1.31346e-14 1.01253 0
-1.12248e-14 1.01253 0
1.13953e-14 1.01363 0
1.40156e-14 1.01363 0
-1.12248e-14 1.01253 0
-8.03899e-15 1.01253 0
1.40156e-14 1.01363 0
8.01215e-15 1.01363 0
-1.60142e-14 1.01146 0
-1.3597e-14 1.01146 0
1.57523e-14 1.01253 0
1.32977e-14 1.01253 0
-1.3597e-14 1.01146 0
-1.07025e-14 1.01146 0
1.32977e-14 1.01253 0
1.08849e-14 1.01253 0
-8.03899e-15 1.01253 0
-8.52439e-15 1.01253 0
8.01215e-15 1.01363 0
1.09252e-14 1.01363 0
-8.52439e-15 1.01253 0
-5.52147e-15 1.01253 0
1.09252e-14 1.01363 0
8.83121e-15 1.01363 0
-1.33776e-14 1.00935 0
-8.7542e-15 1.00935 0
1.29756e-14 1.0104 0
1.03809e-14 1.0104 0
-8.7542e-15 1.00935 0
-1.38873e-14 1.00935 0
1.03809e-14 1.0104 0
1.61479e-14 1.0104 0
-8.86318e-15 1.0104 0
-6.60008e-15 1.0104 0
1.22507e-14 1.01146 0
6.99986e-15 1.01146 0
-6.60008e-15 1.0104 0
-2.80429e-15 1.0104 0
6.99986e-15 1.01146 0
4.27897e-15 1.01146 0
-1.38873e-14 1.00935 0
-1.80292e-15 1.00935 0
1.61479e-14 1.0104 0
5.77943e-15 1.0104 0
-1.80292e-15 1.00935 0
-5.99485e-15 1.00935 0
5.77943e-15 1.0104 0
8.70907e-15 1.0104 0
-2.80429e-15 1.0104 0
-1.82557e-15 1.0104 0
4.27897e-15 1.01146 0
5.08299e-15 1.01146 0
-1.82557e-15 1.0104 0
-7.67986e-15 1.0104 0
5.08299e-15 1.01146 0
1.116e-14 1.01146 0
-1.07025e-14 1.01146 0
-3.88834e-15 1.01146 0
1.08849e-14 1.01253 0
5.21165e-15 1.01253 0
-3.88834e-15 1.01146 0
-4.55724e-15 1.01146 0
5.21165e-15 1.01253 0
4.17887e-15 1.01253 0
-5.52147e-15 1.01253 0
-3.8177e-15 1.01253 0
8.83121e-15 1.01363 0
6.54913e-15 1.01363 0
-3.8177e-15 1.01253 0
-9.53657e-15 1.01253 0
6.54913e-15 1.01363 0
1.15196e-14 1.01363 0
-4.55724e-15 1.01146 0
-9.53581e-15 1.01146 0
4.17887e-15 1.01253 0
8.85098e-15 1.01253 0
-9.53581e-15 1.01146 0
-1.31688e-14 1.01146 0
8.85098e-15 1.01253 0
1.12019e-14 1.01253 0
-9.53657e-15 1.01253 0
-3.31169e-15 1.01253 0
1.15196e-14 1.01363 0
4.62527e-15 1.01363 0
-3.31169e-15 1.01253 0
-3.36185e-15 1.01253 0
4.62527e-15 1.01363 0
6.67596e-15 1.01363 0
-6.21896e-15 1.01363 0
-1.25339e-14 1.01363 0
5.76153e-15 1.01474 0
1.09118e-14 1.01474 0
-1.25339e-14 1.01363 0
-6.09011e-15 1.01363 0
1.09118e-14 1.01474 0
4.91497e-15 1.01474 0
-6.65115e-15 1.01474 0
-8.46391e-15 1.01474 0
4.13921e-15 1.01584 0
7.35437e-15 1.01584 0
-8.46391e-15 1.01474 0
-6.83277e-15 1.01474 0
7.35437e-15 1.01584 0
4.25365e-15 1.01584 0
-6.09011e-15 1.01363 0
-6.29555e-15 1.01363 0
4.91497e-15 1.01474 0
4.53375e-15 1.01474 0
-6.29555e-15 1.01363 0
-1.12116e-14 1.01363 0
4.53375e-15 1.01474 0
1.04297e-14 1.01474 0
-6.83277e-15 1.01474 0