# vtk DataFile Version 3.0
#This file was generated by the deal.II library on 2018/10/12 at 1:00:07
ASCII
DATASET UNSTRUCTURED_GRID

POINTS 5120 double
0 0 0
0.392699 0 0
0 0.601736 0
0.392699 0.601736 0
0.392699 0 0
0.785398 0 0
0.392699 0.601736 0
0.785398 0.601736 0
0 0.601736 0
0.392699 0.601736 0
0 1.22845 0
0.392699 1.22845 0
0.392699 0.601736 0
0.785398 0.601736 0
0.392699 1.22845 0
0.785398 1.22845 0
0.785398 0 0
1.1781 0 0
0.785398 0.601736 0
1.1781 0.601736 0
1.1781 0 0
1.5708 0 0
1.1781 0.601736 0
1.5708 0.601736 0
0.785398 0.601736 0
1.1781 0.601736 0
0.785398 1.22845 0
1.1781 1.22845 0
1.1781 0.601736 0
1.5708 0.601736 0
1.1781 1.22845 0
1.5708 1.22845 0
0 1.22845 0
0.392699 1.22845 0
0 1.85429 0
0.392699 1.85429 0
0.392699 1.22845 0
0.785398 1.22845 0
0.392699 1.85429 0
0.785398 1.85429 0
0 1.85429 0
0.392699 1.85429 0
0 2.48096 0
0.392699 2.48096 0
0.392699 1.85429 0
0.785398 1.85429 0
0.392699 2.48096 0
0.785398 2.48096 0
0.785398 1.22845 0
1.1781 1.22845 0
0.785398 1.85429 0
1.1781 1.85429 0
1.1781 1.22845 0
1.5708 1.22845 0
1.1781 1.85429 0
1.5708 1.85429 0
0.785398 1.85429 0
1.1781 1.85429 0
0.785398 2.48096 0
1.1781 2.48096 0
1.1781 1.85429 0
1.5708 1.85429 0
1.1781 2.48096 0
1.5708 2.48096 0
1.5708 0 0
1.9635 0 0
1.5708 0.601736 0
1.9635 0.601736 0
1.9635 0 0
2.35619 0 0
1.9635 0.601736 0
2.35619 0.601736 0
1.5708 0.601736 0
1.9635 0.601736 0
1.5708 1.22845 0
1.9635 1.22845 0
1.9635 0.601736 0
2.35619 0.601736 0
1.9635 1.22845 0
2.35619 1.22845 0
2.35619 0 0
2.74889 0 0
2.35619 0.601736 0
2.74889 0.601736 0
2.74889 0 0
3.14159 0 0
2.74889 0.601736 0
3.14159 0.601736 0
2.35619 0.601736 0
2.74889 0.601736 0
2.35619 1.22845 0
2.74889 1.22845 0
2.74889 0.601736 0
3.14159 0.601736 0
2.74889 1.22845 0
3.14159 1.22845 0
1.5708 1.22845 0
1.9635 1.22845 0
1.5708 1.85429 0
1.9635 1.85429 0
1.9635 1.22845 0
2.35619 1.22845 0
1.9635 1.85429 0
2.35619 1.85429 0
1.5708 1.85429 0
1.9635 1.85429 0
1.5708 2.48096 0
1.9635 2.48096 0
1.9635 1.85429 0
2.35619 1.85429 0
1.9635 2.48096 0
2.35619 2.48096 0
2.35619 1.22845 0
2.74889 1.22845 0
2.35619 1.85429 0
2.74889 1.85429 0
2.74889 1.22845 0
3.14159 1.22845 0
2.74889 1.85429 0
3.14159 1.85429 0
2.35619 1.85429 0
2.74889 1.85429 0
2.35619 2.48096 0
2.74889 2.48096 0
2.74889 1.85429 0
3.14159 1.85429 0
2.74889 2.48096 0
3.14159 2.48096 0
0 2.48096 0
0.392699 2.48096 0
0 3.10741 0
0.392699 3.10741 0
0.392699 2.48096 0
0.785398 2.48096 0
0.392699 3.10741 0
0.785398 3.10741 0
0 3.10741 0
0.392699 3.10741 0
0 3.73388 0
0.392699 3.73388 0
0.392699 3.10741 0
0.785398 3.10741 0
0.392699 3.73388 0
0.785398 3.73388 0
0.785398 2.48096 0
1.1781 2.48096 0
0.785398 3.10741 0
1.1781 3.10741 0
1.1781 2.48096 0
1.5708 2.48096 0
1.1781 3.10741 0
1.5708 3.10741 0
0.785398 3.10741 0
1.1781 3.10741 0
0.785398 3.73388 0
1.1781 3.73388 0
1.1781 3.10741 0
1.5708 3.10741 0
1.1781 3.73388 0
1.5708 3.73388 0
0 3.73388 0
0.392699 3.73388 0
0 4.36027 0
0.392699 4.36027 0
0.392699 3.73388 0
0.785398 3.73388 0
0.392699 4.36027 0
0.785398 4.36027 0
0 4.36027 0
0.392699 4.36027 0
0 4.9866 0
0.392699 4.9866 0
0.392699 4.36027 0
0.785398 4.36027 0
0.392699 4.9866 0
0.785398 4.9866 0
0.785398 3.73388 0
1.1781 3.73388 0
0.785398 4.36027 0
1.1781 4.36027 0
1.1781 3.73388 0
1.5708 3.73388 0
1.1781 4.36027 0
1.5708 4.36027 0
0.785398 4.36027 0
1.1781 4.36027 0
0.785398 4.9866 0
1.1781 4.9866 0
1.1781 4.36027 0
1.5708 4.36027 0
1.1781 4.9866 0
1.5708 4.9866 0
1.5708 2.48096 0
1.9635 2.48096 0
1.5708 3.10741 0
1.9635 3.10741 0
1.9635 2.48096 0
2.35619 2.48096 0
1.9635 3.10741 0
2.35619 3.10741 0
1.5708 3.10741 0
1.9635 3.10741 0
1.5708 3.73388 0
1.9635 3.73388 0
1.9635 3.10741 0
2.35619 3.10741 0
1.9635 3.73388 0
2.35619 3.73388 0
2.35619 2.48096 0
2.74889 2.48096 0
2.35619 3.10741 0
2.74889 3.10741 0
2.74889 2.48096 0
3.14159 2.48096 0
2.74889 3.10741 0
3.14159 3.10741 0
2.35619 3.10741 0
2.74889 3.10741 0
2.35619 3.73388 0
2.74889 3.73388 0
2.74889 3.10741 0
3.14159 3.10741 0
2.74889 3.73388 0
3.14159 3.73388 0
1.5708 3.73388 0
1.9635 3.73388 0
1.5708 4.36027 0
1.9635 4.36027 0
1.9635 3.73388 0
2.35619 3.73388 0
1.9635 4.36027 0
2.35619 4.36027 0
1.5708 4.36027 0
1.9635 4.36027 0
1.5708 4.9866 0
1.9635 4.9866 0
1.9635 4.36027 0
2.35619 4.36027 0
1.9635 4.9866 0
2.35619 4.9866 0
2.35619 3.73388 0
2.74889 3.73388 0
2.35619 4.36027 0
2.74889 4.36027 0
2.74889 3.73388 0
3.14159 3.73388 0
2.74889 4.36027 0
3.14159 4.36027 0
2.35619 4.36027 0
2.74889 4.36027 0
2.35619 4.9866 0
2.74889 4.9866 0
2.74889 4.36027 0
3.14159 4.36027 0
2.74889 4.9866 0
3.14159 4.9866 0
3.14159 0 0
3.53429 0 0
3.14159 0.601736 0
3.53429 0.601736 0
3.53429 0 0
3.92699 0 0
3.53429 0.601736 0
3.92699 0.601736 0
3.14159 0.601736 0
3.53429 0.601736 0
3.14159 1.22845 0
3.53429 1.22845 0
3.53429 0.601736 0
3.92699 0.601736 0
3.53429 1.22845 0
3.92699 1.22845 0
3.92699 0 0
4.31969 0 0
3.92699 0.601736 0
4.31969 0.601736 0
4.31969 0 0
4.71239 0 0
4.31969 0.601736 0
4.71239 0.601736 0
3.92699 0.601736 0
4.31969 0.601736 0
3.92699 1.22845 0
4.31969 1.22845 0
4.31969 0.601736 0
4.71239 0.601736 0
4.31969 1.22845 0
4.71239 1.22845 0
3.14159 1.22845 0
3.53429 1.22845 0
3.14159 1.85429 0
3.53429 1.85429 0
3.53429 1.22845 0
3.92699 1.22845 0
3.53429 1.85429 0
3.92699 1.85429 0
3.14159 1.85429 0
3.53429 1.85429 0
3.14159 2.48096 0
3.53429 2.48096 0
3.53429 1.85429 0
3.92699 1.85429 0
3.53429 2.48096 0
3.92699 2.48096 0
3.92699 1.22845 0
4.31969 1.22845 0
3.92699 1.85429 0
4.31969 1.85429 0
4.31969 1.22845 0
4.71239 1.22845 0
4.31969 1.85429 0
4.71239 1.85429 0
3.92699 1.85429 0
4.31969 1.85429 0
3.92699 2.48096 0
4.31969 2.48096 0
4.31969 1.85429 0
4.71239 1.85429 0
4.31969 2.48096 0
4.71239 2.48096 0
4.71239 0 0
5.10509 0 0
4.71239 0.601736 0
5.10509 0.601736 0
5.10509 0 0
5.49779 0 0
5.10509 0.601736 0
5.49779 0.601736 0
4.71239 0.601736 0
5.10509 0.601736 0
4.71239 1.22845 0
5.10509 1.22845 0
5.10509 0.601736 0
5.49779 0.601736 0
5.10509 1.22845 0
5.49779 1.22845 0
5.49779 0 0
5.89049 0 0
5.49779 0.601736 0
5.89049 0.601736 0
5.89049 0 0
6.28319 0 0
5.89049 0.601736 0
6.28319 0.601736 0
5.49779 0.601736 0
5.89049 0.601736 0
5.49779 1.22845 0
5.89049 1.22845 0
5.89049 0.601736 0
6.28319 0.601736 0
5.89049 1.22845 0
6.28319 1.22845 0
4.71239 1.22845 0
5.10509 1.22845 0
4.71239 1.85429 0
5.10509 1.85429 0
5.10509 1.22845 0
5.49779 1.22845 0
5.10509 1.85429 0
5.49779 1.85429 0
4.71239 1.85429 0
5.10509 1.85429 0
4.71239 2.48096 0
5.10509 2.48096 0
5.10509 1.85429 0
5.49779 1.85429 0
5.10509 2.48096 0
5.49779 2.48096 0
5.49779 1.22845 0
5.89049 1.22845 0
5.49779 1.85429 0
5.89049 1.85429 0
5.89049 1.22845 0
6.28319 1.22845 0
5.89049 1.85429 0
6.28319 1.85429 0
5.49779 1.85429 0
5.89049 1.85429 0
5.49779 2.48096 0
5.89049 2.48096 0
5.89049 1.85429 0
6.28319 1.85429 0
5.89049 2.48096 0
6.28319 2.48096 0
3.14159 2.48096 0
3.53429 2.48096 0
3.14159 3.10741 0
3.53429 3.10741 0
3.53429 2.48096 0
3.92699 2.48096 0
3.53429 3.10741 0
3.92699 3.10741 0
3.14159 3.10741 0
3.53429 3.10741 0
3.14159 3.73388 0
3.53429 3.73388 0
3.53429 3.10741 0
3.92699 3.10741 0
3.53429 3.73388 0
3.92699 3.73388 0
3.92699 2.48096 0
4.31969 2.48096 0
3.92699 3.10741 0
4.31969 3.10741 0
4.31969 2.48096 0
4.71239 2.48096 0
4.31969 3.10741 0
4.71239 3.10741 0
3.92699 3.10741 0
4.31969 3.10741 0
3.92699 3.73388 0
4.31969 3.73388 0
4.31969 3.10741 0
4.71239 3.10741 0
4.31969 3.73388 0
4.71239 3.73388 0
3.14159 3.73388 0
3.53429 3.73388 0
3.14159 4.36027 0
3.53429 4.36027 0
3.53429 3.73388 0
3.92699 3.73388 0
3.53429 4.36027 0
3.92699 4.36027 0
3.14159 4.36027 0
3.53429 4.36027 0
3.14159 4.9866 0
3.53429 4.9866 0
3.53429 4.36027 0
3.92699 4.36027 0
3.53429 4.9866 0
3.92699 4.9866 0
3.92699 3.73388 0
4.31969 3.73388 0
3.92699 4.36027 0
4.31969 4.36027 0
4.31969 3.73388 0
4.71239 3.73388 0
4.31969 4.36027 0
4.71239 4.36027 0
3.92699 4.36027 0
4.31969 4.36027 0
3.92699 4.9866 0
4.31969 4.9866 0
4.31969 4.36027 0
4.71239 4.36027 0
4.31969 4.9866 0
4.71239 4.9866 0
4.71239 2.48096 0
5.10509 2.48096 0
4.71239 3.10741 0
5.10509 3.10741 0
5.10509 2.48096 0
5.49779 2.48096 0
5.10509 3.10741 0
5.49779 3.10741 0
4.71239 3.10741 0
5.10509 3.10741 0
4.71239 3.73388 0
5.10509 3.73388 0
5.10509 3.10741 0
5.49779 3.10741 0
5.10509 3.73388 0
5.49779 3.73388 0
5.49779 2.48096 0
5.89049 2.48096 0
5.49779 3.10741 0
5.89049 3.10741 0
5.89049 2.48096 0
6.28319 2.48096 0
5.89049 3.10741 0
6.28319 3.10741 0
5.49779 3.10741 0
5.89049 3.10741 0
5.49779 3.73388 0
5.89049 3.73388 0
5.89049 3.10741 0
6.28319 3.10741 0
5.89049 3.73388 0
6.28319 3.73388 0
4.71239 3.73388 0
5.10509 3.73388 0
4.71239 4.36027 0
5.10509 4.36027 0
5.10509 3.73388 0
5.49779 3.73388 0
5.10509 4.36027 0
5.49779 4.36027 0
4.71239 4.36027 0
5.10509 4.36027 0
4.71239 4.9866 0
5.10509 4.9866 0
5.10509 4.36027 0
5.49779 4.36027 0
5.10509 4.9866 0
5.49779 4.9866 0
5.49779 3.73388 0
5.89049 3.73388 0
5.49779 4.36027 0
5.89049 4.36027 0
5.89049 3.73388 0
6.28319 3.73388 0
5.89049 4.36027 0
6.28319 4.36027 0
5.49779 4.36027 0
5.89049 4.36027 0
5.49779 4.9866 0
5.89049 4.9866 0
5.89049 4.36027 0
6.28319 4.36027 0
5.89049 4.9866 0
6.28319 4.9866 0
0 4.9866 0
0.392699 4.9866 0
0 5.61286 0
0.392699 5.61286 0
0.392699 4.9866 0
0.785398 4.9866 0
0.392699 5.61286 0
0.785398 5.61286 0
0 5.61286 0
0.392699 5.61286 0
0 6.23905 0
0.392699 6.23905 0
0.392699 5.61286 0
0.785398 5.61286 0
0.392699 6.23905 0
0.785398 6.23905 0
0.785398 4.9866 0
1.1781 4.9866 0
0.785398 5.61286 0
1.1781 5.61286 0
1.1781 4.9866 0
1.5708 4.9866 0
1.1781 5.61286 0
1.5708 5.61286 0
0.785398 5.61286 0
1.1781 5.61286 0
0.785398 6.23905 0
1.1781 6.23905 0
1.1781 5.61286 0
1.5708 5.61286 0
1.1781 6.23905 0
1.5708 6.23905 0
0 6.23905 0
0.392699 6.23905 0
0 6.86518 0
0.392699 6.86518 0
0.392699 6.23905 0
0.785398 6.23905 0
0.392699 6.86518 0
0.785398 6.86518 0
0 6.86518 0
0.392699 6.86518 0
0 7.49133 0
0.392699 7.49133 0
0.392699 6.86518 0
0.785398 6.86518 0
0.392699 7.49133 0
0.785398 7.49133 0
0.785398 6.23905 0
1.1781 6.23905 0
0.785398 6.86518 0
1.1781 6.86518 0
1.1781 6.23905 0
[...]
POINT_DATA 5120
VECTORS uf double
0 1 0
-9.50344e-14 1 0
0 1.00244 0
-9.54546e-14 1.00244 0
-9.50344e-14 1 0
-9.25041e-15 1 0
-9.54546e-14 1.00244 0
-9.16638e-15 1.00244 0
0 1.00244 0
5.85382e-14 1.00244 0
0 1.00369 0
3.93383e-14 1.00369 0
5.85382e-14 1.00244 0
1.04184e-14 1.00244 0
3.93383e-14 1.00369 0
5.6385e-15 1.00369 0
-9.25041e-15 1 0
1.7215e-13 1 0
-9.16638e-15 1.00244 0
1.68414e-13 1.00244 0
1.7215e-13 1 0
4.55881e-14 1 0
1.68414e-13 1.00244 0
5.34911e-14 1.00244 0
1.04184e-14 1.00244 0
-1.8464e-13 1.00244 0
5.6385e-15 1.00369 0
-1.61687e-13 1.00369 0
-1.8464e-13 1.00244 0
-5.30759e-14 1.00244 0
-1.61687e-13 1.00369 0
-3.96309e-14 1.00369 0
0 1.00369 0
2.18802e-14 1.00369 0
0 1.00522 0
1.30498e-14 1.00522 0
2.18802e-14 1.00369 0
2.20821e-14 1.00369 0
1.30498e-14 1.00522 0
2.09956e-14 1.00522 0
0 1.00522 0
4.36766e-14 1.00522 0
0 1.00663 0
3.72385e-14 1.00663 0
4.36766e-14 1.00522 0
4.51659e-14 1.00522 0
3.72385e-14 1.00663 0
3.78022e-14 1.00663 0
2.20821e-14 1.00369 0
8.11251e-16 1.00369 0
2.09956e-14 1.00522 0
1.18916e-14 1.00522 0
8.11251e-16 1.00369 0
-8.42987e-15 1.00369 0
1.18916e-14 1.00522 0
-7.47096e-16 1.00522 0
4.51659e-14 1.00522 0
9.51418e-15 1.00522 0
3.78022e-14 1.00663 0
1.31664e-14 1.00663 0
9.51418e-15 1.00522 0
-2.92897e-14 1.00522 0
1.31664e-14 1.00663 0
-2.26462e-14 1.00663 0
4.55881e-14 1 0
-3.03232e-14 1 0
5.34911e-14 1.00244 0
-2.42452e-14 1.00244 0
-3.03232e-14 1 0
-7.19391e-15 1 0
-2.42452e-14 1.00244 0
3.00754e-15 1.00244 0
-5.30759e-14 1.00244 0
3.06316e-14 1.00244 0
-3.96309e-14 1.00369 0
2.37678e-14 1.00369 0
3.06316e-14 1.00244 0
-4.1125e-15 1.00244 0
2.37678e-14 1.00369 0
8.36789e-15 1.00369 0
-7.19391e-15 1 0
3.92269e-15 1 0
3.00754e-15 1.00244 0
-9.02773e-15 1.00244 0
3.92269e-15 1 0
-3.49969e-15 1 0
-9.02773e-15 1.00244 0
3.7458e-15 1.00244 0
-4.1125e-15 1.00244 0
1.94395e-15 1.00244 0
8.36789e-15 1.00369 0
7.41175e-16 1.00369 0
1.94395e-15 1.00244 0
-9.42416e-16 1.00244 0
7.41175e-16 1.00369 0
5.28884e-15 1.00369 0
-8.42987e-15 1.00369 0
2.28988e-14 1.00369 0
-7.47096e-16 1.00522 0
3.33552e-14 1.00522 0
2.28988e-14 1.00369 0
4.88819e-15 1.00369 0
3.33552e-14 1.00522 0
-1.55903e-15 1.00522 0
-2.92897e-14 1.00522 0
-7.60374e-15 1.00522 0
-2.26462e-14 1.00663 0
-8.3241e-15 1.00663 0
-7.60374e-15 1.00522 0
-1.27591e-15 1.00522 0
-8.3241e-15 1.00663 0
-3.31869e-15 1.00663 0
4.88819e-15 1.00369 0
6.6041e-16 1.00369 0
-1.55903e-15 1.00522 0
6.73048e-15 1.00522 0
6.6041e-16 1.00369 0
2.25019e-15 1.00369 0
6.73048e-15 1.00522 0
3.97681e-15 1.00522 0
-1.27591e-15 1.00522 0
-5.68858e-15 1.00522 0
-3.31869e-15 1.00663 0
2.92126e-15 1.00663 0
-5.68858e-15 1.00522 0
-3.88286e-15 1.00522 0
2.92126e-15 1.00663 0
1.2617e-16 1.00663 0
0 1.00663 0
-6.22626e-14 1.00663 0
0 1.00804 0
-5.85644e-14 1.00804 0
-6.22626e-14 1.00663 0
-7.61734e-14 1.00663 0
-5.85644e-14 1.00804 0
-7.11718e-14 1.00804 0
0 1.00804 0
3.57021e-14 1.00804 0
0 1.00942 0
4.15254e-14 1.00942 0
3.57021e-14 1.00804 0
8.05865e-14 1.00804 0
4.15254e-14 1.00942 0
8.98622e-14 1.00942 0
-7.61734e-14 1.00663 0
-3.25151e-14 1.00663 0
-7.11718e-14 1.00804 0
-1.18691e-14 1.00804 0
-3.25151e-14 1.00663 0
5.77136e-14 1.00663 0
-1.18691e-14 1.00804 0
4.71926e-14 1.00804 0
8.05865e-14 1.00804 0
2.92877e-14 1.00804 0
8.98622e-14 1.00942 0
3.22745e-14 1.00942 0
2.92877e-14 1.00804 0
-6.38618e-14 1.00804 0
3.22745e-14 1.00942 0
-5.78366e-14 1.00942 0
0 1.00942 0
2.61285e-14 1.00942 0
0 1.01077 0
2.49866e-14 1.01077 0
2.61285e-14 1.00942 0
-1.76546e-13 1.00942 0
2.49866e-14 1.01077 0
-1.70061e-13 1.01077 0
0 1.01077 0
-8.97698e-15 1.01077 0
0 1.01211 0
-6.25848e-15 1.01211 0
-8.97698e-15 1.01077 0
1.63369e-13 1.01077 0
-6.25848e-15 1.01211 0
1.669e-13 1.01211 0
-1.76546e-13 1.00942 0
-1.72493e-14 1.00942 0
-1.70061e-13 1.01077 0
-1.54907e-14 1.01077 0
-1.72493e-14 1.00942 0
1.24574e-13 1.00942 0
-1.54907e-14 1.01077 0
1.29511e-13 1.01077 0
1.63369e-13 1.01077 0
2.60922e-14 1.01077 0
1.669e-13 1.01211 0
1.80774e-14 1.01211 0
2.60922e-14 1.01077 0
-1.61688e-13 1.01077 0
1.80774e-14 1.01211 0
-1.41449e-13 1.01211 0
5.77136e-14 1.00663 0
-1.55739e-14 1.00663 0
4.71926e-14 1.00804 0
-9.30312e-15 1.00804 0
-1.55739e-14 1.00663 0
1.48692e-15 1.00663 0
-9.30312e-15 1.00804 0
2.71968e-15 1.00804 0
-6.38618e-14 1.00804 0
6.33778e-15 1.00804 0
-5.78366e-14 1.00942 0
3.68779e-15 1.00942 0
6.33778e-15 1.00804 0
-4.79322e-15 1.00804 0
3.68779e-15 1.00942 0
5.30969e-15 1.00942 0
1.48692e-15 1.00663 0
-9.01703e-15 1.00663 0
2.71968e-15 1.00804 0
1.01899e-14 1.00804 0
-9.01703e-15 1.00663 0
-4.0025e-15 1.00663 0
1.01899e-14 1.00804 0
8.44585e-15 1.00804 0
-4.79322e-15 1.00804 0
-2.16814e-15 1.00804 0
5.30969e-15 1.00942 0
3.73079e-15 1.00942 0
-2.16814e-15 1.00804 0
5.6665e-15 1.00804 0
3.73079e-15 1.00942 0
1.42396e-14 1.00942 0
1.24574e-13 1.00942 0
-2.32521e-14 1.00942 0
1.29511e-13 1.01077 0
-2.40926e-14 1.01077 0
-2.32521e-14 1.00942 0
-5.73255e-15 1.00942 0
-2.40926e-14 1.01077 0
4.28258e-15 1.01077 0
-1.61688e-13 1.01077 0
-2.13781e-14 1.01077 0
-1.41449e-13 1.01211 0
-1.82918e-14 1.01211 0
-2.13781e-14 1.01077 0
-5.37262e-16 1.01077 0
-1.82918e-14 1.01211 0
7.44656e-15 1.01211 0
-5.73255e-15 1.00942 0
1.49661e-15 1.00942 0
4.28258e-15 1.01077 0
4.23253e-15 1.01077 0
1.49661e-15 1.00942 0
-8.36132e-15 1.00942 0
4.23253e-15 1.01077 0
3.14523e-16 1.01077 0
-5.37262e-16 1.01077 0
-1.18814e-15 1.01077 0
7.44656e-15 1.01211 0
4.92786e-15 1.01211 0
-1.18814e-15 1.01077 0
-7.43726e-15 1.01077 0
4.92786e-15 1.01211 0
3.37517e-15 1.01211 0
-3.49969e-15 1 0
-1.68617e-15 1 0
3.7458e-15 1.00244 0
6.63498e-15 1.00244 0
-1.68617e-15 1 0
3.62565e-15 1 0
6.63498e-15 1.00244 0
1.70222e-15 1.00244 0
-9.42416e-16 1.00244 0
3.67106e-15 1.00244 0
5.28884e-15 1.00369 0
2.40644e-15 1.00369 0
3.67106e-15 1.00244 0
5.72669e-15 1.00244 0
2.40644e-15 1.00369 0
-4.72891e-15 1.00369 0
3.62565e-15 1 0
4.0802e-15 1 0
1.70222e-15 1.00244 0
5.68853e-15 1.00244 0
4.0802e-15 1 0
6.75261e-16 1 0
5.68853e-15 1.00244 0
1.05638e-14 1.00244 0
5.72669e-15 1.00244 0
-1.03566e-14 1.00244 0
-4.72891e-15 1.00369 0
1.07893e-14 1.00369 0
-1.03566e-14 1.00244 0
-1.47182e-15 1.00244 0
1.07893e-14 1.00369 0
4.9314e-16 1.00369 0
2.25019e-15 1.00369 0
-6.09446e-15 1.00369 0
3.97681e-15 1.00522 0
1.18702e-14 1.00522 0
-6.09446e-15 1.00369 0
1.07931e-15 1.00369 0
1.18702e-14 1.00522 0
5.21305e-16 1.00522 0
-3.88286e-15 1.00522 0
-5.29384e-15 1.00522 0
1.2617e-16 1.00663 0
1.25186e-14 1.00663 0
-5.29384e-15 1.00522 0
6.03487e-15 1.00522 0
1.25186e-14 1.00663 0
3.05025e-15 1.00663 0
1.07931e-15 1.00369 0
1.32797e-14 1.00369 0
5.21305e-16 1.00522 0
-7.26593e-15 1.00522 0
1.32797e-14 1.00369 0
3.67123e-15 1.00369 0
-7.26593e-15 1.00522 0
3.63094e-15 1.00522 0
6.03487e-15 1.00522 0
-1.78587e-15 1.00522 0
3.05025e-15 1.00663 0
2.59839e-15 1.00663 0
-1.78587e-15 1.00522 0
3.75917e-15 1.00522 0
2.59839e-15 1.00663 0
8.04296e-15 1.00663 0
6.75261e-16 1 0
4.89666e-16 1 0
1.05638e-14 1.00244 0
1.48114e-14 1.00244 0
4.89666e-16 1 0
6.71502e-15 1 0
1.48114e-14 1.00244 0
6.84146e-15 1.00244 0
-1.47182e-15 1.00244 0
-9.80278e-16 1.00244 0
4.9314e-16 1.00369 0
1.18375e-15 1.00369 0
-9.80278e-16 1.00244 0
-8.14204e-15 1.00244 0
1.18375e-15 1.00369 0
1.4866e-14 1.00369 0
6.71502e-15 1 0
5.47234e-15 1 0
6.84146e-15 1.00244 0
7.52237e-15 1.00244 0
5.47234e-15 1 0
2.08969e-15 1 0
7.52237e-15 1.00244 0
1.41815e-14 1.00244 0
-8.14204e-15 1.00244 0
3.83541e-15 1.00244 0
1.4866e-14 1.00369 0
-1.35085e-15 1.00369 0
3.83541e-15 1.00244 0
-4.69822e-15 1.00244 0
-1.35085e-15 1.00369 0
6.72915e-15 1.00369 0
3.67123e-15 1.00369 0
-5.89202e-15 1.00369 0
3.63094e-15 1.00522 0
4.55839e-15 1.00522 0
-5.89202e-15 1.00369 0
5.56031e-16 1.00369 0
4.55839e-15 1.00522 0
1.81146e-15 1.00522 0
3.75917e-15 1.00522 0
7.74818e-15 1.00522 0
8.04296e-15 1.00663 0
2.46978e-15 1.00663 0
7.74818e-15 1.00522 0
-2.30893e-15 1.00522 0
2.46978e-15 1.00663 0
-3.88148e-16 1.00663 0
5.56031e-16 1.00369 0
-4.68984e-15 1.00369 0
1.81146e-15 1.00522 0
1.17067e-14 1.00522 0
-4.68984e-15 1.00369 0
-8.97933e-15 1.00369 0
1.17067e-14 1.00522 0
7.95953e-15 1.00522 0
-2.30893e-15 1.00522 0
-2.49627e-15 1.00522 0
-3.88148e-16 1.00663 0
1.22516e-14 1.00663 0
-2.49627e-15 1.00522 0
-2.15609e-15 1.00522 0
1.22516e-14 1.00663 0
5.56929e-15 1.00663 0
-4.0025e-15 1.00663 0
-4.3256e-15 1.00663 0
8.44585e-15 1.00804 0
-5.28765e-17 1.00804 0
-4.3256e-15 1.00663 0
-9.42778e-15 1.00663 0
-5.28765e-17 1.00804 0
9.79527e-15 1.00804 0
5.6665e-15 1.00804 0
-4.40056e-15 1.00804 0
1.42396e-14 1.00942 0
2.78869e-15 1.00942 0
-4.40056e-15 1.00804 0
-1.32502e-15 1.00804 0
2.78869e-15 1.00942 0
6.28061e-15 1.00942 0
-9.42778e-15 1.00663 0
2.83085e-15 1.00663 0
9.79527e-15 1.00804 0
5.02223e-15 1.00804 0
2.83085e-15 1.00663 0
-8.52338e-15 1.00663 0
5.02223e-15 1.00804 0
1.29834e-14 1.00804 0
-1.32502e-15 1.00804 0
6.8568e-16 1.00804 0
6.28061e-15 1.00942 0
-6.94947e-16 1.00942 0
6.8568e-16 1.00804 0
-5.84017e-15 1.00804 0
-6.94947e-16 1.00942 0
-5.09717e-16 1.00942 0
-8.36132e-15 1.00942 0
6.97976e-15 1.00942 0
3.14523e-16 1.01077 0
8.85265e-15 1.01077 0
6.97976e-15 1.00942 0
-7.34424e-15 1.00942 0
8.85265e-15 1.01077 0
5.04617e-15 1.01077 0
-7.43726e-15 1.01077 0
-9.46779e-15 1.01077 0
3.37517e-15 1.01211 0
5.45822e-15 1.01211 0
-9.46779e-15 1.01077 0
1.03239e-14 1.01077 0
5.45822e-15 1.01211 0
1.05182e-14 1.01211 0
-7.34424e-15 1.00942 0
-2.9998e-15 1.00942 0
5.04617e-15 1.01077 0
7.86114e-15 1.01077 0
-2.9998e-15 1.00942 0
9.74985e-16 1.00942 0
7.86114e-15 1.01077 0
4.96027e-15 1.01077 0
1.03239e-14 1.01077 0
1.69493e-15 1.01077 0
1.05182e-14 1.01211 0
2.9441e-15 1.01211 0
1.69493e-15 1.01077 0
-8.3884e-15 1.01077 0
2.9441e-15 1.01211 0
8.31168e-15 1.01211 0
-8.52338e-15 1.00663 0
9.60629e-16 1.00663 0
1.29834e-14 1.00804 0
2.34792e-15 1.00804 0
9.60629e-16 1.00663 0
4.54881e-15 1.00663 0
2.34792e-15 1.00804 0
8.3279e-15 1.00804 0
-5.84017e-15 1.00804 0
-2.9563e-15 1.00804 0
-5.09717e-16 1.00942 0
1.73892e-15 1.00942 0
-2.9563e-15 1.00804 0
9.37384e-16 1.00804 0
1.73892e-15 1.00942 0
-1.86484e-15 1.00942 0
4.54881e-15 1.00663 0
4.24195e-16 1.00663 0
8.3279e-15 1.00804 0
4.84398e-15 1.00804 0
4.24195e-16 1.00663 0
7.52012e-15 1.00663 0
4.84398e-15 1.00804 0
-3.64813e-15 1.00804 0
9.37384e-16 1.00804 0
-4.69261e-15 1.00804 0
-1.86484e-15 1.00942 0
7.53837e-15 1.00942 0
-4.69261e-15 1.00804 0
3.95662e-15 1.00804 0
7.53837e-15 1.00942 0
5.94683e-15 1.00942 0
9.74985e-16 1.00942 0
2.02677e-15 1.00942 0
4.96027e-15 1.01077 0
4.57962e-16 1.01077 0
2.02677e-15 1.00942 0
-9.35125e-15 1.00942 0
4.57962e-16 1.01077 0
1.14448e-14 1.01077 0
-8.3884e-15 1.01077 0
-1.43138e-15 1.01077 0
8.31168e-15 1.01211 0
3.38209e-15 1.01211 0
-1.43138e-15 1.01077 0
-5.93667e-15 1.01077 0
3.38209e-15 1.01211 0
8.92559e-15 1.01211 0
-9.35125e-15 1.00942 0
1.84876e-15 1.00942 0
1.14448e-14 1.01077 0
4.7405e-15 1.01077 0
1.84876e-15 1.00942 0
-3.43302e-15 1.00942 0
4.7405e-15 1.01077 0
7.08116e-15 1.01077 0
-5.93667e-15 1.01077 0
-6.33509e-15 1.01077 0
8.92559e-15 1.01211 0
-5.54344e-16 1.01211 0
-6.33509e-15 1.01077 0
1.28166e-15 1.01077 0
-5.54344e-16 1.01211 0
-1.86827e-15 1.01211 0
0 1.01211 0
-1.69112e-14 1.01211 0
0 1.01344 0
-1.06528e-14 1.01344 0
-1.69112e-14 1.01211 0
-1.1389e-13 1.01211 0
-1.06528e-14 1.01344 0
-1.07582e-13 1.01344 0
0 1.01344 0
1.33216e-14 1.01344 0
0 1.01475 0
1.39386e-14 1.01475 0
1.33216e-14 1.01344 0
1.0089e-13 1.01344 0
1.39386e-14 1.01475 0
9.76455e-14 1.01475 0
-1.1389e-13 1.01211 0
2.62046e-14 1.01211 0
-1.07582e-13 1.01344 0
1.97018e-14 1.01344 0
2.62046e-14 1.01211 0
1.12021e-13 1.01211 0
1.97018e-14 1.01344 0
1.11283e-13 1.01344 0
1.0089e-13 1.01344 0
-4.96335e-14 1.01344 0
9.76455e-14 1.01475 0
-4.53965e-14 1.01475 0
-4.96335e-14 1.01344 0
-4.02973e-14 1.01344 0
-4.53965e-14 1.01475 0
-4.01987e-14 1.01475 0
0 1.01475 0
-2.5651e-14 1.01475 0
0 1.01608 0
-2.50977e-14 1.01608 0
-2.5651e-14 1.01475 0
-7.70026e-14 1.01475 0
-2.50977e-14 1.01608 0
-7.24755e-14 1.01608 0
0 1.01608 0
5.6247e-15 1.01608 0
0 1.01742 0
5.06656e-15 1.01742 0
5.6247e-15 1.01608 0
2.68868e-14 1.01608 0
5.06656e-15 1.01742 0
2.74631e-14 1.01742 0
-7.70026e-14 1.01475 0
1.47771e-14 1.01475 0
-7.24755e-14 1.01608 0
6.44013e-15 1.01608 0
1.47771e-14 1.01475 0
7.65181e-15 1.01475 0
6.44013e-15 1.01608 0
8.57117e-15 1.01608 0
2.68868e-14 1.01608 0
-1.18988e-14 1.01608 0
2.74631e-14 1.01742 0
-5.14806e-15 1.01742 0
-1.18988e-14 1.01608 0
-1.77382e-15 1.01608 0
-5.14806e-15 1.01742 0
-4.50523e-15 1.01742 0
1.12021e-13 1.01211 0
2.02422e-14 1.01211 0
1.11283e-13 1.01344 0
2.68893e-14 1.01344 0
2.02422e-14 1.01211 0
-1.80089e-15 1.01211 0
2.68893e-14 1.01344 0
1.65348e-15 1.01344 0
-4.02973e-14 1.01344 0
1.92613e-14 1.01344 0
-4.01987e-14 1.01475 0
2.25161e-14 1.01475 0
1.92613e-14 1.01344 0
-4.45546e-15 1.01344 0
2.25161e-14 1.01475 0
3.32499e-15 1.01475 0
-1.80089e-15 1.01211 0
-3.27809e-16 1.01211 0
1.65348e-15 1.01344 0
4.06222e-15 1.01344 0
-3.27809e-16 1.01211 0
5.56794e-15 1.01211 0
4.06222e-15 1.01344 0
7.33213e-15 1.01344 0
-4.45546e-15 1.01344 0
-4.58164e-15 1.01344 0
3.32499e-15 1.01475 0
6.02705e-15 1.01475 0
-4.58164e-15 1.01344 0
-3.84991e-15 1.01344 0
6.02705e-15 1.01475 0
-8.65048e-17 1.01475 0
7.65181e-15 1.01475 0
-1.16872e-14 1.01475 0
8.57117e-15 1.01608 0
-9.68282e-15 1.01608 0
-1.16872e-14 1.01475 0
4.44751e-16 1.01475 0
-9.68282e-15 1.01608 0
1.80811e-15 1.01608 0
-1.77382e-15 1.01608 0
-1.18974e-15 1.01608 0
-4.50523e-15 1.01742 0
-3.66824e-15 1.01742 0
-1.18974e-15 1.01608 0
-7.48574e-16 1.01608 0
-3.66824e-15 1.01742 0
-9.75276e-16 1.01742 0
4.44751e-16 1.01475 0
7.04215e-16 1.01475 0
1.80811e-15 1.01608 0
3.4542e-15 1.01608 0
7.04215e-16 1.01475 0
-7.58158e-15 1.01475 0
3.4542e-15 1.01608 0
1.01964e-14 1.01608 0
-7.48574e-16 1.01608 0
-6.0174e-15 1.01608 0
-9.75276e-16 1.01742 0
5.08976e-15 1.01742 0
-6.0174e-15 1.01608 0
-6.08283e-15 1.01608 0
5.08976e-15 1.01742 0
5.6703e-15 1.01742 0
0 1.01742 0
2.93873e-14 1.01742 0
0 1.01877 0
2.86846e-14 1.01877 0
2.93873e-14 1.01742 0
-2.02322e-14 1.01742 0
2.86846e-14 1.01877 0
-1.93884e-14 1.01877 0
0 1.01877 0
-2.82074e-14 1.01877 0
0 1.02009 0
-2.50152e-14 1.02009 0
-2.82074e-14 1.01877 0
3.89778e-14 1.01877 0
-2.50152e-14 1.02009 0
3.65638e-14 1.02009 0
-2.02322e-14 1.01742 0
2.30223e-15 1.01742 0
-1.93884e-14 1.01877 0
1.54891e-15 1.01877 0
2.30223e-15 1.01742 0
-1.33467e-14 1.01742 0
1.54891e-15 1.01877 0
-6.20868e-15 1.01877 0
3.89778e-14 1.01877 0
-1.98103e-16 1.01877 0
3.65638e-14 1.02009 0
4.46897e-15 1.02009 0
-1.98103e-16 1.01877 0
8.0171e-16 1.01877 0
4.46897e-15 1.02009 0
1.39869e-15 1.02009 0
0 1.02009 0
1.57146e-14 1.02009 0
0 1.02124 0
1.27294e-14 1.02124 0
1.57146e-14 1.02009 0
-2.25637e-14 1.02009 0
1.27294e-14 1.02124 0
-2.42425e-14 1.02124 0
0 1.02124 0
-1.95529e-15 1.02124 0
0 1.02174 0
-1.27579e-14 1.02174 0
-1.95529e-15 1.02124 0
-1.65041e-15 1.02124 0
-1.27579e-14 1.02174 0
1.47082e-14 1.02174 0
-2.25637e-14 1.02009 0
1.66286e-15 1.02009 0
-2.42425e-14 1.02124 0
-8.0306e-16 1.02124 0
1.66286e-15 1.02009 0
2.57741e-15 1.02009 0
-8.0306e-16 1.02124 0
3.4155e-15 1.02124 0
-1.65041e-15 1.02124 0
-3.75042e-15 1.02124 0
1.47082e-14 1.02174 0
-1.60819e-14 1.02174 0
-3.75042e-15 1.02124 0
-1.27874e-15 1.02124 0
-1.60819e-14 1.02174 0
1.80378e-14 1.02174 0
-1.33467e-14 1.01742 0
-6.89603e-15 1.01742 0
-6.20868e-15 1.01877 0
2.93394e-15 1.01877 0
-6.89603e-15 1.01742 0
2.01901e-15 1.01742 0
2.93394e-15 1.01877 0
2.91401e-15 1.01877 0
8.0171e-16 1.01877 0
-3.09905e-15 1.01877 0
1.39869e-15 1.02009 0
1.59355e-15 1.02009 0
-3.09905e-15 1.01877 0
-3.28694e-15 1.01877 0
1.59355e-15 1.02009 0
1.59557e-15 1.02009 0
2.01901e-15 1.01742 0
-1.32379e-17 1.01742 0
2.91401e-15 1.01877 0
1.83271e-15 1.01877 0
-1.32379e-17 1.01742 0
-1.06658e-15 1.01742 0
1.83271e-15 1.01877 0
1.55895e-15 1.01877 0
-3.28694e-15 1.01877 0
-4.35558e-15 1.01877 0
1.59557e-15 1.02009 0
-3.79954e-16 1.02009 0
-4.35558e-15 1.01877 0
-5.54703e-16 1.01877 0
-3.79954e-16 1.02009 0
-1.53678e-16 1.02009 0
2.57741e-15 1.02009 0
-6.0891e-16 1.02009 0
3.4155e-15 1.02124 0
1.99342e-15 1.02124 0
-6.0891e-16 1.02009 0
-1.35982e-15 1.02009 0
1.99342e-15 1.02124 0
2.10459e-15 1.02124 0
-1.27874e-15 1.02124 0
-4.14285e-15 1.02124 0
1.80378e-14 1.02174 0
4.68317e-15 1.02174 0
-4.14285e-15 1.02124 0
-7.49169e-16 1.02124 0
4.68317e-15 1.02174 0
-1.58279e-15 1.02174 0
-1.35982e-15 1.02009 0
-1.71743e-15 1.02009 0
2.10459e-15 1.02124 0
2.4071e-15 1.02124 0
-1.71743e-15 1.02009 0
-1.38025e-15 1.02009 0
2.4071e-15 1.02124 0
2.02256e-15 1.02124 0
-7.49169e-16 1.02124 0
-1.0057e-15 1.02124 0
-1.58279e-15 1.02174 0
5.96587e-15 1.02174 0
-1.0057e-15 1.02124 0
1.7568e-15 1.02124 0
5.96587e-15 1.02174 0
-1.74563e-14 1.02174 0
5.56794e-15 1.01211 0
2.62037e-15 1.01211 0
7.33213e-15 1.01344 0
7.71023e-15 1.01344 0
2.62037e-15 1.01211 0
-4.3692e-15 1.01211 0
7.71023e-15 1.01344 0
-1.29024e-14 1.01344 0
-3.84991e-15 1.01344 0
-3.99752e-15 1.01344 0
-8.65048e-17 1.01475 0
3.50863e-15 1.01475 0
-3.99752e-15 1.01344 0
3.26341e-15 1.01344 0
3.50863e-15 1.01475 0
5.88813e-16 1.01475 0
-4.3692e-15 1.01211 0
-2.04175e-15 1.01211 0
-1.29024e-14 1.01344 0
-2.52939e-15 1.01344 0
-2.04175e-15 1.01211 0
-3.12173e-15 1.01211 0
-2.52939e-15 1.01344 0
4.85743e-15 1.01344 0
3.26341e-15 1.01344 0
8.75102e-16 1.01344 0
5.88813e-16 1.01475 0
1.00957e-15 1.01475 0
8.75102e-16 1.01344 0
-2.79039e-15 1.01344 0
1.00957e-15 1.01475 0
4.65835e-15 1.01475 0
-7.58158e-15 1.01475 0
-1.78617e-16 1.01475 0
1.01964e-14 1.01608 0
1.24256e-15 1.01608 0
-1.78617e-16 1.01475 0
-4.99546e-15 1.01475 0
1.24256e-15 1.01608 0
4.02356e-15 1.01608 0
-6.08283e-15 1.01608 0
-1.50011e-15 1.01608 0
5.6703e-15 1.01742 0
3.85811e-15 1.01742 0
-1.50011e-15 1.01608 0
-6.85757e-16 1.01608 0
3.85811e-15 1.01742 0
-2.44792e-15 1.01742 0
-4.99546e-15 1.01475 0
-2.73868e-15 1.01475 0
4.02356e-15 1.01608 0
3.63087e-15 1.01608 0
-2.73868e-15 1.01475 0
-4.41745e-15 1.01475 0
3.63087e-15 1.01608 0
1.77869e-15 1.01608 0
-6.85757e-16 1.01608 0
-4.66341e-15 1.01608 0
-2.44792e-15 1.01742 0
3.79434e-15 1.01742 0
-4.66341e-15 1.01608 0
1.27338e-15 1.01608 0
3.79434e-15 1.01742 0
-6.0217e-16 1.01742 0
-3.12173e-15 1.01211 0
-7.31253e-16 1.01211 0
4.85743e-15 1.01344 0
2.67151e-15 1.01344 0
-7.31253e-16 1.01211 0
-3.64222e-15 1.01211 0
2.67151e-15 1.01344 0
9.02877e-15 1.01344 0
-2.79039e-15 1.01344 0
-9.74438e-16 1.01344 0
4.65835e-15 1.01475 0
1.68326e-15 1.01475 0
-9.74438e-16 1.01344 0
-1.19441e-16 1.01344 0
1.68326e-15 1.01475 0
1.73196e-15 1.01475 0
-3.64222e-15 1.01211 0
2.05754e-16 1.01211 0
9.02877e-15 1.01344 0
3.00292e-15 1.01344 0
2.05754e-16 1.01211 0
3.65759e-15 1.01211 0
3.00292e-15 1.01344 0
-1.87523e-15 1.01344 0
-1.19441e-16 1.01344 0
1.72623e-15 1.01344 0
1.73196e-15 1.01475 0
2.02987e-15 1.01475 0
1.72623e-15 1.01344 0
1.43655e-15 1.01344 0
2.02987e-15 1.01475 0
6.64428e-16 1.01475 0
-4.41745e-15 1.01475 0
-1.28513e-15 1.01475 0
1.77869e-15 1.01608 0
-4.94594e-16 1.01608 0
-1.28513e-15 1.01475 0
-4.30512e-16 1.01475 0
-4.94594e-16 1.01608 0
1.54683e-15 1.01608 0
1.27338e-15 1.01608 0
-1.85426e-15 1.01608 0
-6.0217e-16 1.01742 0
3.83852e-15 1.01742 0
-1.85426e-15 1.01608 0
-4.48737e-15 1.01608 0
3.83852e-15 1.01742 0
1.13971e-15 1.01742 0
-4.30512e-16 1.01475 0
-1.80579e-16 1.01475 0
1.54683e-15 1.01608 0
3.57794e-15 1.01608 0
-1.80579e-16 1.01475 0
-1.41101e-15 1.01475 0
3.57794e-15 1.01608 0
5.39657e-15 1.01608 0
-4.48737e-15 1.01608 0
-3.08281e-15 1.01608 0
1.13971e-15 1.01742 0
-7.05486e-16 1.01742 0
-3.08281e-15 1.01608 0
4.28003e-15 1.01608 0
-7.05486e-16 1.01742 0
-7.03822e-16 1.01742 0
-1.06658e-15 1.01742 0
-6.52803e-15 1.01742 0
1.55895e-15 1.01877 0
3.37865e-15 1.01877 0
-6.52803e-15 1.01742 0
-1.60894e-15 1.01742 0
3.37865e-15 1.01877 0
1.59447e-15 1.01877 0
-5.54703e-16 1.01877 0
-4.9677e-16 1.01877 0
-1.53678e-16 1.02009 0
-1.92898e-15 1.02009 0
-4.9677e-16 1.01877 0
-2.28713e-15 1.01877 0
-1.92898e-15 1.02009 0
1.5671e-15 1.02009 0
-1.60894e-15 1.01742 0
8.56377e-16 1.01742 0
1.59447e-15 1.01877 0
1.95077e-15 1.01877 0