# vtk DataFile Version 3.0
#This file was generated by the deal.II library on 2018/10/11 at 23:27:59
ASCII
DATASET UNSTRUCTURED_GRID

POINTS 5120 double
0 0 0
0.392699 0 0
0 0.624587 0
0.392699 0.624587 0
0.392699 0 0
0.785398 0 0
0.392699 0.624587 0
0.785398 0.624587 0
0 0.624587 0
0.392699 0.624587 0
0 1.24959 0
0.392699 1.24959 0
0.392699 0.624587 0
0.785398 0.624587 0
0.392699 1.24959 0
0.785398 1.24959 0
0.785398 0 0
1.1781 0 0
0.785398 0.624587 0
1.1781 0.624587 0
1.1781 0 0
1.5708 0 0
1.1781 0.624587 0
1.5708 0.624587 0
0.785398 0.624587 0
1.1781 0.624587 0
0.785398 1.24959 0
1.1781 1.24959 0
1.1781 0.624587 0
1.5708 0.624587 0
1.1781 1.24959 0
1.5708 1.24959 0
0 1.24959 0
0.392699 1.24959 0
0 1.87457 0
0.392699 1.87457 0
0.392699 1.24959 0
0.785398 1.24959 0
0.392699 1.87457 0
0.785398 1.87457 0
0 1.87457 0
0.392699 1.87457 0
0 2.49957 0
0.392699 2.49957 0
0.392699 1.87457 0
0.785398 1.87457 0
0.392699 2.49957 0
0.785398 2.49957 0
0.785398 1.24959 0
1.1781 1.24959 0
0.785398 1.87457 0
1.1781 1.87457 0
1.1781 1.24959 0
1.5708 1.24959 0
1.1781 1.87457 0
1.5708 1.87457 0
0.785398 1.87457 0
1.1781 1.87457 0
0.785398 2.49957 0
1.1781 2.49957 0
1.1781 1.87457 0
1.5708 1.87457 0
1.1781 2.49957 0
1.5708 2.49957 0
1.5708 0 0
1.9635 0 0
1.5708 0.624587 0
1.9635 0.624587 0
1.9635 0 0
2.35619 0 0
1.9635 0.624587 0
2.35619 0.624587 0
1.5708 0.624587 0
1.9635 0.624587 0
1.5708 1.24959 0
1.9635 1.24959 0
1.9635 0.624587 0
2.35619 0.624587 0
1.9635 1.24959 0
2.35619 1.24959 0
2.35619 0 0
2.74889 0 0
2.35619 0.624587 0
2.74889 0.624587 0
2.74889 0 0
3.14159 0 0
2.74889 0.624587 0
3.14159 0.624587 0
2.35619 0.624587 0
2.74889 0.624587 0
2.35619 1.24959 0
2.74889 1.24959 0
2.74889 0.624587 0
3.14159 0.624587 0
2.74889 1.24959 0
3.14159 1.24959 0
1.5708 1.24959 0
1.9635 1.24959 0
1.5708 1.87457 0
1.9635 1.87457 0
1.9635 1.24959 0
2.35619 1.24959 0
1.9635 1.87457 0
2.35619 1.87457 0
1.5708 1.87457 0
1.9635 1.87457 0
1.5708 2.49957 0
1.9635 2.49957 0
1.9635 1.87457 0
2.35619 1.87457 0
1.9635 2.49957 0
2.35619 2.49957 0
2.35619 1.24959 0
2.74889 1.24959 0
2.35619 1.87457 0
2.74889 1.87457 0
2.74889 1.24959 0
3.14159 1.24959 0
2.74889 1.87457 0
3.14159 1.87457 0
2.35619 1.87457 0
2.74889 1.87457 0
2.35619 2.49957 0
2.74889 2.49957 0
2.74889 1.87457 0
3.14159 1.87457 0
2.74889 2.49957 0
3.14159 2.49957 0
0 2.49957 0
0.392699 2.49957 0
0 3.12456 0
0.392699 3.12456 0
0.392699 2.49957 0
0.785398 2.49957 0
0.392699 3.12456 0
0.785398 3.12456 0
0 3.12456 0
0.392699 3.12456 0
0 3.74956 0
0.392699 3.74956 0
0.392699 3.12456 0
0.785398 3.12456 0
0.392699 3.74956 0
0.785398 3.74956 0
0.785398 2.49957 0
1.1781 2.49957 0
0.785398 3.12456 0
1.1781 3.12456 0
1.1781 2.49957 0
1.5708 2.49957 0
1.1781 3.12456 0
1.5708 3.12456 0
0.785398 3.12456 0
1.1781 3.12456 0
0.785398 3.74956 0
1.1781 3.74956 0
1.1781 3.12456 0
1.5708 3.12456 0
1.1781 3.74956 0
1.5708 3.74956 0
0 3.74956 0
0.392699 3.74956 0
0 4.37455 0
0.392699 4.37455 0
0.392699 3.74956 0
0.785398 3.74956 0
0.392699 4.37455 0
0.785398 4.37455 0
0 4.37455 0
0.392699 4.37455 0
0 4.99953 0
0.392699 4.99953 0
0.392699 4.37455 0
0.785398 4.37455 0
0.392699 4.99953 0
0.785398 4.99953 0
0.785398 3.74956 0
1.1781 3.74956 0
0.785398 4.37455 0
1.1781 4.37455 0
1.1781 3.74956 0
1.5708 3.74956 0
1.1781 4.37455 0
1.5708 4.37455 0
0.785398 4.37455 0
1.1781 4.37455 0
0.785398 4.99953 0
1.1781 4.99953 0
1.1781 4.37455 0
1.5708 4.37455 0
1.1781 4.99953 0
1.5708 4.99953 0
1.5708 2.49957 0
1.9635 2.49957 0
1.5708 3.12456 0
1.9635 3.12456 0
1.9635 2.49957 0
2.35619 2.49957 0
1.9635 3.12456 0
2.35619 3.12456 0
1.5708 3.12456 0
1.9635 3.12456 0
1.5708 3.74956 0
1.9635 3.74956 0
1.9635 3.12456 0
2.35619 3.12456 0
1.9635 3.74956 0
2.35619 3.74956 0
2.35619 2.49957 0
2.74889 2.49957 0
2.35619 3.12456 0
2.74889 3.12456 0
2.74889 2.49957 0
3.14159 2.49957 0
2.74889 3.12456 0
3.14159 3.12456 0
2.35619 3.12456 0
2.74889 3.12456 0
2.35619 3.74956 0
2.74889 3.74956 0
2.74889 3.12456 0
3.14159 3.12456 0
2.74889 3.74956 0
3.14159 3.74956 0
1.5708 3.74956 0
1.9635 3.74956 0
1.5708 4.37455 0
1.9635 4.37455 0
1.9635 3.74956 0
2.35619 3.74956 0
1.9635 4.37455 0
2.35619 4.37455 0
1.5708 4.37455 0
1.9635 4.37455 0
1.5708 4.99953 0
1.9635 4.99953 0
1.9635 4.37455 0
2.35619 4.37455 0
1.9635 4.99953 0
2.35619 4.99953 0
2.35619 3.74956 0
2.74889 3.74956 0
2.35619 4.37455 0
2.74889 4.37455 0
2.74889 3.74956 0
3.14159 3.74956 0
2.74889 4.37455 0
3.14159 4.37455 0
2.35619 4.37455 0
2.74889 4.37455 0
2.35619 4.99953 0
2.74889 4.99953 0
2.74889 4.37455 0
3.14159 4.37455 0
2.74889 4.99953 0
3.14159 4.99953 0
3.14159 0 0
3.53429 0 0
3.14159 0.624587 0
3.53429 0.624587 0
3.53429 0 0
3.92699 0 0
3.53429 0.624587 0
3.92699 0.624587 0
3.14159 0.624587 0
3.53429 0.624587 0
3.14159 1.24959 0
3.53429 1.24959 0
3.53429 0.624587 0
3.92699 0.624587 0
3.53429 1.24959 0
3.92699 1.24959 0
3.92699 0 0
4.31969 0 0
3.92699 0.624587 0
4.31969 0.624587 0
4.31969 0 0
4.71239 0 0
4.31969 0.624587 0
4.71239 0.624587 0
3.92699 0.624587 0
4.31969 0.624587 0
3.92699 1.24959 0
4.31969 1.24959 0
4.31969 0.624587 0
4.71239 0.624587 0
4.31969 1.24959 0
4.71239 1.24959 0
3.14159 1.24959 0
3.53429 1.24959 0
3.14159 1.87457 0
3.53429 1.87457 0
3.53429 1.24959 0
3.92699 1.24959 0
3.53429 1.87457 0
3.92699 1.87457 0
3.14159 1.87457 0
3.53429 1.87457 0
3.14159 2.49957 0
3.53429 2.49957 0
3.53429 1.87457 0
3.92699 1.87457 0
3.53429 2.49957 0
3.92699 2.49957 0
3.92699 1.24959 0
4.31969 1.24959 0
3.92699 1.87457 0
4.31969 1.87457 0
4.31969 1.24959 0
4.71239 1.24959 0
4.31969 1.87457 0
4.71239 1.87457 0
3.92699 1.87457 0
4.31969 1.87457 0
3.92699 2.49957 0
4.31969 2.49957 0
4.31969 1.87457 0
4.71239 1.87457 0
4.31969 2.49957 0
4.71239 2.49957 0
4.71239 0 0
5.10509 0 0
4.71239 0.624587 0
5.10509 0.624587 0
5.10509 0 0
5.49779 0 0
5.10509 0.624587 0
5.49779 0.624587 0
4.71239 0.624587 0
5.10509 0.624587 0
4.71239 1.24959 0
5.10509 1.24959 0
5.10509 0.624587 0
5.49779 0.624587 0
5.10509 1.24959 0
5.49779 1.24959 0
5.49779 0 0
5.89049 0 0
5.49779 0.624587 0
5.89049 0.624587 0
5.89049 0 0
6.28319 0 0
5.89049 0.624587 0
6.28319 0.624587 0
5.49779 0.624587 0
5.89049 0.624587 0
5.49779 1.24959 0
5.89049 1.24959 0
5.89049 0.624587 0
6.28319 0.624587 0
5.89049 1.24959 0
6.28319 1.24959 0
4.71239 1.24959 0
5.10509 1.24959 0
4.71239 1.87457 0
5.10509 1.87457 0
5.10509 1.24959 0
5.49779 1.24959 0
5.10509 1.87457 0
5.49779 1.87457 0
4.71239 1.87457 0
5.10509 1.87457 0
4.71239 2.49957 0
5.10509 2.49957 0
5.10509 1.87457 0
5.49779 1.87457 0
5.10509 2.49957 0
5.49779 2.49957 0
5.49779 1.24959 0
5.89049 1.24959 0
5.49779 1.87457 0
5.89049 1.87457 0
5.89049 1.24959 0
6.28319 1.24959 0
5.89049 1.87457 0
6.28319 1.87457 0
5.49779 1.87457 0
5.89049 1.87457 0
5.49779 2.49957 0
5.89049 2.49957 0
5.89049 1.87457 0
6.28319 1.87457 0
5.89049 2.49957 0
6.28319 2.49957 0
3.14159 2.49957 0
3.53429 2.49957 0
3.14159 3.12456 0
3.53429 3.12456 0
3.53429 2.49957 0
3.92699 2.49957 0
3.53429 3.12456 0
3.92699 3.12456 0
3.14159 3.12456 0
3.53429 3.12456 0
3.14159 3.74956 0
3.53429 3.74956 0
3.53429 3.12456 0
3.92699 3.12456 0
3.53429 3.74956 0
3.92699 3.74956 0
3.92699 2.49957 0
4.31969 2.49957 0
3.92699 3.12456 0
4.31969 3.12456 0
4.31969 2.49957 0
4.71239 2.49957 0
4.31969 3.12456 0
4.71239 3.12456 0
3.92699 3.12456 0
4.31969 3.12456 0
3.92699 3.74956 0
4.31969 3.74956 0
4.31969 3.12456 0
4.71239 3.12456 0
4.31969 3.74956 0
4.71239 3.74956 0
3.14159 3.74956 0
3.53429 3.74956 0
3.14159 4.37455 0
3.53429 4.37455 0
3.53429 3.74956 0
3.92699 3.74956 0
3.53429 4.37455 0
3.92699 4.37455 0
3.14159 4.37455 0
3.53429 4.37455 0
3.14159 4.99953 0
3.53429 4.99953 0
3.53429 4.37455 0
3.92699 4.37455 0
3.53429 4.99953 0
3.92699 4.99953 0
3.92699 3.74956 0
4.31969 3.74956 0
3.92699 4.37455 0
4.31969 4.37455 0
4.31969 3.74956 0
4.71239 3.74956 0
4.31969 4.37455 0
4.71239 4.37455 0
3.92699 4.37455 0
4.31969 4.37455 0
3.92699 4.99953 0
4.31969 4.99953 0
4.31969 4.37455 0
4.71239 4.37455 0
4.31969 4.99953 0
4.71239 4.99953 0
4.71239 2.49957 0
5.10509 2.49957 0
4.71239 3.12456 0
5.10509 3.12456 0
5.10509 2.49957 0
5.49779 2.49957 0
5.10509 3.12456 0
5.49779 3.12456 0
4.71239 3.12456 0
5.10509 3.12456 0
4.71239 3.74956 0
5.10509 3.74956 0
5.10509 3.12456 0
5.49779 3.12456 0
5.10509 3.74956 0
5.49779 3.74956 0
5.49779 2.49957 0
5.89049 2.49957 0
5.49779 3.12456 0
5.89049 3.12456 0
5.89049 2.49957 0
6.28319 2.49957 0
5.89049 3.12456 0
6.28319 3.12456 0
5.49779 3.12456 0
5.89049 3.12456 0
5.49779 3.74956 0
5.89049 3.74956 0
5.89049 3.12456 0
6.28319 3.12456 0
5.89049 3.74956 0
6.28319 3.74956 0
4.71239 3.74956 0
5.10509 3.74956 0
4.71239 4.37455 0
5.10509 4.37455 0
5.10509 3.74956 0
5.49779 3.74956 0
5.10509 4.37455 0
5.49779 4.37455 0
4.71239 4.37455 0
5.10509 4.37455 0
4.71239 4.99953 0
5.10509 4.99953 0
5.10509 4.37455 0
5.49779 4.37455 0
5.10509 4.99953 0
5.49779 4.99953 0
5.49779 3.74956 0
5.89049 3.74956 0
5.49779 4.37455 0
5.89049 4.37455 0
5.89049 3.74956 0
6.28319 3.74956 0
5.89049 4.37455 0
6.28319 4.37455 0
5.49779 4.37455 0
5.89049 4.37455 0
5.49779 4.99953 0
5.89049 4.99953 0
5.89049 4.37455 0
6.28319 4.37455 0
5.89049 4.99953 0
6.28319 4.99953 0
0 4.99953 0
0.392699 4.99953 0
0 5.62452 0
0.392699 5.62452 0
0.392699 4.99953 0
0.785398 4.99953 0
0.392699 5.62452 0
0.785398 5.62452 0
0 5.62452 0
0.392699 5.62452 0
0 6.2495 0
0.392699 6.2495 0
0.392699 5.62452 0
0.785398 5.62452 0
0.392699 6.2495 0
0.785398 6.2495 0
0.785398 4.99953 0
1.1781 4.99953 0
0.785398 5.62452 0
1.1781 5.62452 0
1.1781 4.99953 0
1.5708 4.99953 0
1.1781 5.62452 0
1.5708 5.62452 0
0.785398 5.62452 0
1.1781 5.62452 0
0.785398 6.2495 0
1.1781 6.2495 0
1.1781 5.62452 0
1.5708 5.62452 0
1.1781 6.2495 0
1.5708 6.2495 0
0 6.2495 0
0.392699 6.2495 0
0 6.87448 0
0.392699 6.87448 0
0.392699 6.2495 0
0.785398 6.2495 0
0.392699 6.87448 0
0.785398 6.87448 0
0 6.87448 0
0.392699 6.87448 0
0 7.49946 0
0.392699 7.49946 0
0.392699 6.87448 0
0.785398 6.87448 0
0.392699 7.49946 0
0.785398 7.49946 0
0.785398 6.2495 0
1.1781 6.2495 0
0.785398 6.87448 0
[...]
POINT_DATA 5120
VECTORS uf double
0 1 0
1.66137e-16 1 0
0 1.00113 0
-6.4635e-16 1.00113 0
1.66137e-16 1 0
-2.14204e-16 1 0
-6.4635e-16 1.00113 0
3.08761e-15 1.00113 0
0 1.00113 0
5.50429e-15 1.00113 0
0 1.00177 0
-2.58176e-15 1.00177 0
5.50429e-15 1.00113 0
2.59605e-15 1.00113 0
-2.58176e-15 1.00177 0
-1.9455e-15 1.00177 0
-2.14204e-16 1 0
2.67272e-15 1 0
3.08761e-15 1.00113 0
-2.33167e-15 1.00113 0
2.67272e-15 1 0
4.04008e-16 1 0
-2.33167e-15 1.00113 0
1.28275e-15 1.00113 0
2.59605e-15 1.00113 0
5.91134e-15 1.00113 0
-1.9455e-15 1.00177 0
-3.77585e-15 1.00177 0
5.91134e-15 1.00113 0
-4.34928e-15 1.00113 0
-3.77585e-15 1.00177 0
7.34515e-15 1.00177 0
0 1.00177 0
9.61467e-15 1.00177 0
0 1.00253 0
-1.1716e-14 1.00253 0
9.61467e-15 1.00177 0
4.79815e-15 1.00177 0
-1.1716e-14 1.00253 0
-1.67932e-15 1.00253 0
0 1.00253 0
7.33979e-15 1.00253 0
0 1.00325 0
-8.1106e-15 1.00325 0
7.33979e-15 1.00253 0
-1.79511e-15 1.00253 0
-8.1106e-15 1.00325 0
3.21411e-15 1.00325 0
4.79815e-15 1.00177 0
2.56082e-15 1.00177 0
-1.67932e-15 1.00253 0
-4.76907e-16 1.00253 0
2.56082e-15 1.00177 0
-3.59818e-15 1.00177 0
-4.76907e-16 1.00253 0
6.70332e-15 1.00253 0
-1.79511e-15 1.00253 0
3.06584e-15 1.00253 0
3.21411e-15 1.00325 0
8.25003e-16 1.00325 0
3.06584e-15 1.00253 0
-5.0806e-15 1.00253 0
8.25003e-16 1.00325 0
6.27352e-15 1.00325 0
4.04008e-16 1 0
-2.53261e-15 1 0
1.28275e-15 1.00113 0
3.99184e-15 1.00113 0
-2.53261e-15 1 0
-1.2221e-15 1 0
3.99184e-15 1.00113 0
7.82533e-16 1.00113 0
-4.34928e-15 1.00113 0
4.3519e-16 1.00113 0
7.34515e-15 1.00177 0
7.24018e-16 1.00177 0
4.3519e-16 1.00113 0
-3.81417e-17 1.00113 0
7.24018e-16 1.00177 0
2.58951e-15 1.00177 0
-1.2221e-15 1 0
-6.09258e-15 1 0
7.82533e-16 1.00113 0
1.04752e-14 1.00113 0
-6.09258e-15 1 0
-2.4347e-15 1 0
1.04752e-14 1.00113 0
6.23443e-15 1.00113 0
-3.81417e-17 1.00113 0
-5.75498e-15 1.00113 0
2.58951e-15 1.00177 0
6.97703e-15 1.00177 0
-5.75498e-15 1.00113 0
-4.92286e-15 1.00113 0
6.97703e-15 1.00177 0
2.96727e-15 1.00177 0
-3.59818e-15 1.00177 0
3.3371e-15 1.00177 0
6.70332e-15 1.00253 0
-1.85346e-15 1.00253 0
3.3371e-15 1.00177 0
1.76209e-15 1.00177 0
-1.85346e-15 1.00253 0
1.67051e-15 1.00253 0
-5.0806e-15 1.00253 0
4.55324e-16 1.00253 0
6.27352e-15 1.00325 0
1.81456e-15 1.00325 0
4.55324e-16 1.00253 0
-5.12775e-15 1.00253 0
1.81456e-15 1.00325 0
1.54365e-14 1.00325 0
1.76209e-15 1.00177 0
-4.29244e-15 1.00177 0
1.67051e-15 1.00253 0
7.77842e-15 1.00253 0
-4.29244e-15 1.00177 0
4.58769e-15 1.00177 0
7.77842e-15 1.00253 0
4.73224e-16 1.00253 0
-5.12775e-15 1.00253 0
-5.93304e-15 1.00253 0
1.54365e-14 1.00325 0
8.42218e-15 1.00325 0
-5.93304e-15 1.00253 0
-3.02689e-15 1.00253 0
8.42218e-15 1.00325 0
8.88394e-15 1.00325 0
0 1.00325 0
6.25742e-15 1.00325 0
0 1.00397 0
-2.41021e-15 1.00397 0
6.25742e-15 1.00325 0
-1.96058e-15 1.00325 0
-2.41021e-15 1.00397 0
-1.64622e-15 1.00397 0
0 1.00397 0
2.39944e-15 1.00397 0
0 1.00468 0
-3.01546e-15 1.00468 0
2.39944e-15 1.00397 0
7.73298e-16 1.00397 0
-3.01546e-15 1.00468 0
-4.12304e-15 1.00468 0
-1.96058e-15 1.00325 0
-3.52393e-15 1.00325 0
-1.64622e-15 1.00397 0
6.71459e-16 1.00397 0
-3.52393e-15 1.00325 0
-3.97591e-15 1.00325 0
6.71459e-16 1.00397 0
1.02532e-15 1.00397 0
7.73298e-16 1.00397 0
1.30146e-15 1.00397 0
-4.12304e-15 1.00468 0
-5.27235e-15 1.00468 0
1.30146e-15 1.00397 0
-7.05605e-15 1.00397 0
-5.27235e-15 1.00468 0
8.66857e-15 1.00468 0
0 1.00468 0
2.41784e-15 1.00468 0
0 1.0054 0
-4.46249e-15 1.0054 0
2.41784e-15 1.00468 0
5.38834e-15 1.00468 0
-4.46249e-15 1.0054 0
5.90263e-16 1.0054 0
0 1.0054 0
7.44021e-15 1.0054 0
0 1.00611 0
-8.0508e-15 1.00611 0
7.44021e-15 1.0054 0
-1.95755e-15 1.0054 0
-8.0508e-15 1.00611 0
-1.27836e-15 1.00611 0
5.38834e-15 1.00468 0
6.3161e-15 1.00468 0
5.90263e-16 1.0054 0
-2.90186e-15 1.0054 0
6.3161e-15 1.00468 0
-6.19848e-15 1.00468 0
-2.90186e-15 1.0054 0
2.71441e-15 1.0054 0
-1.95755e-15 1.0054 0
1.96173e-15 1.0054 0
-1.27836e-15 1.00611 0
1.79105e-15 1.00611 0
1.96173e-15 1.0054 0
6.89077e-16 1.0054 0
1.79105e-15 1.00611 0
6.5879e-15 1.00611 0
-3.97591e-15 1.00325 0
-3.69823e-15 1.00325 0
1.02532e-15 1.00397 0
2.93126e-15 1.00397 0
-3.69823e-15 1.00325 0
-1.38606e-14 1.00325 0
2.93126e-15 1.00397 0
7.11793e-15 1.00397 0
-7.05605e-15 1.00397 0
-3.33276e-15 1.00397 0
8.66857e-15 1.00468 0
3.3547e-15 1.00468 0
-3.33276e-15 1.00397 0
-4.03137e-15 1.00397 0
3.3547e-15 1.00468 0
4.03697e-15 1.00468 0
-1.38606e-14 1.00325 0
-7.51798e-15 1.00325 0
7.11793e-15 1.00397 0
7.13344e-15 1.00397 0
-7.51798e-15 1.00325 0
-9.86909e-15 1.00325 0
7.13344e-15 1.00397 0
7.48248e-15 1.00397 0
-4.03137e-15 1.00397 0
-8.15558e-15 1.00397 0
4.03697e-15 1.00468 0
7.80522e-15 1.00468 0
-8.15558e-15 1.00397 0
-2.67525e-15 1.00397 0
7.80522e-15 1.00468 0
-1.06955e-15 1.00468 0
-6.19848e-15 1.00468 0
-4.79457e-15 1.00468 0
2.71441e-15 1.0054 0
1.01784e-14 1.0054 0
-4.79457e-15 1.00468 0
-1.8601e-15 1.00468 0
1.01784e-14 1.0054 0
5.08484e-15 1.0054 0
6.89077e-16 1.0054 0
-4.89794e-15 1.0054 0
6.5879e-15 1.00611 0
3.17556e-15 1.00611 0
-4.89794e-15 1.0054 0
-3.99583e-15 1.0054 0
3.17556e-15 1.00611 0
4.48494e-15 1.00611 0
-1.8601e-15 1.00468 0
-3.47811e-15 1.00468 0
5.08484e-15 1.0054 0
5.55687e-15 1.0054 0
-3.47811e-15 1.00468 0
1.75652e-15 1.00468 0
5.55687e-15 1.0054 0
5.19206e-15 1.0054 0
-3.99583e-15 1.0054 0
-3.66269e-15 1.0054 0
4.48494e-15 1.00611 0
5.48213e-15 1.00611 0
-3.66269e-15 1.0054 0
-4.49577e-15 1.0054 0
5.48213e-15 1.00611 0
8.30717e-15 1.00611 0
-2.4347e-15 1 0
-6.85714e-15 1 0
6.23443e-15 1.00113 0
6.46043e-15 1.00113 0
-6.85714e-15 1 0
-1.9193e-15 1 0
6.46043e-15 1.00113 0
3.77049e-15 1.00113 0
-4.92286e-15 1.00113 0
9.23834e-17 1.00113 0
2.96727e-15 1.00177 0
5.17666e-15 1.00177 0
9.23834e-17 1.00113 0
7.00598e-16 1.00113 0
5.17666e-15 1.00177 0
4.49958e-15 1.00177 0
-1.9193e-15 1 0
-7.16553e-15 1 0
3.77049e-15 1.00113 0
1.01419e-14 1.00113 0
-7.16553e-15 1 0
-3.09806e-15 1 0
1.01419e-14 1.00113 0
4.99864e-15 1.00113 0
7.00598e-16 1.00113 0
-1.36091e-15 1.00113 0
4.49958e-15 1.00177 0
-9.08465e-16 1.00177 0
-1.36091e-15 1.00113 0
-1.66903e-15 1.00113 0
-9.08465e-16 1.00177 0
6.5083e-15 1.00177 0
4.58769e-15 1.00177 0
-2.57986e-16 1.00177 0
4.73224e-16 1.00253 0
4.0759e-15 1.00253 0
-2.57986e-16 1.00177 0
-1.41574e-16 1.00177 0
4.0759e-15 1.00253 0
1.3234e-15 1.00253 0
-3.02689e-15 1.00253 0
-2.51523e-15 1.00253 0
8.88394e-15 1.00325 0
4.05754e-15 1.00325 0
-2.51523e-15 1.00253 0
-6.92576e-15 1.00253 0
4.05754e-15 1.00325 0
1.04805e-14 1.00325 0
-1.41574e-16 1.00177 0
-3.24111e-16 1.00177 0
1.3234e-15 1.00253 0
6.25051e-15 1.00253 0
-3.24111e-16 1.00177 0
-1.34595e-15 1.00177 0
6.25051e-15 1.00253 0
5.25765e-15 1.00253 0
-6.92576e-15 1.00253 0
-6.32248e-15 1.00253 0
1.04805e-14 1.00325 0
1.04776e-14 1.00325 0
-6.32248e-15 1.00253 0
-4.70286e-15 1.00253 0
1.04776e-14 1.00325 0
6.00707e-15 1.00325 0
-3.09806e-15 1 0
3.47583e-16 1 0
4.99864e-15 1.00113 0
7.46653e-15 1.00113 0
3.47583e-16 1 0
-4.61115e-15 1 0
7.46653e-15 1.00113 0
8.91006e-15 1.00113 0
-1.66903e-15 1.00113 0
-5.64462e-15 1.00113 0
6.5083e-15 1.00177 0
6.39477e-15 1.00177 0
-5.64462e-15 1.00113 0
-3.38868e-15 1.00113 0
6.39477e-15 1.00177 0
1.20518e-14 1.00177 0
-4.61115e-15 1 0
-5.88379e-15 1 0
8.91006e-15 1.00113 0
1.14804e-14 1.00113 0
-5.88379e-15 1 0
-3.82359e-16 1 0
1.14804e-14 1.00113 0
6.25076e-15 1.00113 0
-3.38868e-15 1.00113 0
4.1869e-16 1.00113 0
1.20518e-14 1.00177 0
1.9931e-15 1.00177 0
4.1869e-16 1.00113 0
3.07741e-15 1.00113 0
1.9931e-15 1.00177 0
8.55697e-16 1.00177 0
-1.34595e-15 1.00177 0
-2.37654e-15 1.00177 0
5.25765e-15 1.00253 0
4.14378e-15 1.00253 0
-2.37654e-15 1.00177 0
-3.07513e-15 1.00177 0
4.14378e-15 1.00253 0
-2.57761e-16 1.00253 0
-4.70286e-15 1.00253 0
-1.88718e-16 1.00253 0
6.00707e-15 1.00325 0
5.5088e-15 1.00325 0
-1.88718e-16 1.00253 0
2.54215e-15 1.00253 0
5.5088e-15 1.00325 0
-2.92786e-15 1.00325 0
-3.07513e-15 1.00177 0
-2.63935e-15 1.00177 0
-2.57761e-16 1.00253 0
4.56685e-15 1.00253 0
-2.63935e-15 1.00177 0
3.93039e-15 1.00177 0
4.56685e-15 1.00253 0
-4.17943e-15 1.00253 0
2.54215e-15 1.00253 0
-2.90293e-15 1.00253 0
-2.92786e-15 1.00325 0
6.59665e-15 1.00325 0
-2.90293e-15 1.00253 0
3.16864e-15 1.00253 0
6.59665e-15 1.00325 0
5.69618e-15 1.00325 0
-9.86909e-15 1.00325 0
-6.72156e-16 1.00325 0
7.48248e-15 1.00397 0
3.48169e-15 1.00397 0
-6.72156e-16 1.00325 0
-4.33399e-15 1.00325 0
3.48169e-15 1.00397 0
7.71629e-15 1.00397 0
-2.67525e-15 1.00397 0
-5.07488e-15 1.00397 0
-1.06955e-15 1.00468 0
4.57792e-15 1.00468 0
-5.07488e-15 1.00397 0
-4.05831e-15 1.00397 0
4.57792e-15 1.00468 0
4.20558e-15 1.00468 0
-4.33399e-15 1.00325 0
-4.25978e-15 1.00325 0
7.71629e-15 1.00397 0
5.91495e-15 1.00397 0
-4.25978e-15 1.00325 0
-1.49718e-15 1.00325 0
5.91495e-15 1.00397 0
5.68393e-15 1.00397 0
-4.05831e-15 1.00397 0
-1.56487e-15 1.00397 0
4.20558e-15 1.00468 0
2.84884e-15 1.00468 0
-1.56487e-15 1.00397 0
-4.04251e-16 1.00397 0
2.84884e-15 1.00468 0
1.90592e-15 1.00468 0
1.75652e-15 1.00468 0
-7.95872e-16 1.00468 0
5.19206e-15 1.0054 0
3.40425e-15 1.0054 0
-7.95872e-16 1.00468 0
-2.0023e-15 1.00468 0
3.40425e-15 1.0054 0
2.34002e-15 1.0054 0
-4.49577e-15 1.0054 0
-6.43024e-16 1.0054 0
8.30717e-15 1.00611 0
9.01123e-15 1.00611 0
-6.43024e-16 1.0054 0
-1.60019e-15 1.0054 0
9.01123e-15 1.00611 0
6.85088e-15 1.00611 0
-2.0023e-15 1.00468 0
-2.28651e-15 1.00468 0
2.34002e-15 1.0054 0
5.36256e-16 1.0054 0
-2.28651e-15 1.00468 0
-1.05387e-16 1.00468 0
5.36256e-16 1.0054 0
3.87439e-15 1.0054 0
-1.60019e-15 1.0054 0
2.18803e-15 1.0054 0
6.85088e-15 1.00611 0
4.90883e-15 1.00611 0
2.18803e-15 1.0054 0
-1.00449e-16 1.0054 0
4.90883e-15 1.00611 0
3.81033e-15 1.00611 0
-1.49718e-15 1.00325 0
-7.0326e-15 1.00325 0
5.68393e-15 1.00397 0
1.07423e-14 1.00397 0
-7.0326e-15 1.00325 0
7.84371e-15 1.00325 0
1.07423e-14 1.00397 0
4.56763e-15 1.00397 0
-4.04251e-16 1.00397 0
1.70779e-15 1.00397 0
1.90592e-15 1.00468 0
2.00192e-17 1.00468 0
1.70779e-15 1.00397 0
-3.177e-15 1.00397 0
2.00192e-17 1.00468 0
4.82785e-15 1.00468 0
7.84371e-15 1.00325 0
-5.57665e-18 1.00325 0
4.56763e-15 1.00397 0
8.59639e-15 1.00397 0
-5.57665e-18 1.00325 0
6.21517e-15 1.00325 0
8.59639e-15 1.00397 0
-1.66366e-15 1.00397 0
-3.177e-15 1.00397 0
-5.58022e-15 1.00397 0
4.82785e-15 1.00468 0
7.05365e-15 1.00468 0
-5.58022e-15 1.00397 0
-2.46229e-15 1.00397 0
7.05365e-15 1.00468 0
9.67761e-15 1.00468 0
-1.05387e-16 1.00468 0
-3.09195e-15 1.00468 0
3.87439e-15 1.0054 0
6.76285e-15 1.0054 0
-3.09195e-15 1.00468 0
-4.57861e-15 1.00468 0
6.76285e-15 1.0054 0
5.31628e-15 1.0054 0
-1.00449e-16 1.0054 0
-2.96817e-15 1.0054 0
3.81033e-15 1.00611 0
4.58792e-15 1.00611 0
-2.96817e-15 1.0054 0
-3.44124e-15 1.0054 0
4.58792e-15 1.00611 0
7.65406e-15 1.00611 0
-4.57861e-15 1.00468 0
-5.2415e-15 1.00468 0
5.31628e-15 1.0054 0
6.92527e-15 1.0054 0
-5.2415e-15 1.00468 0
-6.78499e-15 1.00468 0
6.92527e-15 1.0054 0
5.94286e-15 1.0054 0
-3.44124e-15 1.0054 0
1.02048e-15 1.0054 0
7.65406e-15 1.00611 0
2.29893e-15 1.00611 0
1.02048e-15 1.0054 0
3.21094e-15 1.0054 0
2.29893e-15 1.00611 0
1.4166e-15 1.00611 0
0 1.00611 0
6.19702e-15 1.00611 0
0 1.00683 0
-3.50075e-15 1.00683 0
6.19702e-15 1.00611 0
1.93313e-15 1.00611 0
-3.50075e-15 1.00683 0
1.55441e-15 1.00683 0
0 1.00683 0
1.44035e-16 1.00683 0
0 1.00756 0
-4.48704e-16 1.00756 0
1.44035e-16 1.00683 0
-3.25634e-15 1.00683 0
-4.48704e-16 1.00756 0
4.24452e-16 1.00756 0
1.93313e-15 1.00611 0
-1.22161e-15 1.00611 0
1.55441e-15 1.00683 0
8.61691e-16 1.00683 0
-1.22161e-15 1.00611 0
-3.74964e-15 1.00611 0
8.61691e-16 1.00683 0
5.45502e-16 1.00683 0
-3.25634e-15 1.00683 0
-1.08262e-15 1.00683 0
4.24452e-16 1.00756 0
-4.24115e-16 1.00756 0
-1.08262e-15 1.00683 0
-3.86861e-15 1.00683 0
-4.24115e-16 1.00756 0
6.1849e-15 1.00756 0
0 1.00756 0
1.05356e-15 1.00756 0
0 1.00832 0
-2.36487e-15 1.00832 0
1.05356e-15 1.00756 0
-1.4948e-15 1.00756 0
-2.36487e-15 1.00832 0
2.20916e-15 1.00832 0
0 1.00832 0
1.37778e-15 1.00832 0
0 1.00911 0
7.51024e-16 1.00911 0
1.37778e-15 1.00832 0
7.67212e-17 1.00832 0
7.51024e-16 1.00911 0
-1.20016e-15 1.00911 0
-1.4948e-15 1.00756 0
1.47659e-15 1.00756 0
2.20916e-15 1.00832 0
-1.9828e-15 1.00832 0
1.47659e-15 1.00756 0
-3.85497e-15 1.00756 0
-1.9828e-15 1.00832 0
2.91191e-15 1.00832 0
7.67212e-17 1.00832 0
7.79504e-16 1.00832 0
-1.20016e-15 1.00911 0
-6.74216e-17 1.00911 0
7.79504e-16 1.00832 0
-2.29211e-15 1.00832 0
-6.74216e-17 1.00911 0
4.73526e-15 1.00911 0
-3.74964e-15 1.00611 0
-2.81725e-15 1.00611 0
5.45502e-16 1.00683 0
3.64824e-15 1.00683 0
-2.81725e-15 1.00611 0
1.03954e-15 1.00611 0
3.64824e-15 1.00683 0
-9.89274e-16 1.00683 0
-3.86861e-15 1.00683 0
-4.99315e-15 1.00683 0
6.1849e-15 1.00756 0
4.6974e-15 1.00756 0
-4.99315e-15 1.00683 0
-3.90167e-15 1.00683 0
4.6974e-15 1.00756 0
6.27098e-15 1.00756 0
1.03954e-15 1.00611 0
-3.02321e-16 1.00611 0
-9.89274e-16 1.00683 0
1.56333e-15 1.00683 0
-3.02321e-16 1.00611 0
-1.36998e-15 1.00611 0
1.56333e-15 1.00683 0
4.28209e-16 1.00683 0
-3.90167e-15 1.00683 0
-2.44585e-15 1.00683 0
6.27098e-15 1.00756 0
2.48331e-15 1.00756 0
-2.44585e-15 1.00683 0
-3.562e-15 1.00683 0
2.48331e-15 1.00756 0
3.25799e-15 1.00756 0
-3.85497e-15 1.00756 0
-7.63143e-16 1.00756 0
2.91191e-15 1.00832 0
7.49064e-16 1.00832 0
-7.63143e-16 1.00756 0
-2.7339e-15 1.00756 0
7.49064e-16 1.00832 0
1.54671e-15 1.00832 0
-2.29211e-15 1.00832 0
3.73101e-16 1.00832 0
4.73526e-15 1.00911 0
-5.59727e-16 1.00911 0
3.73101e-16 1.00832 0
-2.4443e-15 1.00832 0
-5.59727e-16 1.00911 0
1.95807e-15 1.00911 0
-2.7339e-15 1.00756 0
-6.70864e-16 1.00756 0
1.54671e-15 1.00832 0
1.74169e-15 1.00832 0
-6.70864e-16 1.00756 0
-8.72288e-16 1.00756 0
1.74169e-15 1.00832 0
2.9604e-15 1.00832 0
-2.4443e-15 1.00832 0
-3.38809e-15 1.00832 0
1.95807e-15 1.00911 0
-8.64521e-16 1.00911 0
-3.38809e-15 1.00832 0
-3.71312e-15 1.00832 0
-8.64521e-16 1.00911 0
1.85315e-15 1.00911 0
0 1.00911 0
-9.32429e-16 1.00911 0
0 1.00993 0
9.86455e-16 1.00993 0
-9.32429e-16 1.00911 0
4.99591e-15 1.00911 0
9.86455e-16 1.00993 0
-4.50065e-15 1.00993 0
0 1.00993 0
-1.40173e-15 1.00993 0
0 1.01074 0
1.92176e-15 1.01074 0
-1.40173e-15 1.00993 0
-2.08161e-15 1.00993 0
1.92176e-15 1.01074 0
4.05327e-15 1.01074 0
4.99591e-15 1.00911 0
-6.56148e-16 1.00911 0
-4.50065e-15 1.00993 0
3.8457e-16 1.00993 0
-6.56148e-16 1.00911 0
-6.61546e-15 1.00911 0
3.8457e-16 1.00993 0
4.36325e-15 1.00993 0
-2.08161e-15 1.00993 0
7.64376e-17 1.00993 0
4.05327e-15 1.01074 0
1.21181e-16 1.01074 0
7.64376e-17 1.00993 0
-2.86512e-15 1.00993 0
1.21181e-16 1.01074 0
2.16309e-15 1.01074 0
0 1.01074 0
1.24462e-15 1.01074 0
0 1.0114 0
-2.01087e-15 1.0114 0
1.24462e-15 1.01074 0
1.15648e-15 1.01074 0
-2.01087e-15 1.0114 0
-1.08064e-15 1.0114 0
0 1.0114 0
-1.30339e-15 1.0114 0
0 1.0115 0
-5.74751e-16 1.0115 0
-1.30339e-15 1.0114 0
-1.08507e-15 1.0114 0
-5.74751e-16 1.0115 0
-1.14666e-15 1.0115 0
1.15648e-15 1.01074 0
2.50363e-15 1.01074 0
-1.08064e-15 1.0114 0
-4.1946e-16 1.0114 0
2.50363e-15 1.01074 0
2.213e-16 1.01074 0
-4.1946e-16 1.0114 0
1.55092e-15 1.0114 0
-1.08507e-15 1.0114 0
-1.03226e-15 1.0114 0
-1.14666e-15 1.0115 0
2.04841e-15 1.0115 0
-1.03226e-15 1.0114 0
-2.39822e-15 1.0114 0
2.04841e-15 1.0115 0
3.20379e-15 1.0115 0
-6.61546e-15 1.00911 0
-4.69095e-16 1.00911 0
4.36325e-15 1.00993 0
-8.64585e-17 1.00993 0
-4.69095e-16 1.00911 0
-1.89771e-15 1.00911 0
-8.64585e-17 1.00993 0
1.91631e-15 1.00993 0
-2.86512e-15 1.00993 0
-4.20756e-16 1.00993 0
2.16309e-15 1.01074 0
2.37152e-15 1.01074 0
-4.20756e-16 1.00993 0
-6.49002e-16 1.00993 0
2.37152e-15 1.01074 0
3.55378e-15 1.01074 0
-1.89771e-15 1.00911 0
1.89952e-15 1.00911 0
1.91631e-15 1.00993 0
1.79951e-15 1.00993 0
1.89952e-15 1.00911 0
-2.2927e-15 1.00911 0
1.79951e-15 1.00993 0
2.24672e-15 1.00993 0
-6.49002e-16 1.00993 0
-3.18003e-15 1.00993 0
3.55378e-15 1.01074 0
2.66137e-15 1.01074 0
-3.18003e-15 1.00993 0
-1.00824e-15 1.00993 0
2.66137e-15 1.01074 0
1.06984e-15 1.01074 0
2.213e-16 1.01074 0
3.38472e-16 1.01074 0
1.55092e-15 1.0114 0
1.39881e-15 1.0114 0
3.38472e-16 1.01074 0
-9.44354e-16 1.01074 0
1.39881e-15 1.0114 0
1.85797e-15 1.0114 0
-2.39822e-15 1.0114 0
-4.59971e-16 1.0114 0
3.20379e-15 1.0115 0
2.19825e-16 1.0115 0
-4.59971e-16 1.0114 0
3.57007e-17 1.0114 0
2.19825e-16 1.0115 0
5.17685e-16 1.0115 0
-9.44354e-16 1.01074 0
-1.57207e-15 1.01074 0
1.85797e-15 1.0114 0
2.33782e-15 1.0114 0
-1.57207e-15 1.01074 0
-2.12918e-15 1.01074 0
2.33782e-15 1.0114 0
1.47794e-15 1.0114 0
3.57007e-17 1.0114 0
1.07487e-17 1.0114 0
5.17685e-16 1.0115 0
4.544e-15 1.0115 0
1.07487e-17 1.0114 0
1.46168e-15 1.0114 0
4.544e-15 1.0115 0
-3.53695e-15 1.0115 0
-1.36998e-15 1.00611 0
-6.39348e-15 1.00611 0
4.28209e-16 1.00683 0
2.8305e-15 1.00683 0
-6.39348e-15 1.00611 0
-4.25101e-15 1.00611 0
2.8305e-15 1.00683 0
1.58653e-15 1.00683 0
-3.562e-15 1.00683 0
-5.57508e-15 1.00683 0
3.25799e-15 1.00756 0
8.51258e-15 1.00756 0
-5.57508e-15 1.00683 0
-1.60898e-15 1.00683 0
8.51258e-15 1.00756 0
4.44798e-15 1.00756 0
-4.25101e-15 1.00611 0
-1.24685e-15 1.00611 0
1.58653e-15 1.00683 0
1.99597e-16 1.00683 0
-1.24685e-15 1.00611 0
-5.2112e-15 1.00611 0
1.99597e-16 1.00683 0
5.84681e-15 1.00683 0
-1.60898e-15 1.00683 0
-4.96273e-16 1.00683 0
4.44798e-15 1.00756 0
6.536e-16 1.00756 0
-4.96273e-16 1.00683 0
-3.6434e-15 1.00683 0
6.536e-16 1.00756 0
4.30777e-15 1.00756 0
-8.72288e-16 1.00756 0
-1.80686e-15 1.00756 0
2.9604e-15 1.00832 0
-1.23245e-15 1.00832 0
-1.80686e-15 1.00756 0
-1.04228e-15 1.00756 0
-1.23245e-15 1.00832 0
1.61822e-15 1.00832 0
-3.71312e-15 1.00832 0
-7.08322e-16 1.00832 0
1.85315e-15 1.00911 0
2.56865e-15 1.00911 0
-7.08322e-16 1.00832 0
-1.97836e-15 1.00832 0
2.56865e-15 1.00911 0
2.02166e-15 1.00911 0
-1.04228e-15 1.00756 0
3.27621e-16 1.00756 0
1.61822e-15 1.00832 0
-7.3832e-16 1.00832 0
3.27621e-16 1.00756 0
-4.44103e-16 1.00756 0
-7.3832e-16 1.00832 0
-1.19925e-15 1.00832 0
-1.97836e-15 1.00832 0
1.71757e-15 1.00832 0
2.02166e-15 1.00911 0
1.42428e-15 1.00911 0
1.71757e-15 1.00832 0
2.01166e-16 1.00832 0
1.42428e-15 1.00911 0
2.18934e-15 1.00911 0
-5.2112e-15 1.00611 0
-3.13071e-15 1.00611 0
5.84681e-15 1.00683 0
5.35768e-15 1.00683 0
-3.13071e-15 1.00611 0
-4.63583e-15 1.00611 0
5.35768e-15 1.00683 0
6.99524e-15 1.00683 0
-3.6434e-15 1.00683 0
-1.38189e-16 1.00683 0
4.30777e-15 1.00756 0
3.0232e-15 1.00756 0
-1.38189e-16 1.00683 0
-9.58946e-16 1.00683 0
3.0232e-15 1.00756 0
2.12347e-15 1.00756 0
-4.63583e-15 1.00611 0
-3.72918e-15 1.00611 0
6.99524e-15 1.00683 0
7.63518e-15 1.00683 0
-3.72918e-15 1.00611 0
2.36786e-16 1.00611 0
7.63518e-15 1.00683 0
1.57717e-15 1.00683 0
-9.58946e-16 1.00683 0
-6.1883e-15 1.00683 0
2.12347e-15 1.00756 0
7.53615e-15 1.00756 0
-6.1883e-15 1.00683 0
-2.35517e-15 1.00683 0
7.53615e-15 1.00756 0
3.26558e-15 1.00756 0
-4.44103e-16 1.00756 0
-2.4102e-15 1.00756 0
-1.19925e-15 1.00832 0
1.19335e-17 1.00832 0
-2.4102e-15 1.00756 0
-1.32645e-15 1.00756 0
1.19335e-17 1.00832 0
2.43108e-15 1.00832 0
2.01166e-16 1.00832 0
-2.29119e-15 1.00832 0
2.18934e-15 1.00911 0
3.8282e-15 1.00911 0
-2.29119e-15 1.00832 0
-2.83542e-15 1.00832 0
3.8282e-15 1.00911 0
-4.05966e-16 1.00911 0
-1.32645e-15 1.00756 0
-3.99904e-15 1.00756 0
2.43108e-15 1.00832 0
3.51837e-15 1.00832 0
-3.99904e-15 1.00756 0
-1.16611e-15 1.00756 0
3.51837e-15 1.00832 0
3.1491e-15 1.00832 0
-2.83542e-15 1.00832 0
-1.85273e-15 1.00832 0
-4.05966e-16 1.00911 0
-5.47718e-17 1.00911 0
-1.85273e-15 1.00832 0
2.13923e-16 1.00832 0
-5.47718e-17 1.00911 0
-2.25257e-15 1.00911 0
-2.2927e-15 1.00911 0
-4.05865e-15 1.00911 0
2.24672e-15 1.00993 0
3.13336e-15 1.00993 0
-4.05865e-15 1.00911 0
-2.58767e-15 1.00911 0
3.13336e-15 1.00993 0
2.41785e-15 1.00993 0
-1.00824e-15 1.00993 0
1.00877e-15 1.00993 0
1.06984e-15 1.01074 0
-2.01477e-15 1.01074 0
1.00877e-15 1.00993 0
-1.35167e-15 1.00993 0
-2.01477e-15 1.01074 0
8.49831e-16 1.01074 0
-2.58767e-15 1.00911 0
-1.18481e-15 1.00911 0
2.41785e-15 1.00993 0
-6.64461e-16 1.00993 0
-1.18481e-15 1.00911 0
-2.93904e-15 1.00911 0
-6.64461e-16 1.00993 0
2.30484e-15 1.00993 0
-1.35167e-15 1.00993 0