# vtk DataFile Version 3.0
#This file was generated by the deal.II library on 2018/10/12 at 0:06:03
ASCII
DATASET UNSTRUCTURED_GRID

POINTS 5120 double
0 0 0
0.392699 0 0
0 0.615788 0
0.392699 0.615788 0
0.392699 0 0
0.785398 0 0
0.392699 0.615788 0
0.785398 0.615788 0
0 0.615788 0
0.392699 0.615788 0
0 1.24148 0
0.392699 1.24148 0
0.392699 0.615788 0
0.785398 0.615788 0
0.392699 1.24148 0
0.785398 1.24148 0
0.785398 0 0
1.1781 0 0
0.785398 0.615788 0
1.1781 0.615788 0
1.1781 0 0
1.5708 0 0
1.1781 0.615788 0
1.5708 0.615788 0
0.785398 0.615788 0
1.1781 0.615788 0
0.785398 1.24148 0
1.1781 1.24148 0
1.1781 0.615788 0
1.5708 0.615788 0
1.1781 1.24148 0
1.5708 1.24148 0
0 1.24148 0
0.392699 1.24148 0
0 1.86676 0
0.392699 1.86676 0
0.392699 1.24148 0
0.785398 1.24148 0
0.392699 1.86676 0
0.785398 1.86676 0
0 1.86676 0
0.392699 1.86676 0
0 2.49236 0
0.392699 2.49236 0
0.392699 1.86676 0
0.785398 1.86676 0
0.392699 2.49236 0
0.785398 2.49236 0
0.785398 1.24148 0
1.1781 1.24148 0
0.785398 1.86676 0
1.1781 1.86676 0
1.1781 1.24148 0
1.5708 1.24148 0
1.1781 1.86676 0
1.5708 1.86676 0
0.785398 1.86676 0
1.1781 1.86676 0
0.785398 2.49236 0
1.1781 2.49236 0
1.1781 1.86676 0
1.5708 1.86676 0
1.1781 2.49236 0
1.5708 2.49236 0
1.5708 0 0
1.9635 0 0
1.5708 0.615788 0
1.9635 0.615788 0
1.9635 0 0
2.35619 0 0
1.9635 0.615788 0
2.35619 0.615788 0
1.5708 0.615788 0
1.9635 0.615788 0
1.5708 1.24148 0
1.9635 1.24148 0
1.9635 0.615788 0
2.35619 0.615788 0
1.9635 1.24148 0
2.35619 1.24148 0
2.35619 0 0
2.74889 0 0
2.35619 0.615788 0
2.74889 0.615788 0
2.74889 0 0
3.14159 0 0
2.74889 0.615788 0
3.14159 0.615788 0
2.35619 0.615788 0
2.74889 0.615788 0
2.35619 1.24148 0
2.74889 1.24148 0
2.74889 0.615788 0
3.14159 0.615788 0
2.74889 1.24148 0
3.14159 1.24148 0
1.5708 1.24148 0
1.9635 1.24148 0
1.5708 1.86676 0
1.9635 1.86676 0
1.9635 1.24148 0
2.35619 1.24148 0
1.9635 1.86676 0
2.35619 1.86676 0
1.5708 1.86676 0
1.9635 1.86676 0
1.5708 2.49236 0
1.9635 2.49236 0
1.9635 1.86676 0
2.35619 1.86676 0
1.9635 2.49236 0
2.35619 2.49236 0
2.35619 1.24148 0
2.74889 1.24148 0
2.35619 1.86676 0
2.74889 1.86676 0
2.74889 1.24148 0
3.14159 1.24148 0
2.74889 1.86676 0
3.14159 1.86676 0
2.35619 1.86676 0
2.74889 1.86676 0
2.35619 2.49236 0
2.74889 2.49236 0
2.74889 1.86676 0
3.14159 1.86676 0
2.74889 2.49236 0
3.14159 2.49236 0
0 2.49236 0
0.392699 2.49236 0
0 3.11787 0
0.392699 3.11787 0
0.392699 2.49236 0
0.785398 2.49236 0
0.392699 3.11787 0
0.785398 3.11787 0
0 3.11787 0
0.392699 3.11787 0
0 3.74338 0
0.392699 3.74338 0
0.392699 3.11787 0
0.785398 3.11787 0
0.392699 3.74338 0
0.785398 3.74338 0
0.785398 2.49236 0
1.1781 2.49236 0
0.785398 3.11787 0
1.1781 3.11787 0
1.1781 2.49236 0
1.5708 2.49236 0
1.1781 3.11787 0
1.5708 3.11787 0
0.785398 3.11787 0
1.1781 3.11787 0
0.785398 3.74338 0
1.1781 3.74338 0
1.1781 3.11787 0
1.5708 3.11787 0
1.1781 3.74338 0
1.5708 3.74338 0
0 3.74338 0
0.392699 3.74338 0
0 4.36887 0
0.392699 4.36887 0
0.392699 3.74338 0
0.785398 3.74338 0
0.392699 4.36887 0
0.785398 4.36887 0
0 4.36887 0
0.392699 4.36887 0
0 4.99433 0
0.392699 4.99433 0
0.392699 4.36887 0
0.785398 4.36887 0
0.392699 4.99433 0
0.785398 4.99433 0
0.785398 3.74338 0
1.1781 3.74338 0
0.785398 4.36887 0
1.1781 4.36887 0
1.1781 3.74338 0
1.5708 3.74338 0
1.1781 4.36887 0
1.5708 4.36887 0
0.785398 4.36887 0
1.1781 4.36887 0
0.785398 4.99433 0
1.1781 4.99433 0
1.1781 4.36887 0
1.5708 4.36887 0
1.1781 4.99433 0
1.5708 4.99433 0
1.5708 2.49236 0
1.9635 2.49236 0
1.5708 3.11787 0
1.9635 3.11787 0
1.9635 2.49236 0
2.35619 2.49236 0
1.9635 3.11787 0
2.35619 3.11787 0
1.5708 3.11787 0
1.9635 3.11787 0
1.5708 3.74338 0
1.9635 3.74338 0
1.9635 3.11787 0
2.35619 3.11787 0
1.9635 3.74338 0
2.35619 3.74338 0
2.35619 2.49236 0
2.74889 2.49236 0
2.35619 3.11787 0
2.74889 3.11787 0
2.74889 2.49236 0
3.14159 2.49236 0
2.74889 3.11787 0
3.14159 3.11787 0
2.35619 3.11787 0
2.74889 3.11787 0
2.35619 3.74338 0
2.74889 3.74338 0
2.74889 3.11787 0
3.14159 3.11787 0
2.74889 3.74338 0
3.14159 3.74338 0
1.5708 3.74338 0
1.9635 3.74338 0
1.5708 4.36887 0
1.9635 4.36887 0
1.9635 3.74338 0
2.35619 3.74338 0
1.9635 4.36887 0
2.35619 4.36887 0
1.5708 4.36887 0
1.9635 4.36887 0
1.5708 4.99433 0
1.9635 4.99433 0
1.9635 4.36887 0
2.35619 4.36887 0
1.9635 4.99433 0
2.35619 4.99433 0
2.35619 3.74338 0
2.74889 3.74338 0
2.35619 4.36887 0
2.74889 4.36887 0
2.74889 3.74338 0
3.14159 3.74338 0
2.74889 4.36887 0
3.14159 4.36887 0
2.35619 4.36887 0
2.74889 4.36887 0
2.35619 4.99433 0
2.74889 4.99433 0
2.74889 4.36887 0
3.14159 4.36887 0
2.74889 4.99433 0
3.14159 4.99433 0
3.14159 0 0
3.53429 0 0
3.14159 0.615788 0
3.53429 0.615788 0
3.53429 0 0
3.92699 0 0
3.53429 0.615788 0
3.92699 0.615788 0
3.14159 0.615788 0
3.53429 0.615788 0
3.14159 1.24148 0
3.53429 1.24148 0
3.53429 0.615788 0
3.92699 0.615788 0
3.53429 1.24148 0
3.92699 1.24148 0
3.92699 0 0
4.31969 0 0
3.92699 0.615788 0
4.31969 0.615788 0
4.31969 0 0
4.71239 0 0
4.31969 0.615788 0
4.71239 0.615788 0
3.92699 0.615788 0
4.31969 0.615788 0
3.92699 1.24148 0
4.31969 1.24148 0
4.31969 0.615788 0
4.71239 0.615788 0
4.31969 1.24148 0
4.71239 1.24148 0
3.14159 1.24148 0
3.53429 1.24148 0
3.14159 1.86676 0
3.53429 1.86676 0
3.53429 1.24148 0
3.92699 1.24148 0
3.53429 1.86676 0
3.92699 1.86676 0
3.14159 1.86676 0
3.53429 1.86676 0
3.14159 2.49236 0
3.53429 2.49236 0
3.53429 1.86676 0
3.92699 1.86676 0
3.53429 2.49236 0
3.92699 2.49236 0
3.92699 1.24148 0
4.31969 1.24148 0
3.92699 1.86676 0
4.31969 1.86676 0
4.31969 1.24148 0
4.71239 1.24148 0
4.31969 1.86676 0
4.71239 1.86676 0
3.92699 1.86676 0
4.31969 1.86676 0
3.92699 2.49236 0
4.31969 2.49236 0
4.31969 1.86676 0
4.71239 1.86676 0
4.31969 2.49236 0
4.71239 2.49236 0
4.71239 0 0
5.10509 0 0
4.71239 0.615788 0
5.10509 0.615788 0
5.10509 0 0
5.49779 0 0
5.10509 0.615788 0
5.49779 0.615788 0
4.71239 0.615788 0
5.10509 0.615788 0
4.71239 1.24148 0
5.10509 1.24148 0
5.10509 0.615788 0
5.49779 0.615788 0
5.10509 1.24148 0
5.49779 1.24148 0
5.49779 0 0
5.89049 0 0
5.49779 0.615788 0
5.89049 0.615788 0
5.89049 0 0
6.28319 0 0
5.89049 0.615788 0
6.28319 0.615788 0
5.49779 0.615788 0
5.89049 0.615788 0
5.49779 1.24148 0
5.89049 1.24148 0
5.89049 0.615788 0
6.28319 0.615788 0
5.89049 1.24148 0
6.28319 1.24148 0
4.71239 1.24148 0
5.10509 1.24148 0
4.71239 1.86676 0
5.10509 1.86676 0
5.10509 1.24148 0
5.49779 1.24148 0
5.10509 1.86676 0
5.49779 1.86676 0
4.71239 1.86676 0
5.10509 1.86676 0
4.71239 2.49236 0
5.10509 2.49236 0
5.10509 1.86676 0
5.49779 1.86676 0
5.10509 2.49236 0
5.49779 2.49236 0
5.49779 1.24148 0
5.89049 1.24148 0
5.49779 1.86676 0
5.89049 1.86676 0
5.89049 1.24148 0
6.28319 1.24148 0
5.89049 1.86676 0
6.28319 1.86676 0
5.49779 1.86676 0
5.89049 1.86676 0
5.49779 2.49236 0
5.89049 2.49236 0
5.89049 1.86676 0
6.28319 1.86676 0
5.89049 2.49236 0
6.28319 2.49236 0
3.14159 2.49236 0
3.53429 2.49236 0
3.14159 3.11787 0
3.53429 3.11787 0
3.53429 2.49236 0
3.92699 2.49236 0
3.53429 3.11787 0
3.92699 3.11787 0
3.14159 3.11787 0
3.53429 3.11787 0
3.14159 3.74338 0
3.53429 3.74338 0
3.53429 3.11787 0
3.92699 3.11787 0
3.53429 3.74338 0
3.92699 3.74338 0
3.92699 2.49236 0
4.31969 2.49236 0
3.92699 3.11787 0
4.31969 3.11787 0
4.31969 2.49236 0
4.71239 2.49236 0
4.31969 3.11787 0
4.71239 3.11787 0
3.92699 3.11787 0
4.31969 3.11787 0
3.92699 3.74338 0
4.31969 3.74338 0
4.31969 3.11787 0
4.71239 3.11787 0
4.31969 3.74338 0
4.71239 3.74338 0
3.14159 3.74338 0
3.53429 3.74338 0
3.14159 4.36887 0
3.53429 4.36887 0
3.53429 3.74338 0
3.92699 3.74338 0
3.53429 4.36887 0
3.92699 4.36887 0
3.14159 4.36887 0
3.53429 4.36887 0
3.14159 4.99433 0
3.53429 4.99433 0
3.53429 4.36887 0
3.92699 4.36887 0
3.53429 4.99433 0
3.92699 4.99433 0
3.92699 3.74338 0
4.31969 3.74338 0
3.92699 4.36887 0
4.31969 4.36887 0
4.31969 3.74338 0
4.71239 3.74338 0
4.31969 4.36887 0
4.71239 4.36887 0
3.92699 4.36887 0
4.31969 4.36887 0
3.92699 4.99433 0
4.31969 4.99433 0
4.31969 4.36887 0
4.71239 4.36887 0
4.31969 4.99433 0
4.71239 4.99433 0
4.71239 2.49236 0
5.10509 2.49236 0
4.71239 3.11787 0
5.10509 3.11787 0
5.10509 2.49236 0
5.49779 2.49236 0
5.10509 3.11787 0
5.49779 3.11787 0
4.71239 3.11787 0
5.10509 3.11787 0
4.71239 3.74338 0
5.10509 3.74338 0
5.10509 3.11787 0
5.49779 3.11787 0
5.10509 3.74338 0
5.49779 3.74338 0
5.49779 2.49236 0
5.89049 2.49236 0
5.49779 3.11787 0
5.89049 3.11787 0
5.89049 2.49236 0
6.28319 2.49236 0
5.89049 3.11787 0
6.28319 3.11787 0
5.49779 3.11787 0
5.89049 3.11787 0
5.49779 3.74338 0
5.89049 3.74338 0
5.89049 3.11787 0
6.28319 3.11787 0
5.89049 3.74338 0
6.28319 3.74338 0
4.71239 3.74338 0
5.10509 3.74338 0
4.71239 4.36887 0
5.10509 4.36887 0
5.10509 3.74338 0
5.49779 3.74338 0
5.10509 4.36887 0
5.49779 4.36887 0
4.71239 4.36887 0
5.10509 4.36887 0
4.71239 4.99433 0
5.10509 4.99433 0
5.10509 4.36887 0
5.49779 4.36887 0
5.10509 4.99433 0
5.49779 4.99433 0
5.49779 3.74338 0
5.89049 3.74338 0
5.49779 4.36887 0
5.89049 4.36887 0
5.89049 3.74338 0
6.28319 3.74338 0
5.89049 4.36887 0
6.28319 4.36887 0
5.49779 4.36887 0
5.89049 4.36887 0
5.49779 4.99433 0
5.89049 4.99433 0
5.89049 4.36887 0
6.28319 4.36887 0
5.89049 4.99433 0
6.28319 4.99433 0
0 4.99433 0
0.392699 4.99433 0
0 5.61976 0
0.392699 5.61976 0
0.392699 4.99433 0
0.785398 4.99433 0
0.392699 5.61976 0
0.785398 5.61976 0
0 5.61976 0
0.392699 5.61976 0
0 6.24515 0
0.392699 6.24515 0
0.392699 5.61976 0
0.785398 5.61976 0
0.392699 6.24515 0
0.785398 6.24515 0
0.785398 4.99433 0
1.1781 4.99433 0
0.785398 5.61976 0
1.1781 5.61976 0
1.1781 4.99433 0
1.5708 4.99433 0
1.1781 5.61976 0
1.5708 5.61976 0
0.785398 5.61976 0
1.1781 5.61976 0
0.785398 6.24515 0
1.1781 6.24515 0
1.1781 5.61976 0
1.5708 5.61976 0
1.1781 6.24515 0
1.5708 6.24515 0
0 6.24515 0
0.392699 6.24515 0
0 6.87053 0
0.392699 6.87053 0
0.392699 6.24515 0
0.785398 6.24515 0
0.392699 6.87053 0
0.785398 6.87053 0
0 6.87053 0
0.392699 6.87053 0
0 7.4959 0
0.392699 7.4959 0
0.392699 6.87053 0
0.785398 6.87053 0
0.392699 7.4959 0
0.785398 7.4959 0
0.785398 6.24515 0
1.1781 6.24515 0
0.785398 6.87053 0
[...]
POINT_DATA 5120
VECTORS velocity double
0 0 0
0 0 0
0 -0.00206765 0
-8.75838e-15 -0.00206765 0
0 0 0
0 0 0
-8.75838e-15 -0.00206765 0
-7.58463e-15 -0.00206765 0
0 -0.00206765 0
-8.75838e-15 -0.00206765 0
0 -0.00190551 0
-7.39765e-15 -0.00190551 0
-8.75838e-15 -0.00206765 0
-7.58463e-15 -0.00206765 0
-7.39765e-15 -0.00190551 0
-2.663e-16 -0.00190551 0
0 0 0
0 0 0
-7.58463e-15 -0.00206765 0
1.14707e-14 -0.00206765 0
0 0 0
0 0 0
1.14707e-14 -0.00206765 0
2.82139e-15 -0.00206765 0
-7.58463e-15 -0.00206765 0
1.14707e-14 -0.00206765 0
-2.663e-16 -0.00190551 0
1.35154e-15 -0.00190551 0
1.14707e-14 -0.00206765 0
2.82139e-15 -0.00206765 0
1.35154e-15 -0.00190551 0
-4.75952e-15 -0.00190551 0
0 -0.00190551 0
-7.39765e-15 -0.00190551 0
0 -0.00182568 0
-6.41857e-15 -0.00182568 0
-7.39765e-15 -0.00190551 0
-2.663e-16 -0.00190551 0
-6.41857e-15 -0.00182568 0
-4.68364e-15 -0.00182568 0
0 -0.00182568 0
-6.41857e-15 -0.00182568 0
0 -0.00167166 0
7.91283e-15 -0.00167166 0
-6.41857e-15 -0.00182568 0
-4.68364e-15 -0.00182568 0
7.91283e-15 -0.00167166 0
1.28302e-14 -0.00167166 0
-2.663e-16 -0.00190551 0
1.35154e-15 -0.00190551 0
-4.68364e-15 -0.00182568 0
9.8028e-16 -0.00182568 0
1.35154e-15 -0.00190551 0
-4.75952e-15 -0.00190551 0
9.8028e-16 -0.00182568 0
1.95221e-16 -0.00182568 0
-4.68364e-15 -0.00182568 0
9.8028e-16 -0.00182568 0
1.28302e-14 -0.00167166 0
7.30343e-15 -0.00167166 0
9.8028e-16 -0.00182568 0
1.95221e-16 -0.00182568 0
7.30343e-15 -0.00167166 0
-4.11943e-15 -0.00167166 0
0 0 0
0 0 0
2.82139e-15 -0.00206765 0
-1.26528e-14 -0.00206765 0
0 0 0
0 0 0
-1.26528e-14 -0.00206765 0
-1.1736e-14 -0.00206765 0
2.82139e-15 -0.00206765 0
-1.26528e-14 -0.00206765 0
-4.75952e-15 -0.00190551 0
6.69057e-15 -0.00190551 0
-1.26528e-14 -0.00206765 0
-1.1736e-14 -0.00206765 0
6.69057e-15 -0.00190551 0
2.21241e-15 -0.00190551 0
0 0 0
0 0 0
-1.1736e-14 -0.00206765 0
5.62286e-15 -0.00206765 0
0 0 0
0 0 0
5.62286e-15 -0.00206765 0
1.86158e-15 -0.00206765 0
-1.1736e-14 -0.00206765 0
5.62286e-15 -0.00206765 0
2.21241e-15 -0.00190551 0
-2.63463e-15 -0.00190551 0
5.62286e-15 -0.00206765 0
1.86158e-15 -0.00206765 0
-2.63463e-15 -0.00190551 0
-3.55513e-15 -0.00190551 0
-4.75952e-15 -0.00190551 0
6.69057e-15 -0.00190551 0
1.95221e-16 -0.00182568 0
5.17028e-15 -0.00182568 0
6.69057e-15 -0.00190551 0
2.21241e-15 -0.00190551 0
5.17028e-15 -0.00182568 0
3.80634e-15 -0.00182568 0
1.95221e-16 -0.00182568 0
5.17028e-15 -0.00182568 0
-4.11943e-15 -0.00167166 0
1.48945e-15 -0.00167166 0
5.17028e-15 -0.00182568 0
3.80634e-15 -0.00182568 0
1.48945e-15 -0.00167166 0
3.033e-15 -0.00167166 0
2.21241e-15 -0.00190551 0
-2.63463e-15 -0.00190551 0
3.80634e-15 -0.00182568 0
-7.96912e-18 -0.00182568 0
-2.63463e-15 -0.00190551 0
-3.55513e-15 -0.00190551 0
-7.96912e-18 -0.00182568 0
4.68151e-15 -0.00182568 0
3.80634e-15 -0.00182568 0
-7.96912e-18 -0.00182568 0
3.033e-15 -0.00167166 0
2.4057e-15 -0.00167166 0
-7.96912e-18 -0.00182568 0
4.68151e-15 -0.00182568 0
2.4057e-15 -0.00167166 0
-2.80921e-15 -0.00167166 0
0 -0.00167166 0
7.91283e-15 -0.00167166 0
0 -0.00153754 0
-3.98008e-15 -0.00153754 0
7.91283e-15 -0.00167166 0
1.28302e-14 -0.00167166 0
-3.98008e-15 -0.00153754 0
-4.42529e-15 -0.00153754 0
0 -0.00153754 0
-3.98008e-15 -0.00153754 0
0 -0.00140221 0
1.29786e-15 -0.00140221 0
-3.98008e-15 -0.00153754 0
-4.42529e-15 -0.00153754 0
1.29786e-15 -0.00140221 0
1.23942e-14 -0.00140221 0
1.28302e-14 -0.00167166 0
7.30343e-15 -0.00167166 0
-4.42529e-15 -0.00153754 0
2.09089e-16 -0.00153754 0
7.30343e-15 -0.00167166 0
-4.11943e-15 -0.00167166 0
2.09089e-16 -0.00153754 0
4.1695e-15 -0.00153754 0
-4.42529e-15 -0.00153754 0
2.09089e-16 -0.00153754 0
1.23942e-14 -0.00140221 0
4.21322e-15 -0.00140221 0
2.09089e-16 -0.00153754 0
4.1695e-15 -0.00153754 0
4.21322e-15 -0.00140221 0
-2.7945e-15 -0.00140221 0
0 -0.00140221 0
1.29786e-15 -0.00140221 0
0 -0.00127297 0
5.30996e-15 -0.00127297 0
1.29786e-15 -0.00140221 0
1.23942e-14 -0.00140221 0
5.30996e-15 -0.00127297 0
-9.42078e-15 -0.00127297 0
0 -0.00127297 0
5.30996e-15 -0.00127297 0
0 -0.00114883 0
1.69731e-15 -0.00114883 0
5.30996e-15 -0.00127297 0
-9.42078e-15 -0.00127297 0
1.69731e-15 -0.00114883 0
7.33379e-15 -0.00114883 0
1.23942e-14 -0.00140221 0
4.21322e-15 -0.00140221 0
-9.42078e-15 -0.00127297 0
4.89479e-15 -0.00127297 0
4.21322e-15 -0.00140221 0
-2.7945e-15 -0.00140221 0
4.89479e-15 -0.00127297 0
1.66859e-14 -0.00127297 0
-9.42078e-15 -0.00127297 0
4.89479e-15 -0.00127297 0
7.33379e-15 -0.00114883 0
5.42764e-15 -0.00114883 0
4.89479e-15 -0.00127297 0
1.66859e-14 -0.00127297 0
5.42764e-15 -0.00114883 0
-2.34228e-15 -0.00114883 0
-4.11943e-15 -0.00167166 0
1.48945e-15 -0.00167166 0
4.1695e-15 -0.00153754 0
-5.97852e-15 -0.00153754 0
1.48945e-15 -0.00167166 0
3.033e-15 -0.00167166 0
-5.97852e-15 -0.00153754 0
-2.98061e-15 -0.00153754 0
4.1695e-15 -0.00153754 0
-5.97852e-15 -0.00153754 0
-2.7945e-15 -0.00140221 0
3.60308e-15 -0.00140221 0
-5.97852e-15 -0.00153754 0
-2.98061e-15 -0.00153754 0
3.60308e-15 -0.00140221 0
-2.52431e-15 -0.00140221 0
3.033e-15 -0.00167166 0
2.4057e-15 -0.00167166 0
-2.98061e-15 -0.00153754 0
3.35097e-15 -0.00153754 0
2.4057e-15 -0.00167166 0
-2.80921e-15 -0.00167166 0
3.35097e-15 -0.00153754 0
1.71208e-15 -0.00153754 0
-2.98061e-15 -0.00153754 0
3.35097e-15 -0.00153754 0
-2.52431e-15 -0.00140221 0
2.68023e-15 -0.00140221 0
3.35097e-15 -0.00153754 0
1.71208e-15 -0.00153754 0
2.68023e-15 -0.00140221 0
-2.75332e-16 -0.00140221 0
-2.7945e-15 -0.00140221 0
3.60308e-15 -0.00140221 0
1.66859e-14 -0.00127297 0
7.34175e-15 -0.00127297 0
3.60308e-15 -0.00140221 0
-2.52431e-15 -0.00140221 0
7.34175e-15 -0.00127297 0
6.04183e-15 -0.00127297 0
1.66859e-14 -0.00127297 0
7.34175e-15 -0.00127297 0
-2.34228e-15 -0.00114883 0
5.1193e-15 -0.00114883 0
7.34175e-15 -0.00127297 0
6.04183e-15 -0.00127297 0
5.1193e-15 -0.00114883 0
1.04159e-14 -0.00114883 0
-2.52431e-15 -0.00140221 0
2.68023e-15 -0.00140221 0
6.04183e-15 -0.00127297 0
1.36436e-14 -0.00127297 0
2.68023e-15 -0.00140221 0
-2.75332e-16 -0.00140221 0
1.36436e-14 -0.00127297 0
2.28479e-15 -0.00127297 0
6.04183e-15 -0.00127297 0
1.36436e-14 -0.00127297 0
1.04159e-14 -0.00114883 0
1.49866e-16 -0.00114883 0
1.36436e-14 -0.00127297 0
2.28479e-15 -0.00127297 0
1.49866e-16 -0.00114883 0
1.04902e-14 -0.00114883 0
0 0 0
0 0 0
1.86158e-15 -0.00206765 0
-5.94527e-15 -0.00206765 0
0 0 0
0 0 0
-5.94527e-15 -0.00206765 0
8.59019e-15 -0.00206765 0
1.86158e-15 -0.00206765 0
-5.94527e-15 -0.00206765 0
-3.55513e-15 -0.00190551 0
2.97842e-15 -0.00190551 0
-5.94527e-15 -0.00206765 0
8.59019e-15 -0.00206765 0
2.97842e-15 -0.00190551 0
-1.46559e-15 -0.00190551 0
0 0 0
0 0 0
8.59019e-15 -0.00206765 0
1.46422e-14 -0.00206765 0
0 0 0
0 0 0
1.46422e-14 -0.00206765 0
2.78828e-16 -0.00206765 0
8.59019e-15 -0.00206765 0
1.46422e-14 -0.00206765 0
-1.46559e-15 -0.00190551 0
-1.54469e-14 -0.00190551 0
1.46422e-14 -0.00206765 0
2.78828e-16 -0.00206765 0
-1.54469e-14 -0.00190551 0
-7.15427e-15 -0.00190551 0
-3.55513e-15 -0.00190551 0
2.97842e-15 -0.00190551 0
4.68151e-15 -0.00182568 0
-1.18231e-14 -0.00182568 0
2.97842e-15 -0.00190551 0
-1.46559e-15 -0.00190551 0
-1.18231e-14 -0.00182568 0
7.03704e-15 -0.00182568 0
4.68151e-15 -0.00182568 0
-1.18231e-14 -0.00182568 0
-2.80921e-15 -0.00167166 0
-5.55721e-15 -0.00167166 0
-1.18231e-14 -0.00182568 0
7.03704e-15 -0.00182568 0
-5.55721e-15 -0.00167166 0
-4.72328e-15 -0.00167166 0
-1.46559e-15 -0.00190551 0
-1.54469e-14 -0.00190551 0
7.03704e-15 -0.00182568 0
1.8018e-14 -0.00182568 0
-1.54469e-14 -0.00190551 0
-7.15427e-15 -0.00190551 0
1.8018e-14 -0.00182568 0
-7.91349e-15 -0.00182568 0
7.03704e-15 -0.00182568 0
1.8018e-14 -0.00182568 0
-4.72328e-15 -0.00167166 0
-1.07648e-14 -0.00167166 0
1.8018e-14 -0.00182568 0
-7.91349e-15 -0.00182568 0
-1.07648e-14 -0.00167166 0
4.1493e-15 -0.00167166 0
0 0 0
0 0 0
2.78828e-16 -0.00206765 0
-2.44181e-15 -0.00206765 0
0 0 0
0 0 0
-2.44181e-15 -0.00206765 0
3.98393e-15 -0.00206765 0
2.78828e-16 -0.00206765 0
-2.44181e-15 -0.00206765 0
-7.15427e-15 -0.00190551 0
8.15533e-15 -0.00190551 0
-2.44181e-15 -0.00206765 0
3.98393e-15 -0.00206765 0
8.15533e-15 -0.00190551 0
-7.78344e-15 -0.00190551 0
0 0 0
0 0 0
3.98393e-15 -0.00206765 0
-1.41731e-15 -0.00206765 0
0 0 0
0 0 0
-1.41731e-15 -0.00206765 0
1.03753e-14 -0.00206765 0
3.98393e-15 -0.00206765 0
-1.41731e-15 -0.00206765 0
-7.78344e-15 -0.00190551 0
-9.03156e-16 -0.00190551 0
-1.41731e-15 -0.00206765 0
1.03753e-14 -0.00206765 0
-9.03156e-16 -0.00190551 0
3.69092e-15 -0.00190551 0
-7.15427e-15 -0.00190551 0
8.15533e-15 -0.00190551 0
-7.91349e-15 -0.00182568 0
-1.05533e-14 -0.00182568 0
8.15533e-15 -0.00190551 0
-7.78344e-15 -0.00190551 0
-1.05533e-14 -0.00182568 0
7.53738e-15 -0.00182568 0
-7.91349e-15 -0.00182568 0
-1.05533e-14 -0.00182568 0
4.1493e-15 -0.00167166 0
-2.53666e-16 -0.00167166 0
-1.05533e-14 -0.00182568 0
7.53738e-15 -0.00182568 0
-2.53666e-16 -0.00167166 0
-5.22464e-15 -0.00167166 0
-7.78344e-15 -0.00190551 0
-9.03156e-16 -0.00190551 0
7.53738e-15 -0.00182568 0
-9.72141e-15 -0.00182568 0
-9.03156e-16 -0.00190551 0
3.69092e-15 -0.00190551 0
-9.72141e-15 -0.00182568 0
-1.93633e-15 -0.00182568 0
7.53738e-15 -0.00182568 0
-9.72141e-15 -0.00182568 0
-5.22464e-15 -0.00167166 0
-3.04233e-16 -0.00167166 0
-9.72141e-15 -0.00182568 0
-1.93633e-15 -0.00182568 0
-3.04233e-16 -0.00167166 0
-1.06733e-14 -0.00167166 0
-2.80921e-15 -0.00167166 0
-5.55721e-15 -0.00167166 0
1.71208e-15 -0.00153754 0
8.88496e-15 -0.00153754 0
-5.55721e-15 -0.00167166 0
-4.72328e-15 -0.00167166 0
8.88496e-15 -0.00153754 0
-1.81815e-15 -0.00153754 0
1.71208e-15 -0.00153754 0
8.88496e-15 -0.00153754 0
-2.75332e-16 -0.00140221 0
-5.85673e-15 -0.00140221 0
8.88496e-15 -0.00153754 0
-1.81815e-15 -0.00153754 0
-5.85673e-15 -0.00140221 0
9.00249e-15 -0.00140221 0
-4.72328e-15 -0.00167166 0
-1.07648e-14 -0.00167166 0
-1.81815e-15 -0.00153754 0
2.64153e-15 -0.00153754 0
-1.07648e-14 -0.00167166 0
4.1493e-15 -0.00167166 0
2.64153e-15 -0.00153754 0
4.49528e-15 -0.00153754 0
-1.81815e-15 -0.00153754 0
2.64153e-15 -0.00153754 0
9.00249e-15 -0.00140221 0
1.70042e-14 -0.00140221 0
2.64153e-15 -0.00153754 0
4.49528e-15 -0.00153754 0
1.70042e-14 -0.00140221 0
-3.40667e-15 -0.00140221 0
-2.75332e-16 -0.00140221 0
-5.85673e-15 -0.00140221 0
2.28479e-15 -0.00127297 0
1.35705e-15 -0.00127297 0
-5.85673e-15 -0.00140221 0
9.00249e-15 -0.00140221 0
1.35705e-15 -0.00127297 0
1.56018e-15 -0.00127297 0
2.28479e-15 -0.00127297 0
1.35705e-15 -0.00127297 0
1.04902e-14 -0.00114883 0
1.44462e-15 -0.00114883 0
1.35705e-15 -0.00127297 0
1.56018e-15 -0.00127297 0
1.44462e-15 -0.00114883 0
5.53426e-15 -0.00114883 0
9.00249e-15 -0.00140221 0
1.70042e-14 -0.00140221 0
1.56018e-15 -0.00127297 0
-8.01564e-15 -0.00127297 0
1.70042e-14 -0.00140221 0
-3.40667e-15 -0.00140221 0
-8.01564e-15 -0.00127297 0
1.06751e-14 -0.00127297 0
1.56018e-15 -0.00127297 0
-8.01564e-15 -0.00127297 0
5.53426e-15 -0.00114883 0
9.20554e-15 -0.00114883 0
-8.01564e-15 -0.00127297 0
1.06751e-14 -0.00127297 0
9.20554e-15 -0.00114883 0
7.00466e-15 -0.00114883 0
4.1493e-15 -0.00167166 0
-2.53666e-16 -0.00167166 0
4.49528e-15 -0.00153754 0
2.70344e-17 -0.00153754 0
-2.53666e-16 -0.00167166 0
-5.22464e-15 -0.00167166 0
2.70344e-17 -0.00153754 0
2.29336e-15 -0.00153754 0
4.49528e-15 -0.00153754 0
2.70344e-17 -0.00153754 0
-3.40667e-15 -0.00140221 0
7.86636e-15 -0.00140221 0
2.70344e-17 -0.00153754 0
2.29336e-15 -0.00153754 0
7.86636e-15 -0.00140221 0
1.35628e-14 -0.00140221 0
-5.22464e-15 -0.00167166 0
-3.04233e-16 -0.00167166 0
2.29336e-15 -0.00153754 0
1.07246e-14 -0.00153754 0
-3.04233e-16 -0.00167166 0
-1.06733e-14 -0.00167166 0
1.07246e-14 -0.00153754 0
1.21911e-14 -0.00153754 0
2.29336e-15 -0.00153754 0
1.07246e-14 -0.00153754 0
1.35628e-14 -0.00140221 0
9.12346e-15 -0.00140221 0
1.07246e-14 -0.00153754 0
1.21911e-14 -0.00153754 0
9.12346e-15 -0.00140221 0
2.24269e-14 -0.00140221 0
-3.40667e-15 -0.00140221 0
7.86636e-15 -0.00140221 0
1.06751e-14 -0.00127297 0
2.18107e-15 -0.00127297 0
7.86636e-15 -0.00140221 0
1.35628e-14 -0.00140221 0
2.18107e-15 -0.00127297 0
-9.909e-16 -0.00127297 0
1.06751e-14 -0.00127297 0
2.18107e-15 -0.00127297 0
7.00466e-15 -0.00114883 0
2.19506e-15 -0.00114883 0
2.18107e-15 -0.00127297 0
-9.909e-16 -0.00127297 0
2.19506e-15 -0.00114883 0
-7.49431e-15 -0.00114883 0
1.35628e-14 -0.00140221 0
9.12346e-15 -0.00140221 0
-9.909e-16 -0.00127297 0
1.42746e-14 -0.00127297 0
9.12346e-15 -0.00140221 0
2.24269e-14 -0.00140221 0
1.42746e-14 -0.00127297 0
7.61085e-15 -0.00127297 0
-9.909e-16 -0.00127297 0
1.42746e-14 -0.00127297 0
-7.49431e-15 -0.00114883 0
5.33808e-16 -0.00114883 0
1.42746e-14 -0.00127297 0
7.61085e-15 -0.00127297 0
5.33808e-16 -0.00114883 0
-2.94797e-15 -0.00114883 0
0 -0.00114883 0
1.69731e-15 -0.00114883 0
0 -0.00103101 0
4.19098e-15 -0.00103101 0
1.69731e-15 -0.00114883 0
7.33379e-15 -0.00114883 0
4.19098e-15 -0.00103101 0
-1.44217e-15 -0.00103101 0
0 -0.00103101 0
4.19098e-15 -0.00103101 0
0 -0.000919223 0
-5.1718e-15 -0.000919223 0
4.19098e-15 -0.00103101 0
-1.44217e-15 -0.00103101 0
-5.1718e-15 -0.000919223 0
-1.1456e-15 -0.000919223 0
7.33379e-15 -0.00114883 0
5.42764e-15 -0.00114883 0
-1.44217e-15 -0.00103101 0
3.8316e-15 -0.00103101 0
5.42764e-15 -0.00114883 0
-2.34228e-15 -0.00114883 0
3.8316e-15 -0.00103101 0
7.60142e-15 -0.00103101 0
-1.44217e-15 -0.00103101 0
3.8316e-15 -0.00103101 0
-1.1456e-15 -0.000919223 0
1.20311e-15 -0.000919223 0
3.8316e-15 -0.00103101 0
7.60142e-15 -0.00103101 0
1.20311e-15 -0.000919223 0
-9.24588e-15 -0.000919223 0
0 -0.000919223 0
-5.1718e-15 -0.000919223 0
0 -0.000811416 0
-7.15251e-15 -0.000811416 0
-5.1718e-15 -0.000919223 0
-1.1456e-15 -0.000919223 0
-7.15251e-15 -0.000811416 0
-7.84339e-16 -0.000811416 0
0 -0.000811416 0
-7.15251e-15 -0.000811416 0
0 -0.000702696 0
-1.99744e-16 -0.000702696 0
-7.15251e-15 -0.000811416 0
-7.84339e-16 -0.000811416 0
-1.99744e-16 -0.000702696 0
5.55203e-15 -0.000702696 0
-1.1456e-15 -0.000919223 0
1.20311e-15 -0.000919223 0
-7.84339e-16 -0.000811416 0
1.20797e-15 -0.000811416 0
1.20311e-15 -0.000919223 0
-9.24588e-15 -0.000919223 0
1.20797e-15 -0.000811416 0
-2.38718e-15 -0.000811416 0
-7.84339e-16 -0.000811416 0
1.20797e-15 -0.000811416 0
5.55203e-15 -0.000702696 0
-5.64753e-15 -0.000702696 0
1.20797e-15 -0.000811416 0
-2.38718e-15 -0.000811416 0
-5.64753e-15 -0.000702696 0
6.76046e-16 -0.000702696 0
-2.34228e-15 -0.00114883 0
5.1193e-15 -0.00114883 0
7.60142e-15 -0.00103101 0
-7.21047e-15 -0.00103101 0
5.1193e-15 -0.00114883 0
1.04159e-14 -0.00114883 0
-7.21047e-15 -0.00103101 0
-2.84319e-15 -0.00103101 0
7.60142e-15 -0.00103101 0
-7.21047e-15 -0.00103101 0
-9.24588e-15 -0.000919223 0
9.09345e-15 -0.000919223 0
-7.21047e-15 -0.00103101 0
-2.84319e-15 -0.00103101 0
9.09345e-15 -0.000919223 0
-6.54497e-15 -0.000919223 0
1.04159e-14 -0.00114883 0
1.49866e-16 -0.00114883 0
-2.84319e-15 -0.00103101 0
6.81033e-15 -0.00103101 0
1.49866e-16 -0.00114883 0
1.04902e-14 -0.00114883 0
6.81033e-15 -0.00103101 0
1.35817e-14 -0.00103101 0
-2.84319e-15 -0.00103101 0
6.81033e-15 -0.00103101 0
-6.54497e-15 -0.000919223 0
-2.31954e-15 -0.000919223 0
6.81033e-15 -0.00103101 0
1.35817e-14 -0.00103101 0
-2.31954e-15 -0.000919223 0
-9.09581e-16 -0.000919223 0
-9.24588e-15 -0.000919223 0
9.09345e-15 -0.000919223 0
-2.38718e-15 -0.000811416 0
6.33293e-15 -0.000811416 0
9.09345e-15 -0.000919223 0
-6.54497e-15 -0.000919223 0
6.33293e-15 -0.000811416 0
-6.32632e-15 -0.000811416 0
-2.38718e-15 -0.000811416 0
6.33293e-15 -0.000811416 0
6.76046e-16 -0.000702696 0
-2.69955e-15 -0.000702696 0
6.33293e-15 -0.000811416 0
-6.32632e-15 -0.000811416 0
-2.69955e-15 -0.000702696 0
2.94363e-15 -0.000702696 0
-6.54497e-15 -0.000919223 0
-2.31954e-15 -0.000919223 0
-6.32632e-15 -0.000811416 0
5.6868e-15 -0.000811416 0
-2.31954e-15 -0.000919223 0
-9.09581e-16 -0.000919223 0
5.6868e-15 -0.000811416 0
-1.52675e-15 -0.000811416 0
-6.32632e-15 -0.000811416 0
5.6868e-15 -0.000811416 0
2.94363e-15 -0.000702696 0
2.35921e-15 -0.000702696 0
5.6868e-15 -0.000811416 0
-1.52675e-15 -0.000811416 0
2.35921e-15 -0.000702696 0
-2.32757e-16 -0.000702696 0
0 -0.000702696 0
-1.99744e-16 -0.000702696 0
0 -0.000581922 0
3.97738e-15 -0.000581922 0
-1.99744e-16 -0.000702696 0
5.55203e-15 -0.000702696 0
3.97738e-15 -0.000581922 0
-4.79333e-15 -0.000581922 0
0 -0.000581922 0
3.97738e-15 -0.000581922 0
0 -0.000440787 0
-4.15664e-15 -0.000440787 0
3.97738e-15 -0.000581922 0
-4.79333e-15 -0.000581922 0
-4.15664e-15 -0.000440787 0
8.47269e-16 -0.000440787 0
5.55203e-15 -0.000702696 0
-5.64753e-15 -0.000702696 0
-4.79333e-15 -0.000581922 0
2.22296e-15 -0.000581922 0
-5.64753e-15 -0.000702696 0
6.76046e-16 -0.000702696 0
2.22296e-15 -0.000581922 0
-2.77187e-15 -0.000581922 0
-4.79333e-15 -0.000581922 0
2.22296e-15 -0.000581922 0
8.47269e-16 -0.000440787 0
-7.30112e-16 -0.000440787 0
2.22296e-15 -0.000581922 0
-2.77187e-15 -0.000581922 0
-7.30112e-16 -0.000440787 0
1.05594e-15 -0.000440787 0
0 -0.000440787 0
-4.15664e-15 -0.000440787 0
0 -0.00027321 0
6.8752e-16 -0.00027321 0
-4.15664e-15 -0.000440787 0
8.47269e-16 -0.000440787 0
6.8752e-16 -0.00027321 0
-1.91141e-15 -0.00027321 0
0 -0.00027321 0
6.8752e-16 -0.00027321 0
0 -0.000170082 0
6.18516e-16 -0.000170082 0
6.8752e-16 -0.00027321 0
-1.91141e-15 -0.00027321 0
6.18516e-16 -0.000170082 0
-3.21909e-16 -0.000170082 0
8.47269e-16 -0.000440787 0
-7.30112e-16 -0.000440787 0
-1.91141e-15 -0.00027321 0
3.13975e-17 -0.00027321 0
-7.30112e-16 -0.000440787 0
1.05594e-15 -0.000440787 0
3.13975e-17 -0.00027321 0
-4.20618e-15 -0.00027321 0
-1.91141e-15 -0.00027321 0
3.13975e-17 -0.00027321 0
-3.21909e-16 -0.000170082 0
-1.05727e-15 -0.000170082 0
3.13975e-17 -0.00027321 0
-4.20618e-15 -0.00027321 0
-1.05727e-15 -0.000170082 0
-6.34887e-15 -0.000170082 0
6.76046e-16 -0.000702696 0
-2.69955e-15 -0.000702696 0
-2.77187e-15 -0.000581922 0
-6.77531e-16 -0.000581922 0
-2.69955e-15 -0.000702696 0
2.94363e-15 -0.000702696 0
-6.77531e-16 -0.000581922 0
-4.03418e-15 -0.000581922 0
-2.77187e-15 -0.000581922 0
-6.77531e-16 -0.000581922 0
1.05594e-15 -0.000440787 0
2.04515e-15 -0.000440787 0
-6.77531e-16 -0.000581922 0
-4.03418e-15 -0.000581922 0
2.04515e-15 -0.000440787 0
6.43101e-15 -0.000440787 0
2.94363e-15 -0.000702696 0
2.35921e-15 -0.000702696 0
-4.03418e-15 -0.000581922 0
-7.33795e-16 -0.000581922 0
2.35921e-15 -0.000702696 0
-2.32757e-16 -0.000702696 0
-7.33795e-16 -0.000581922 0
3.28932e-15 -0.000581922 0
-4.03418e-15 -0.000581922 0
-7.33795e-16 -0.000581922 0
6.43101e-15 -0.000440787 0
-7.17567e-15 -0.000440787 0
-7.33795e-16 -0.000581922 0
3.28932e-15 -0.000581922 0
-7.17567e-15 -0.000440787 0
-2.10702e-15 -0.000440787 0
1.05594e-15 -0.000440787 0
2.04515e-15 -0.000440787 0
-4.20618e-15 -0.00027321 0
-2.94997e-15 -0.00027321 0
2.04515e-15 -0.000440787 0
6.43101e-15 -0.000440787 0
-2.94997e-15 -0.00027321 0
-5.51979e-15 -0.00027321 0
-4.20618e-15 -0.00027321 0
-2.94997e-15 -0.00027321 0
-6.34887e-15 -0.000170082 0
-1.23163e-15 -0.000170082 0
-2.94997e-15 -0.00027321 0
-5.51979e-15 -0.00027321 0
-1.23163e-15 -0.000170082 0
-6.69879e-15 -0.000170082 0
6.43101e-15 -0.000440787 0
-7.17567e-15 -0.000440787 0
-5.51979e-15 -0.00027321 0
-9.74837e-16 -0.00027321 0
-7.17567e-15 -0.000440787 0
-2.10702e-15 -0.000440787 0
-9.74837e-16 -0.00027321 0
-2.84225e-15 -0.00027321 0
-5.51979e-15 -0.00027321 0
-9.74837e-16 -0.00027321 0
-6.69879e-15 -0.000170082 0
-6.76016e-15 -0.000170082 0
-9.74837e-16 -0.00027321 0
-2.84225e-15 -0.00027321 0
-6.76016e-15 -0.000170082 0
-7.63492e-15 -0.000170082 0
1.04902e-14 -0.00114883 0
1.44462e-15 -0.00114883 0
1.35817e-14 -0.00103101 0
3.62469e-15 -0.00103101 0
1.44462e-15 -0.00114883 0
5.53426e-15 -0.00114883 0
3.62469e-15 -0.00103101 0
3.73989e-15 -0.00103101 0
1.35817e-14 -0.00103101 0
3.62469e-15 -0.00103101 0
-9.09581e-16 -0.000919223 0
4.61211e-15 -0.000919223 0
3.62469e-15 -0.00103101 0
3.73989e-15 -0.00103101 0
4.61211e-15 -0.000919223 0
-1.99581e-15 -0.000919223 0
5.53426e-15 -0.00114883 0
9.20554e-15 -0.00114883 0
3.73989e-15 -0.00103101 0