# vtk DataFile Version 3.0
#This file was generated by the deal.II library on 2018/10/12 at 1:10:22
ASCII
DATASET UNSTRUCTURED_GRID

POINTS 5120 double
0 0 0
0.392699 0 0
0 0.598973 0
0.392699 0.598973 0
0.392699 0 0
0.785398 0 0
0.392699 0.598973 0
0.785398 0.598973 0
0 0.598973 0
0.392699 0.598973 0
0 1.22587 0
0.392699 1.22587 0
0.392699 0.598973 0
0.785398 0.598973 0
0.392699 1.22587 0
0.785398 1.22587 0
0.785398 0 0
1.1781 0 0
0.785398 0.598973 0
1.1781 0.598973 0
1.1781 0 0
1.5708 0 0
1.1781 0.598973 0
1.5708 0.598973 0
0.785398 0.598973 0
1.1781 0.598973 0
0.785398 1.22587 0
1.1781 1.22587 0
1.1781 0.598973 0
1.5708 0.598973 0
1.1781 1.22587 0
1.5708 1.22587 0
0 1.22587 0
0.392699 1.22587 0
0 1.85181 0
0.392699 1.85181 0
0.392699 1.22587 0
0.785398 1.22587 0
0.392699 1.85181 0
0.785398 1.85181 0
0 1.85181 0
0.392699 1.85181 0
0 2.47871 0
0.392699 2.47871 0
0.392699 1.85181 0
0.785398 1.85181 0
0.392699 2.47871 0
0.785398 2.47871 0
0.785398 1.22587 0
1.1781 1.22587 0
0.785398 1.85181 0
1.1781 1.85181 0
1.1781 1.22587 0
1.5708 1.22587 0
1.1781 1.85181 0
1.5708 1.85181 0
0.785398 1.85181 0
1.1781 1.85181 0
0.785398 2.47871 0
1.1781 2.47871 0
1.1781 1.85181 0
1.5708 1.85181 0
1.1781 2.47871 0
1.5708 2.47871 0
1.5708 0 0
1.9635 0 0
1.5708 0.598973 0
1.9635 0.598973 0
1.9635 0 0
2.35619 0 0
1.9635 0.598973 0
2.35619 0.598973 0
1.5708 0.598973 0
1.9635 0.598973 0
1.5708 1.22587 0
1.9635 1.22587 0
1.9635 0.598973 0
2.35619 0.598973 0
1.9635 1.22587 0
2.35619 1.22587 0
2.35619 0 0
2.74889 0 0
2.35619 0.598973 0
2.74889 0.598973 0
2.74889 0 0
3.14159 0 0
2.74889 0.598973 0
3.14159 0.598973 0
2.35619 0.598973 0
2.74889 0.598973 0
2.35619 1.22587 0
2.74889 1.22587 0
2.74889 0.598973 0
3.14159 0.598973 0
2.74889 1.22587 0
3.14159 1.22587 0
1.5708 1.22587 0
1.9635 1.22587 0
1.5708 1.85181 0
1.9635 1.85181 0
1.9635 1.22587 0
2.35619 1.22587 0
1.9635 1.85181 0
2.35619 1.85181 0
1.5708 1.85181 0
1.9635 1.85181 0
1.5708 2.47871 0
1.9635 2.47871 0
1.9635 1.85181 0
2.35619 1.85181 0
1.9635 2.47871 0
2.35619 2.47871 0
2.35619 1.22587 0
2.74889 1.22587 0
2.35619 1.85181 0
2.74889 1.85181 0
2.74889 1.22587 0
3.14159 1.22587 0
2.74889 1.85181 0
3.14159 1.85181 0
2.35619 1.85181 0
2.74889 1.85181 0
2.35619 2.47871 0
2.74889 2.47871 0
2.74889 1.85181 0
3.14159 1.85181 0
2.74889 2.47871 0
3.14159 2.47871 0
0 2.47871 0
0.392699 2.47871 0
0 3.10535 0
0.392699 3.10535 0
0.392699 2.47871 0
0.785398 2.47871 0
0.392699 3.10535 0
0.785398 3.10535 0
0 3.10535 0
0.392699 3.10535 0
0 3.732 0
0.392699 3.732 0
0.392699 3.10535 0
0.785398 3.10535 0
0.392699 3.732 0
0.785398 3.732 0
0.785398 2.47871 0
1.1781 2.47871 0
0.785398 3.10535 0
1.1781 3.10535 0
1.1781 2.47871 0
1.5708 2.47871 0
1.1781 3.10535 0
1.5708 3.10535 0
0.785398 3.10535 0
1.1781 3.10535 0
0.785398 3.732 0
1.1781 3.732 0
1.1781 3.10535 0
1.5708 3.10535 0
1.1781 3.732 0
1.5708 3.732 0
0 3.732 0
0.392699 3.732 0
0 4.35858 0
0.392699 4.35858 0
0.392699 3.732 0
0.785398 3.732 0
0.392699 4.35858 0
0.785398 4.35858 0
0 4.35858 0
0.392699 4.35858 0
0 4.98508 0
0.392699 4.98508 0
0.392699 4.35858 0
0.785398 4.35858 0
0.392699 4.98508 0
0.785398 4.98508 0
0.785398 3.732 0
1.1781 3.732 0
0.785398 4.35858 0
1.1781 4.35858 0
1.1781 3.732 0
1.5708 3.732 0
1.1781 4.35858 0
1.5708 4.35858 0
0.785398 4.35858 0
1.1781 4.35858 0
0.785398 4.98508 0
1.1781 4.98508 0
1.1781 4.35858 0
1.5708 4.35858 0
1.1781 4.98508 0
1.5708 4.98508 0
1.5708 2.47871 0
1.9635 2.47871 0
1.5708 3.10535 0
1.9635 3.10535 0
1.9635 2.47871 0
2.35619 2.47871 0
1.9635 3.10535 0
2.35619 3.10535 0
1.5708 3.10535 0
1.9635 3.10535 0
1.5708 3.732 0
1.9635 3.732 0
1.9635 3.10535 0
2.35619 3.10535 0
1.9635 3.732 0
2.35619 3.732 0
2.35619 2.47871 0
2.74889 2.47871 0
2.35619 3.10535 0
2.74889 3.10535 0
2.74889 2.47871 0
3.14159 2.47871 0
2.74889 3.10535 0
3.14159 3.10535 0
2.35619 3.10535 0
2.74889 3.10535 0
2.35619 3.732 0
2.74889 3.732 0
2.74889 3.10535 0
3.14159 3.10535 0
2.74889 3.732 0
3.14159 3.732 0
1.5708 3.732 0
1.9635 3.732 0
1.5708 4.35858 0
1.9635 4.35858 0
1.9635 3.732 0
2.35619 3.732 0
1.9635 4.35858 0
2.35619 4.35858 0
1.5708 4.35858 0
1.9635 4.35858 0
1.5708 4.98508 0
1.9635 4.98508 0
1.9635 4.35858 0
2.35619 4.35858 0
1.9635 4.98508 0
2.35619 4.98508 0
2.35619 3.732 0
2.74889 3.732 0
2.35619 4.35858 0
2.74889 4.35858 0
2.74889 3.732 0
3.14159 3.732 0
2.74889 4.35858 0
3.14159 4.35858 0
2.35619 4.35858 0
2.74889 4.35858 0
2.35619 4.98508 0
2.74889 4.98508 0
2.74889 4.35858 0
3.14159 4.35858 0
2.74889 4.98508 0
3.14159 4.98508 0
3.14159 0 0
3.53429 0 0
3.14159 0.598973 0
3.53429 0.598973 0
3.53429 0 0
3.92699 0 0
3.53429 0.598973 0
3.92699 0.598973 0
3.14159 0.598973 0
3.53429 0.598973 0
3.14159 1.22587 0
3.53429 1.22587 0
3.53429 0.598973 0
3.92699 0.598973 0
3.53429 1.22587 0
3.92699 1.22587 0
3.92699 0 0
4.31969 0 0
3.92699 0.598973 0
4.31969 0.598973 0
4.31969 0 0
4.71239 0 0
4.31969 0.598973 0
4.71239 0.598973 0
3.92699 0.598973 0
4.31969 0.598973 0
3.92699 1.22587 0
4.31969 1.22587 0
4.31969 0.598973 0
4.71239 0.598973 0
4.31969 1.22587 0
4.71239 1.22587 0
3.14159 1.22587 0
3.53429 1.22587 0
3.14159 1.85181 0
3.53429 1.85181 0
3.53429 1.22587 0
3.92699 1.22587 0
3.53429 1.85181 0
3.92699 1.85181 0
3.14159 1.85181 0
3.53429 1.85181 0
3.14159 2.47871 0
3.53429 2.47871 0
3.53429 1.85181 0
3.92699 1.85181 0
3.53429 2.47871 0
3.92699 2.47871 0
3.92699 1.22587 0
4.31969 1.22587 0
3.92699 1.85181 0
4.31969 1.85181 0
4.31969 1.22587 0
4.71239 1.22587 0
4.31969 1.85181 0
4.71239 1.85181 0
3.92699 1.85181 0
4.31969 1.85181 0
3.92699 2.47871 0
4.31969 2.47871 0
4.31969 1.85181 0
4.71239 1.85181 0
4.31969 2.47871 0
4.71239 2.47871 0
4.71239 0 0
5.10509 0 0
4.71239 0.598973 0
5.10509 0.598973 0
5.10509 0 0
5.49779 0 0
5.10509 0.598973 0
5.49779 0.598973 0
4.71239 0.598973 0
5.10509 0.598973 0
4.71239 1.22587 0
5.10509 1.22587 0
5.10509 0.598973 0
5.49779 0.598973 0
5.10509 1.22587 0
5.49779 1.22587 0
5.49779 0 0
5.89049 0 0
5.49779 0.598973 0
5.89049 0.598973 0
5.89049 0 0
6.28319 0 0
5.89049 0.598973 0
6.28319 0.598973 0
5.49779 0.598973 0
5.89049 0.598973 0
5.49779 1.22587 0
5.89049 1.22587 0
5.89049 0.598973 0
6.28319 0.598973 0
5.89049 1.22587 0
6.28319 1.22587 0
4.71239 1.22587 0
5.10509 1.22587 0
4.71239 1.85181 0
5.10509 1.85181 0
5.10509 1.22587 0
5.49779 1.22587 0
5.10509 1.85181 0
5.49779 1.85181 0
4.71239 1.85181 0
5.10509 1.85181 0
4.71239 2.47871 0
5.10509 2.47871 0
5.10509 1.85181 0
5.49779 1.85181 0
5.10509 2.47871 0
5.49779 2.47871 0
5.49779 1.22587 0
5.89049 1.22587 0
5.49779 1.85181 0
5.89049 1.85181 0
5.89049 1.22587 0
6.28319 1.22587 0
5.89049 1.85181 0
6.28319 1.85181 0
5.49779 1.85181 0
5.89049 1.85181 0
5.49779 2.47871 0
5.89049 2.47871 0
5.89049 1.85181 0
6.28319 1.85181 0
5.89049 2.47871 0
6.28319 2.47871 0
3.14159 2.47871 0
3.53429 2.47871 0
3.14159 3.10535 0
3.53429 3.10535 0
3.53429 2.47871 0
3.92699 2.47871 0
3.53429 3.10535 0
3.92699 3.10535 0
3.14159 3.10535 0
3.53429 3.10535 0
3.14159 3.732 0
3.53429 3.732 0
3.53429 3.10535 0
3.92699 3.10535 0
3.53429 3.732 0
3.92699 3.732 0
3.92699 2.47871 0
4.31969 2.47871 0
3.92699 3.10535 0
4.31969 3.10535 0
4.31969 2.47871 0
4.71239 2.47871 0
4.31969 3.10535 0
4.71239 3.10535 0
3.92699 3.10535 0
4.31969 3.10535 0
3.92699 3.732 0
4.31969 3.732 0
4.31969 3.10535 0
4.71239 3.10535 0
4.31969 3.732 0
4.71239 3.732 0
3.14159 3.732 0
3.53429 3.732 0
3.14159 4.35858 0
3.53429 4.35858 0
3.53429 3.732 0
3.92699 3.732 0
3.53429 4.35858 0
3.92699 4.35858 0
3.14159 4.35858 0
3.53429 4.35858 0
3.14159 4.98508 0
3.53429 4.98508 0
3.53429 4.35858 0
3.92699 4.35858 0
3.53429 4.98508 0
3.92699 4.98508 0
3.92699 3.732 0
4.31969 3.732 0
3.92699 4.35858 0
4.31969 4.35858 0
4.31969 3.732 0
4.71239 3.732 0
4.31969 4.35858 0
4.71239 4.35858 0
3.92699 4.35858 0
4.31969 4.35858 0
3.92699 4.98508 0
4.31969 4.98508 0
4.31969 4.35858 0
4.71239 4.35858 0
4.31969 4.98508 0
4.71239 4.98508 0
4.71239 2.47871 0
5.10509 2.47871 0
4.71239 3.10535 0
5.10509 3.10535 0
5.10509 2.47871 0
5.49779 2.47871 0
5.10509 3.10535 0
5.49779 3.10535 0
4.71239 3.10535 0
5.10509 3.10535 0
4.71239 3.732 0
5.10509 3.732 0
5.10509 3.10535 0
5.49779 3.10535 0
5.10509 3.732 0
5.49779 3.732 0
5.49779 2.47871 0
5.89049 2.47871 0
5.49779 3.10535 0
5.89049 3.10535 0
5.89049 2.47871 0
6.28319 2.47871 0
5.89049 3.10535 0
6.28319 3.10535 0
5.49779 3.10535 0
5.89049 3.10535 0
5.49779 3.732 0
5.89049 3.732 0
5.89049 3.10535 0
6.28319 3.10535 0
5.89049 3.732 0
6.28319 3.732 0
4.71239 3.732 0
5.10509 3.732 0
4.71239 4.35858 0
5.10509 4.35858 0
5.10509 3.732 0
5.49779 3.732 0
5.10509 4.35858 0
5.49779 4.35858 0
4.71239 4.35858 0
5.10509 4.35858 0
4.71239 4.98508 0
5.10509 4.98508 0
5.10509 4.35858 0
5.49779 4.35858 0
5.10509 4.98508 0
5.49779 4.98508 0
5.49779 3.732 0
5.89049 3.732 0
5.49779 4.35858 0
5.89049 4.35858 0
5.89049 3.732 0
6.28319 3.732 0
5.89049 4.35858 0
6.28319 4.35858 0
5.49779 4.35858 0
5.89049 4.35858 0
5.49779 4.98508 0
5.89049 4.98508 0
5.89049 4.35858 0
6.28319 4.35858 0
5.89049 4.98508 0
6.28319 4.98508 0
0 4.98508 0
0.392699 4.98508 0
0 5.61151 0
0.392699 5.61151 0
0.392699 4.98508 0
0.785398 4.98508 0
0.392699 5.61151 0
0.785398 5.61151 0
0 5.61151 0
0.392699 5.61151 0
0 6.23786 0
0.392699 6.23786 0
0.392699 5.61151 0
0.785398 5.61151 0
0.392699 6.23786 0
0.785398 6.23786 0
0.785398 4.98508 0
1.1781 4.98508 0
0.785398 5.61151 0
1.1781 5.61151 0
1.1781 4.98508 0
1.5708 4.98508 0
1.1781 5.61151 0
1.5708 5.61151 0
0.785398 5.61151 0
1.1781 5.61151 0
0.785398 6.23786 0
1.1781 6.23786 0
1.1781 5.61151 0
1.5708 5.61151 0
1.1781 6.23786 0
1.5708 6.23786 0
0 6.23786 0
0.392699 6.23786 0
0 6.86415 0
0.392699 6.86415 0
0.392699 6.23786 0
0.785398 6.23786 0
0.392699 6.86415 0
0.785398 6.86415 0
0 6.86415 0
0.392699 6.86415 0
0 7.49045 0
0.392699 7.49045 0
0.392699 6.86415 0
0.785398 6.86415 0
0.392699 7.49045 0
0.785398 7.49045 0
0.785398 6.23786 0
1.1781 6.23786 0
0.785398 6.86415 0
1.1781 6.86415 0
1.1781 6.23786 0
1.5708 6.23786 0
1.1781 6.86415 0
1.5708 6.86415 0
0.785398 6.86415 0
1.1781 6.86415 0
[...]
POINT_DATA 5120
VECTORS uf double
0 1 0
-1.19833e-13 1 0
0 1.00249 0
-1.11848e-13 1.00249 0
-1.19833e-13 1 0
-4.89476e-15 1 0
-1.11848e-13 1.00249 0
-5.94374e-15 1.00249 0
0 1.00249 0
7.70246e-14 1.00249 0
0 1.00376 0
7.65491e-14 1.00376 0
7.70246e-14 1.00249 0
-9.27256e-15 1.00249 0
7.65491e-14 1.00376 0
-7.85406e-15 1.00376 0
-4.89476e-15 1 0
1.99498e-13 1 0
-5.94374e-15 1.00249 0
1.93752e-13 1.00249 0
1.99498e-13 1 0
4.18718e-14 1 0
1.93752e-13 1.00249 0
5.22308e-14 1.00249 0
-9.27256e-15 1.00249 0
-2.02813e-13 1.00249 0
-7.85406e-15 1.00376 0
-1.90914e-13 1.00376 0
-2.02813e-13 1.00249 0
-4.80796e-14 1.00249 0
-1.90914e-13 1.00376 0
-3.89275e-14 1.00376 0
0 1.00376 0
7.1647e-15 1.00376 0
0 1.00531 0
3.02009e-15 1.00531 0
7.1647e-15 1.00376 0
4.9948e-14 1.00376 0
3.02009e-15 1.00531 0
5.23378e-14 1.00531 0
0 1.00531 0
4.93715e-14 1.00531 0
0 1.00674 0
3.40402e-14 1.00674 0
4.93715e-14 1.00531 0
1.69777e-14 1.00531 0
3.40402e-14 1.00674 0
1.35818e-14 1.00674 0
4.9948e-14 1.00376 0
-4.49497e-17 1.00376 0
5.23378e-14 1.00531 0
7.27703e-15 1.00531 0
-4.49497e-17 1.00376 0
-7.57326e-15 1.00376 0
7.27703e-15 1.00531 0
3.11363e-15 1.00531 0
1.69777e-14 1.00531 0
2.19106e-14 1.00531 0
1.35818e-14 1.00674 0
1.79525e-14 1.00674 0
2.19106e-14 1.00531 0
-3.6341e-14 1.00531 0
1.79525e-14 1.00674 0
-3.23249e-14 1.00674 0
4.18718e-14 1 0
-2.96478e-14 1 0
5.22308e-14 1.00249 0
-2.2835e-14 1.00249 0
-2.96478e-14 1 0
-7.72741e-15 1 0
-2.2835e-14 1.00249 0
6.24551e-15 1.00249 0
-4.80796e-14 1.00249 0
3.23437e-14 1.00249 0
-3.89275e-14 1.00376 0
2.03979e-14 1.00376 0
3.23437e-14 1.00249 0
-4.1966e-15 1.00249 0
2.03979e-14 1.00376 0
7.20445e-15 1.00376 0
-7.72741e-15 1 0
-1.36307e-15 1 0
6.24551e-15 1.00249 0
6.53969e-15 1.00249 0
-1.36307e-15 1 0
-3.57506e-15 1 0
6.53969e-15 1.00249 0
3.63771e-15 1.00249 0
-4.1966e-15 1.00249 0
-1.18441e-14 1.00249 0
7.20445e-15 1.00376 0
9.57529e-15 1.00376 0
-1.18441e-14 1.00249 0
1.05559e-15 1.00249 0
9.57529e-15 1.00376 0
5.21888e-15 1.00376 0
-7.57326e-15 1.00376 0
2.52749e-14 1.00376 0
3.11363e-15 1.00531 0
2.86676e-14 1.00531 0
2.52749e-14 1.00376 0
6.35867e-15 1.00376 0
2.86676e-14 1.00531 0
-6.48563e-15 1.00531 0
-3.6341e-14 1.00531 0
-2.71188e-16 1.00531 0
-3.23249e-14 1.00674 0
-8.38889e-15 1.00674 0
-2.71188e-16 1.00531 0
2.28218e-15 1.00531 0
-8.38889e-15 1.00674 0
-2.52418e-16 1.00674 0
6.35867e-15 1.00376 0
-3.02166e-15 1.00376 0
-6.48563e-15 1.00531 0
5.68224e-15 1.00531 0
-3.02166e-15 1.00376 0
-1.73025e-15 1.00376 0
5.68224e-15 1.00531 0
4.3897e-15 1.00531 0
2.28218e-15 1.00531 0
-2.21099e-15 1.00531 0
-2.52418e-16 1.00674 0
-1.6534e-15 1.00674 0
-2.21099e-15 1.00531 0
-4.87469e-15 1.00531 0
-1.6534e-15 1.00674 0
3.60126e-15 1.00674 0
0 1.00674 0
-6.27734e-14 1.00674 0
0 1.00818 0
-7.27553e-14 1.00818 0
-6.27734e-14 1.00674 0
-6.60522e-14 1.00674 0
-7.27553e-14 1.00818 0
-5.862e-14 1.00818 0
0 1.00818 0
6.11179e-14 1.00818 0
0 1.00958 0
4.97376e-14 1.00958 0
6.11179e-14 1.00818 0
8.46084e-14 1.00818 0
4.97376e-14 1.00958 0
8.35909e-14 1.00958 0
-6.60522e-14 1.00674 0
-3.30826e-14 1.00674 0
-5.862e-14 1.00818 0
-2.8459e-14 1.00818 0
-3.30826e-14 1.00674 0
6.60801e-14 1.00674 0
-2.8459e-14 1.00818 0
5.34342e-14 1.00818 0
8.46084e-14 1.00818 0
4.29247e-14 1.00818 0
8.35909e-14 1.00958 0
4.80405e-14 1.00958 0
4.29247e-14 1.00818 0
-6.98536e-14 1.00818 0
4.80405e-14 1.00958 0
-6.0418e-14 1.00958 0
0 1.00958 0
2.19668e-14 1.00958 0
0 1.01095 0
2.21993e-14 1.01095 0
2.19668e-14 1.00958 0
-1.82473e-13 1.00958 0
2.21993e-14 1.01095 0
-1.72691e-13 1.01095 0
0 1.01095 0
-5.74363e-15 1.01095 0
0 1.01231 0
-4.31391e-15 1.01231 0
-5.74363e-15 1.01095 0
1.69242e-13 1.01095 0
-4.31391e-15 1.01231 0
1.68913e-13 1.01231 0
-1.82473e-13 1.00958 0
-3.31898e-14 1.00958 0
-1.72691e-13 1.01095 0
-2.02164e-14 1.01095 0
-3.31898e-14 1.00958 0
1.43702e-13 1.00958 0
-2.02164e-14 1.01095 0
1.40648e-13 1.01095 0
1.69242e-13 1.01095 0
2.42302e-14 1.01095 0
1.68913e-13 1.01231 0
1.86475e-14 1.01231 0
2.42302e-14 1.01095 0
-1.63888e-13 1.01095 0
1.86475e-14 1.01231 0
-1.54943e-13 1.01231 0
6.60801e-14 1.00674 0
-4.65599e-16 1.00674 0
5.34342e-14 1.00818 0
9.05997e-15 1.00818 0
-4.65599e-16 1.00674 0
-1.66952e-15 1.00674 0
9.05997e-15 1.00818 0
2.06338e-17 1.00818 0
-6.98536e-14 1.00818 0
-1.31518e-14 1.00818 0
-6.0418e-14 1.00958 0
-7.01602e-15 1.00958 0
-1.31518e-14 1.00818 0
6.43885e-16 1.00818 0
-7.01602e-15 1.00958 0
-6.06553e-15 1.00958 0
-1.66952e-15 1.00674 0
-4.61496e-16 1.00674 0
2.06338e-17 1.00818 0
3.33729e-16 1.00818 0
-4.61496e-16 1.00674 0
-9.00633e-15 1.00674 0
3.33729e-16 1.00818 0
8.73006e-15 1.00818 0
6.43885e-16 1.00818 0
-3.03379e-15 1.00818 0
-6.06553e-15 1.00958 0
6.16336e-15 1.00958 0
-3.03379e-15 1.00818 0
1.37499e-14 1.00818 0
6.16336e-15 1.00958 0
1.24739e-14 1.00958 0
1.43702e-13 1.00958 0
-2.50543e-14 1.00958 0
1.40648e-13 1.01095 0
-1.61185e-14 1.01095 0
-2.50543e-14 1.00958 0
-8.18919e-17 1.00958 0
-1.61185e-14 1.01095 0
1.26309e-15 1.01095 0
-1.63888e-13 1.01095 0
-3.04723e-14 1.01095 0
-1.54943e-13 1.01231 0
-2.72181e-14 1.01231 0
-3.04723e-14 1.01095 0
2.57485e-15 1.01095 0
-2.72181e-14 1.01231 0
3.69739e-15 1.01231 0
-8.18919e-17 1.00958 0
6.25869e-16 1.00958 0
1.26309e-15 1.01095 0
-4.64269e-16 1.01095 0
6.25869e-16 1.00958 0
-9.15854e-15 1.00958 0
-4.64269e-16 1.01095 0
-6.29738e-15 1.01095 0
2.57485e-15 1.01095 0
4.60802e-15 1.01095 0
3.69739e-15 1.01231 0
8.82418e-15 1.01231 0
4.60802e-15 1.01095 0
-1.16705e-14 1.01095 0
8.82418e-15 1.01231 0
2.27112e-15 1.01231 0
-3.57506e-15 1 0
-3.71108e-15 1 0
3.63771e-15 1.00249 0
9.35414e-15 1.00249 0
-3.71108e-15 1 0
2.63419e-15 1 0
9.35414e-15 1.00249 0
5.83728e-16 1.00249 0
1.05559e-15 1.00249 0
1.91734e-15 1.00249 0
5.21888e-15 1.00376 0
4.15407e-16 1.00376 0
1.91734e-15 1.00249 0
2.96962e-15 1.00249 0
4.15407e-16 1.00376 0
-4.31644e-15 1.00376 0
2.63419e-15 1 0
1.32056e-15 1 0
5.83728e-16 1.00249 0
1.88096e-15 1.00249 0
1.32056e-15 1 0
-2.76331e-15 1 0
1.88096e-15 1.00249 0
1.00567e-14 1.00249 0
2.96962e-15 1.00249 0
-5.95304e-15 1.00249 0
-4.31644e-15 1.00376 0
9.73083e-15 1.00376 0
-5.95304e-15 1.00249 0
4.3212e-16 1.00249 0
9.73083e-15 1.00376 0
1.47453e-16 1.00376 0
-1.73025e-15 1.00376 0
-1.54068e-15 1.00376 0
4.3897e-15 1.00531 0
7.12591e-15 1.00531 0
-1.54068e-15 1.00376 0
3.6577e-15 1.00376 0
7.12591e-15 1.00531 0
3.45368e-15 1.00531 0
-4.87469e-15 1.00531 0
2.91847e-15 1.00531 0
3.60126e-15 1.00674 0
2.19294e-15 1.00674 0
2.91847e-15 1.00531 0
7.20968e-15 1.00531 0
2.19294e-15 1.00674 0
3.3092e-15 1.00674 0
3.6577e-15 1.00376 0
1.04123e-14 1.00376 0
3.45368e-15 1.00531 0
3.93973e-15 1.00531 0
1.04123e-14 1.00376 0
5.00374e-15 1.00376 0
3.93973e-15 1.00531 0
6.10833e-16 1.00531 0
7.20968e-15 1.00531 0
-9.67646e-15 1.00531 0
3.3092e-15 1.00674 0
1.60423e-15 1.00674 0
-9.67646e-15 1.00531 0
1.25648e-14 1.00531 0
1.60423e-15 1.00674 0
5.59392e-16 1.00674 0
-2.76331e-15 1 0
-4.10682e-15 1 0
1.00567e-14 1.00249 0
1.48489e-14 1.00249 0
-4.10682e-15 1 0
-1.5962e-15 1 0
1.48489e-14 1.00249 0
1.3238e-14 1.00249 0
4.3212e-16 1.00249 0
5.88891e-16 1.00249 0
1.47453e-16 1.00376 0
2.48381e-15 1.00376 0
5.88891e-16 1.00249 0
-5.26229e-15 1.00249 0
2.48381e-15 1.00376 0
5.70745e-15 1.00376 0
-1.5962e-15 1 0
1.8182e-15 1 0
1.3238e-14 1.00249 0
9.80331e-15 1.00249 0
1.8182e-15 1 0
5.26605e-16 1 0
9.80331e-15 1.00249 0
1.27789e-14 1.00249 0
-5.26229e-15 1.00249 0
4.13017e-15 1.00249 0
5.70745e-15 1.00376 0
-1.36981e-15 1.00376 0
4.13017e-15 1.00249 0
-4.62162e-15 1.00249 0
-1.36981e-15 1.00376 0
2.40999e-15 1.00376 0
5.00374e-15 1.00376 0
-8.28072e-15 1.00376 0
6.10833e-16 1.00531 0
5.96438e-15 1.00531 0
-8.28072e-15 1.00376 0
8.66937e-15 1.00376 0
5.96438e-15 1.00531 0
9.01267e-16 1.00531 0
1.25648e-14 1.00531 0
6.79298e-15 1.00531 0
5.59392e-16 1.00674 0
3.24866e-15 1.00674 0
6.79298e-15 1.00531 0
-1.32833e-16 1.00531 0
3.24866e-15 1.00674 0
2.69529e-15 1.00674 0
8.66937e-15 1.00376 0
-6.65838e-16 1.00376 0
9.01267e-16 1.00531 0
7.82394e-15 1.00531 0
-6.65838e-16 1.00376 0
-1.93483e-15 1.00376 0
7.82394e-15 1.00531 0
7.66144e-15 1.00531 0
-1.32833e-16 1.00531 0
2.98248e-15 1.00531 0
2.69529e-15 1.00674 0
5.85656e-15 1.00674 0
2.98248e-15 1.00531 0
1.02869e-15 1.00531 0
5.85656e-15 1.00674 0
5.49724e-16 1.00674 0
-9.00633e-15 1.00674 0
7.33919e-16 1.00674 0
8.73006e-15 1.00818 0
-2.80966e-17 1.00818 0
7.33919e-16 1.00674 0
-1.3693e-14 1.00674 0
-2.80966e-17 1.00818 0
5.08158e-15 1.00818 0
1.37499e-14 1.00818 0
-1.43305e-14 1.00818 0
1.24739e-14 1.00958 0
5.84688e-15 1.00958 0
-1.43305e-14 1.00818 0
9.40857e-16 1.00818 0
5.84688e-15 1.00958 0
-1.93871e-15 1.00958 0
-1.3693e-14 1.00674 0
5.00829e-15 1.00674 0
5.08158e-15 1.00818 0
1.50806e-16 1.00818 0
5.00829e-15 1.00674 0
-6.26334e-15 1.00674 0
1.50806e-16 1.00818 0
1.79711e-15 1.00818 0
9.40857e-16 1.00818 0
-9.56032e-16 1.00818 0
-1.93871e-15 1.00958 0
3.36522e-15 1.00958 0
-9.56032e-16 1.00818 0
-6.53274e-16 1.00818 0
3.36522e-15 1.00958 0
5.03523e-15 1.00958 0
-9.15854e-15 1.00958 0
-1.02089e-15 1.00958 0
-6.29738e-15 1.01095 0
1.47248e-14 1.01095 0
-1.02089e-15 1.00958 0
-5.83695e-15 1.00958 0
1.47248e-14 1.01095 0
4.2625e-15 1.01095 0
-1.16705e-14 1.01095 0
-2.91001e-15 1.01095 0
2.27112e-15 1.01231 0
3.14169e-15 1.01231 0
-2.91001e-15 1.01095 0
1.66417e-14 1.01095 0
3.14169e-15 1.01231 0
1.983e-14 1.01231 0
-5.83695e-15 1.00958 0
-3.23856e-15 1.00958 0
4.2625e-15 1.01095 0
2.79873e-15 1.01095 0
-3.23856e-15 1.00958 0
-6.13376e-15 1.00958 0
2.79873e-15 1.01095 0
9.48895e-15 1.01095 0
1.66417e-14 1.01095 0
6.51392e-15 1.01095 0
1.983e-14 1.01231 0
1.28608e-15 1.01231 0
6.51392e-15 1.01095 0
-9.66851e-15 1.01095 0
1.28608e-15 1.01231 0
8.96946e-15 1.01231 0
-6.26334e-15 1.00674 0
-7.60484e-16 1.00674 0
1.79711e-15 1.00818 0
-1.361e-15 1.00818 0
-7.60484e-16 1.00674 0
-1.81138e-15 1.00674 0
-1.361e-15 1.00818 0
3.75589e-15 1.00818 0
-6.53274e-16 1.00818 0
-1.42271e-15 1.00818 0
5.03523e-15 1.00958 0
-9.46522e-16 1.00958 0
-1.42271e-15 1.00818 0
3.17304e-15 1.00818 0
-9.46522e-16 1.00958 0
-4.32719e-15 1.00958 0
-1.81138e-15 1.00674 0
1.83753e-15 1.00674 0
3.75589e-15 1.00818 0
3.06756e-15 1.00818 0
1.83753e-15 1.00674 0
5.89101e-15 1.00674 0
3.06756e-15 1.00818 0
-3.19378e-15 1.00818 0
3.17304e-15 1.00818 0
-3.68901e-15 1.00818 0
-4.32719e-15 1.00958 0
5.25313e-15 1.00958 0
-3.68901e-15 1.00818 0
4.2245e-15 1.00818 0
5.25313e-15 1.00958 0
-1.84027e-16 1.00958 0
-6.13376e-15 1.00958 0
3.91054e-15 1.00958 0
9.48895e-15 1.01095 0
-2.87488e-15 1.01095 0
3.91054e-15 1.00958 0
-6.67119e-15 1.00958 0
-2.87488e-15 1.01095 0
9.62456e-15 1.01095 0
-9.66851e-15 1.01095 0
5.35745e-15 1.01095 0
8.96946e-15 1.01231 0
-6.07868e-16 1.01231 0
5.35745e-15 1.01095 0
-3.30362e-15 1.01095 0
-6.07868e-16 1.01231 0
6.14026e-15 1.01231 0
-6.67119e-15 1.00958 0
-7.9141e-16 1.00958 0
9.62456e-15 1.01095 0
2.59608e-15 1.01095 0
-7.9141e-16 1.00958 0
1.93099e-15 1.00958 0
2.59608e-15 1.01095 0
6.03684e-15 1.01095 0
-3.30362e-15 1.01095 0
-1.77064e-15 1.01095 0
6.14026e-15 1.01231 0
-2.63953e-15 1.01231 0
-1.77064e-15 1.01095 0
-2.92154e-15 1.01095 0
-2.63953e-15 1.01231 0
1.85553e-15 1.01231 0
0 1.01231 0
-2.57683e-14 1.01231 0
0 1.01366 0
-1.94739e-14 1.01366 0
-2.57683e-14 1.01231 0
-1.19337e-13 1.01231 0
-1.94739e-14 1.01366 0
-1.10091e-13 1.01366 0
0 1.01366 0
1.79331e-14 1.01366 0
0 1.01499 0
1.36467e-14 1.01499 0
1.79331e-14 1.01366 0
1.06549e-13 1.01366 0
1.36467e-14 1.01499 0
1.09723e-13 1.01499 0
-1.19337e-13 1.01231 0
3.31813e-14 1.01231 0
-1.10091e-13 1.01366 0
3.35008e-14 1.01366 0
3.31813e-14 1.01231 0
1.12191e-13 1.01231 0
3.35008e-14 1.01366 0
1.13104e-13 1.01366 0
1.06549e-13 1.01366 0
-7.23282e-14 1.01366 0
1.09723e-13 1.01499 0
-6.58395e-14 1.01499 0
-7.23282e-14 1.01366 0
-4.94747e-14 1.01366 0
-6.58395e-14 1.01499 0
-5.16835e-14 1.01499 0
0 1.01499 0
-2.98396e-14 1.01499 0
0 1.01634 0
-2.95696e-14 1.01634 0
-2.98396e-14 1.01499 0
-9.02257e-14 1.01499 0
-2.95696e-14 1.01634 0
-8.6774e-14 1.01634 0
0 1.01634 0
9.18155e-15 1.01634 0
0 1.0177 0
1.20338e-14 1.0177 0
9.18155e-15 1.01634 0
3.39756e-14 1.01634 0
1.20338e-14 1.0177 0
3.80201e-14 1.0177 0
-9.02257e-14 1.01499 0
2.14271e-14 1.01499 0
-8.6774e-14 1.01634 0
1.7109e-14 1.01634 0
2.14271e-14 1.01499 0
1.23382e-14 1.01499 0
1.7109e-14 1.01634 0
1.3357e-14 1.01634 0
3.39756e-14 1.01634 0
-1.41983e-14 1.01634 0
3.80201e-14 1.0177 0
-6.65009e-15 1.0177 0
-1.41983e-14 1.01634 0
-3.62677e-15 1.01634 0
-6.65009e-15 1.0177 0
-4.52591e-15 1.0177 0
1.12191e-13 1.01231 0
2.51385e-14 1.01231 0
1.13104e-13 1.01366 0
3.79308e-14 1.01366 0
2.51385e-14 1.01231 0
-3.44124e-15 1.01231 0
3.79308e-14 1.01366 0
5.7467e-15 1.01366 0
-4.94747e-14 1.01366 0
1.45871e-14 1.01366 0
-5.16835e-14 1.01499 0
1.48963e-14 1.01499 0
1.45871e-14 1.01366 0
-5.59862e-15 1.01366 0
1.48963e-14 1.01499 0
1.33618e-15 1.01499 0
-3.44124e-15 1.01231 0
-5.49137e-15 1.01231 0
5.7467e-15 1.01366 0
-1.60783e-16 1.01366 0
-5.49137e-15 1.01231 0
7.02182e-15 1.01231 0
-1.60783e-16 1.01366 0
1.3211e-14 1.01366 0
-5.59862e-15 1.01366 0
-1.07181e-15 1.01366 0
1.33618e-15 1.01499 0
5.23006e-15 1.01499 0
-1.07181e-15 1.01366 0
-5.77515e-15 1.01366 0
5.23006e-15 1.01499 0
-1.80582e-15 1.01499 0
1.23382e-14 1.01499 0
-1.46988e-14 1.01499 0
1.3357e-14 1.01634 0
-1.53549e-14 1.01634 0
-1.46988e-14 1.01499 0
-1.9776e-16 1.01499 0
-1.53549e-14 1.01634 0
2.84287e-15 1.01634 0
-3.62677e-15 1.01634 0
1.82143e-15 1.01634 0
-4.52591e-15 1.0177 0
1.66195e-15 1.0177 0
1.82143e-15 1.01634 0
-5.66203e-16 1.01634 0
1.66195e-15 1.0177 0
2.93301e-15 1.0177 0
-1.9776e-16 1.01499 0
-2.40997e-15 1.01499 0
2.84287e-15 1.01634 0
4.15144e-15 1.01634 0
-2.40997e-15 1.01499 0
-5.28637e-15 1.01499 0
4.15144e-15 1.01634 0
5.864e-15 1.01634 0
-5.66203e-16 1.01634 0
-4.98406e-15 1.01634 0
2.93301e-15 1.0177 0
4.32205e-15 1.0177 0
-4.98406e-15 1.01634 0
-6.07411e-15 1.01634 0
4.32205e-15 1.0177 0
5.54448e-15 1.0177 0
0 1.0177 0
3.54479e-14 1.0177 0
0 1.01907 0
3.78266e-14 1.01907 0
3.54479e-14 1.0177 0
-2.21824e-14 1.0177 0
3.78266e-14 1.01907 0
-1.9108e-14 1.01907 0
0 1.01907 0
-3.53073e-14 1.01907 0
0 1.0204 0
-2.65571e-14 1.0204 0
-3.53073e-14 1.01907 0
4.07765e-14 1.01907 0
-2.65571e-14 1.0204 0
3.77616e-14 1.0204 0
-2.21824e-14 1.0177 0
2.00706e-15 1.0177 0
-1.9108e-14 1.01907 0
5.68992e-15 1.01907 0
2.00706e-15 1.0177 0
-1.55518e-14 1.0177 0
5.68992e-15 1.01907 0
-7.79119e-15 1.01907 0
4.07765e-14 1.01907 0
-3.33309e-15 1.01907 0
3.77616e-14 1.0204 0
3.94339e-15 1.0204 0
-3.33309e-15 1.01907 0
-6.43893e-16 1.01907 0
3.94339e-15 1.0204 0
1.71024e-15 1.0204 0
0 1.0204 0
1.35994e-14 1.0204 0
0 1.02156 0
1.06461e-14 1.02156 0
1.35994e-14 1.0204 0
-2.39508e-14 1.0204 0
1.06461e-14 1.02156 0
-2.57983e-14 1.02156 0
0 1.02156 0
-2.21927e-15 1.02156 0
0 1.02208 0
-1.13469e-14 1.02208 0
-2.21927e-15 1.02156 0
-3.5193e-15 1.02156 0
-1.13469e-14 1.02208 0
1.34375e-14 1.02208 0
-2.39508e-14 1.0204 0
1.07412e-15 1.0204 0
-2.57983e-14 1.02156 0
-2.92827e-16 1.02156 0
1.07412e-15 1.0204 0
2.64015e-15 1.0204 0
-2.92827e-16 1.02156 0
2.94448e-15 1.02156 0
-3.5193e-15 1.02156 0
-3.04473e-15 1.02156 0
1.34375e-14 1.02208 0
-1.821e-14 1.02208 0
-3.04473e-15 1.02156 0
-3.82756e-16 1.02156 0
-1.821e-14 1.02208 0
1.99106e-14 1.02208 0
-1.55518e-14 1.0177 0
-8.29009e-15 1.0177 0
-7.79119e-15 1.01907 0
3.81488e-16 1.01907 0
-8.29009e-15 1.0177 0
-1.21591e-15 1.0177 0
3.81488e-16 1.01907 0
1.65717e-15 1.01907 0
-6.43893e-16 1.01907 0
-3.40799e-15 1.01907 0
1.71024e-15 1.0204 0
2.72436e-15 1.0204 0
-3.40799e-15 1.01907 0
-3.16029e-15 1.01907 0
2.72436e-15 1.0204 0
2.13979e-15 1.0204 0
-1.21591e-15 1.0177 0
8.33389e-16 1.0177 0
1.65717e-15 1.01907 0
8.39213e-16 1.01907 0
8.33389e-16 1.0177 0
-5.09207e-16 1.0177 0
8.39213e-16 1.01907 0
3.4775e-15 1.01907 0
-3.16029e-15 1.01907 0
-3.23625e-15 1.01907 0
2.13979e-15 1.0204 0
6.80395e-16 1.0204 0
-3.23625e-15 1.01907 0
-4.04682e-15 1.01907 0
6.80395e-16 1.0204 0
2.1866e-15 1.0204 0
2.64015e-15 1.0204 0
-2.8525e-15 1.0204 0
2.94448e-15 1.02156 0
3.0657e-15 1.02156 0
-2.8525e-15 1.0204 0
-2.62354e-16 1.0204 0
3.0657e-15 1.02156 0
7.12756e-16 1.02156 0
-3.82756e-16 1.02156 0
-3.98599e-15 1.02156 0
1.99106e-14 1.02208 0
2.09282e-15 1.02208 0
-3.98599e-15 1.02156 0
-3.62096e-16 1.02156 0
2.09282e-15 1.02208 0
-6.29983e-16 1.02208 0
-2.62354e-16 1.0204 0
-3.01207e-15 1.0204 0
7.12756e-16 1.02156 0
1.63392e-15 1.02156 0
-3.01207e-15 1.0204 0
-5.34416e-16 1.0204 0
1.63392e-15 1.02156 0
1.88115e-15 1.02156 0
-3.62096e-16 1.02156 0
-5.00127e-16 1.02156 0
-6.29983e-16 1.02208 0
6.9107e-15 1.02208 0
-5.00127e-16 1.02156 0
1.61282e-15 1.02156 0
6.9107e-15 1.02208 0
-2.10146e-14 1.02208 0
7.02182e-15 1.01231 0
4.43904e-15 1.01231 0
1.3211e-14 1.01366 0
1.04101e-14 1.01366 0
4.43904e-15 1.01231 0
-1.35546e-14 1.01231 0
1.04101e-14 1.01366 0
-1.20079e-14 1.01366 0
-5.77515e-15 1.01366 0
-6.3865e-15 1.01366 0
-1.80582e-15 1.01499 0
4.86577e-15 1.01499 0
-6.3865e-15 1.01366 0
1.59338e-15 1.01366 0
4.86577e-15 1.01499 0
4.4646e-16 1.01499 0
-1.35546e-14 1.01231 0
-4.79926e-15 1.01231 0
-1.20079e-14 1.01366 0
3.25648e-15 1.01366 0
-4.79926e-15 1.01231 0
-6.66688e-15 1.01231 0
3.25648e-15 1.01366 0
6.85629e-15 1.01366 0
1.59338e-15 1.01366 0
-2.73517e-15 1.01366 0
4.4646e-16 1.01499 0
4.04761e-15 1.01499 0
-2.73517e-15 1.01366 0
-3.69661e-15 1.01366 0
4.04761e-15 1.01499 0
4.13438e-15 1.01499 0
-5.28637e-15 1.01499 0
-2.18461e-15 1.01499 0
5.864e-15 1.01634 0
3.99958e-15 1.01634 0
-2.18461e-15 1.01499 0
-6.98577e-15 1.01499 0
3.99958e-15 1.01634 0
4.62358e-15 1.01634 0
-6.07411e-15 1.01634 0
-6.27586e-15 1.01634 0
5.54448e-15 1.0177 0
4.38764e-15 1.0177 0
-6.27586e-15 1.01634 0
-4.13755e-16 1.01634 0
4.38764e-15 1.0177 0
3.33012e-17 1.0177 0
-6.98577e-15 1.01499 0
-2.1657e-15 1.01499 0
4.62358e-15 1.01634 0
2.72083e-15 1.01634 0
-2.1657e-15 1.01499 0
-2.38877e-15 1.01499 0
2.72083e-15 1.01634 0
8.07501e-16 1.01634 0
-4.13755e-16 1.01634 0
-3.78217e-15 1.01634 0
3.33012e-17 1.0177 0
3.35089e-15 1.0177 0
-3.78217e-15 1.01634 0
1.90193e-15 1.01634 0
3.35089e-15 1.0177 0
1.11914e-15 1.0177 0
-6.66688e-15 1.01231 0
-6.48382e-16 1.01231 0
6.85629e-15 1.01366 0
2.64798e-16 1.01366 0
-6.48382e-16 1.01231 0
-3.78737e-15 1.01231 0
2.64798e-16 1.01366 0
8.13377e-15 1.01366 0
-3.69661e-15 1.01366 0
3.65051e-16 1.01366 0
4.13438e-15 1.01499 0
2.13848e-15 1.01499 0
3.65051e-16 1.01366 0
-1.19067e-15 1.01366 0
2.13848e-15 1.01499 0
9.76952e-16 1.01499 0
-3.78737e-15 1.01231 0
-4.52782e-15 1.01231 0
8.13377e-15 1.01366 0
4.35634e-15 1.01366 0
-4.52782e-15 1.01231 0
-1.16366e-16 1.01231 0
4.35634e-15 1.01366 0
1.62692e-15 1.01366 0
-1.19067e-15 1.01366 0
2.86138e-15 1.01366 0
9.76952e-16 1.01499 0
4.92279e-16 1.01499 0
2.86138e-15 1.01366 0
-3.37068e-15 1.01366 0
4.92279e-16 1.01499 0
4.73e-15 1.01499 0
-2.38877e-15 1.01499 0
-4.22554e-15 1.01499 0
8.07501e-16 1.01634 0
1.26364e-15 1.01634 0
-4.22554e-15 1.01499 0
1.16978e-15 1.01499 0
1.26364e-15 1.01634 0
3.1235e-15 1.01634 0
1.90193e-15 1.01634 0
-7.79414e-16 1.01634 0
1.11914e-15 1.0177 0
3.84171e-15 1.0177 0
-7.79414e-16 1.01634 0
-6.23834e-15 1.01634 0
3.84171e-15 1.0177 0
2.19979e-15 1.0177 0
1.16978e-15 1.01499 0
2.135e-15 1.01499 0
3.1235e-15 1.01634 0
-7.55758e-18 1.01634 0
2.135e-15 1.01499 0
-1.15596e-15 1.01499 0
-7.55758e-18 1.01634 0
4.35052e-15 1.01634 0
-6.23834e-15 1.01634 0
-9.92741e-16 1.01634 0
2.19979e-15 1.0177 0
7.44076e-17 1.0177 0
-9.92741e-16 1.01634 0
6.23261e-15 1.01634 0
7.44076e-17 1.0177 0
-4.83345e-15 1.0177 0
-5.09207e-16 1.0177 0
-4.93478e-15 1.0177 0
3.4775e-15 1.01907 0
1.66086e-15 1.01907 0
-4.93478e-15 1.0177 0
-4.17165e-15 1.0177 0
1.66086e-15 1.01907 0
3.10822e-15 1.01907 0
-4.04682e-15 1.01907 0
4.11929e-16 1.01907 0
2.1866e-15 1.0204 0
6.4511e-16 1.0204 0
4.11929e-16 1.01907 0
-1.87879e-15 1.01907 0
6.4511e-16 1.0204 0
1.98268e-15 1.0204 0
-4.17165e-15 1.0177 0
2.26663e-15 1.0177 0
3.10822e-15 1.01907 0
3.61103e-16 1.01907 0
2.26663e-15 1.0177 0
-5.80877e-15 1.0177 0
3.61103e-16 1.01907 0
4.60414e-15 1.01907 0
-1.87879e-15 1.01907 0