# vtk DataFile Version 3.0
#This file was generated by the deal.II library on 2018/10/11 at 23:36:27
ASCII
DATASET UNSTRUCTURED_GRID

POINTS 5120 double
0 0 0
0.392699 0 0
0 0.622721 0
0.392699 0.622721 0
0.392699 0 0
0.785398 0 0
0.392699 0.622721 0
0.785398 0.622721 0
0 0.622721 0
0.392699 0.622721 0
0 1.24786 0
0.392699 1.24786 0
0.392699 0.622721 0
0.785398 0.622721 0
0.392699 1.24786 0
0.785398 1.24786 0
0.785398 0 0
1.1781 0 0
0.785398 0.622721 0
1.1781 0.622721 0
1.1781 0 0
1.5708 0 0
1.1781 0.622721 0
1.5708 0.622721 0
0.785398 0.622721 0
1.1781 0.622721 0
0.785398 1.24786 0
1.1781 1.24786 0
1.1781 0.622721 0
1.5708 0.622721 0
1.1781 1.24786 0
1.5708 1.24786 0
0 1.24786 0
0.392699 1.24786 0
0 1.87289 0
0.392699 1.87289 0
0.392699 1.24786 0
0.785398 1.24786 0
0.392699 1.87289 0
0.785398 1.87289 0
0 1.87289 0
0.392699 1.87289 0
0 2.49799 0
0.392699 2.49799 0
0.392699 1.87289 0
0.785398 1.87289 0
0.392699 2.49799 0
0.785398 2.49799 0
0.785398 1.24786 0
1.1781 1.24786 0
0.785398 1.87289 0
1.1781 1.87289 0
1.1781 1.24786 0
1.5708 1.24786 0
1.1781 1.87289 0
1.5708 1.87289 0
0.785398 1.87289 0
1.1781 1.87289 0
0.785398 2.49799 0
1.1781 2.49799 0
1.1781 1.87289 0
1.5708 1.87289 0
1.1781 2.49799 0
1.5708 2.49799 0
1.5708 0 0
1.9635 0 0
1.5708 0.622721 0
1.9635 0.622721 0
1.9635 0 0
2.35619 0 0
1.9635 0.622721 0
2.35619 0.622721 0
1.5708 0.622721 0
1.9635 0.622721 0
1.5708 1.24786 0
1.9635 1.24786 0
1.9635 0.622721 0
2.35619 0.622721 0
1.9635 1.24786 0
2.35619 1.24786 0
2.35619 0 0
2.74889 0 0
2.35619 0.622721 0
2.74889 0.622721 0
2.74889 0 0
3.14159 0 0
2.74889 0.622721 0
3.14159 0.622721 0
2.35619 0.622721 0
2.74889 0.622721 0
2.35619 1.24786 0
2.74889 1.24786 0
2.74889 0.622721 0
3.14159 0.622721 0
2.74889 1.24786 0
3.14159 1.24786 0
1.5708 1.24786 0
1.9635 1.24786 0
1.5708 1.87289 0
1.9635 1.87289 0
1.9635 1.24786 0
2.35619 1.24786 0
1.9635 1.87289 0
2.35619 1.87289 0
1.5708 1.87289 0
1.9635 1.87289 0
1.5708 2.49799 0
1.9635 2.49799 0
1.9635 1.87289 0
2.35619 1.87289 0
1.9635 2.49799 0
2.35619 2.49799 0
2.35619 1.24786 0
2.74889 1.24786 0
2.35619 1.87289 0
2.74889 1.87289 0
2.74889 1.24786 0
3.14159 1.24786 0
2.74889 1.87289 0
3.14159 1.87289 0
2.35619 1.87289 0
2.74889 1.87289 0
2.35619 2.49799 0
2.74889 2.49799 0
2.74889 1.87289 0
3.14159 1.87289 0
2.74889 2.49799 0
3.14159 2.49799 0
0 2.49799 0
0.392699 2.49799 0
0 3.12307 0
0.392699 3.12307 0
0.392699 2.49799 0
0.785398 2.49799 0
0.392699 3.12307 0
0.785398 3.12307 0
0 3.12307 0
0.392699 3.12307 0
0 3.74815 0
0.392699 3.74815 0
0.392699 3.12307 0
0.785398 3.12307 0
0.392699 3.74815 0
0.785398 3.74815 0
0.785398 2.49799 0
1.1781 2.49799 0
0.785398 3.12307 0
1.1781 3.12307 0
1.1781 2.49799 0
1.5708 2.49799 0
1.1781 3.12307 0
1.5708 3.12307 0
0.785398 3.12307 0
1.1781 3.12307 0
0.785398 3.74815 0
1.1781 3.74815 0
1.1781 3.12307 0
1.5708 3.12307 0
1.1781 3.74815 0
1.5708 3.74815 0
0 3.74815 0
0.392699 3.74815 0
0 4.37322 0
0.392699 4.37322 0
0.392699 3.74815 0
0.785398 3.74815 0
0.392699 4.37322 0
0.785398 4.37322 0
0 4.37322 0
0.392699 4.37322 0
0 4.99829 0
0.392699 4.99829 0
0.392699 4.37322 0
0.785398 4.37322 0
0.392699 4.99829 0
0.785398 4.99829 0
0.785398 3.74815 0
1.1781 3.74815 0
0.785398 4.37322 0
1.1781 4.37322 0
1.1781 3.74815 0
1.5708 3.74815 0
1.1781 4.37322 0
1.5708 4.37322 0
0.785398 4.37322 0
1.1781 4.37322 0
0.785398 4.99829 0
1.1781 4.99829 0
1.1781 4.37322 0
1.5708 4.37322 0
1.1781 4.99829 0
1.5708 4.99829 0
1.5708 2.49799 0
1.9635 2.49799 0
1.5708 3.12307 0
1.9635 3.12307 0
1.9635 2.49799 0
2.35619 2.49799 0
1.9635 3.12307 0
2.35619 3.12307 0
1.5708 3.12307 0
1.9635 3.12307 0
1.5708 3.74815 0
1.9635 3.74815 0
1.9635 3.12307 0
2.35619 3.12307 0
1.9635 3.74815 0
2.35619 3.74815 0
2.35619 2.49799 0
2.74889 2.49799 0
2.35619 3.12307 0
2.74889 3.12307 0
2.74889 2.49799 0
3.14159 2.49799 0
2.74889 3.12307 0
3.14159 3.12307 0
2.35619 3.12307 0
2.74889 3.12307 0
2.35619 3.74815 0
2.74889 3.74815 0
2.74889 3.12307 0
3.14159 3.12307 0
2.74889 3.74815 0
3.14159 3.74815 0
1.5708 3.74815 0
1.9635 3.74815 0
1.5708 4.37322 0
1.9635 4.37322 0
1.9635 3.74815 0
2.35619 3.74815 0
1.9635 4.37322 0
2.35619 4.37322 0
1.5708 4.37322 0
1.9635 4.37322 0
1.5708 4.99829 0
1.9635 4.99829 0
1.9635 4.37322 0
2.35619 4.37322 0
1.9635 4.99829 0
2.35619 4.99829 0
2.35619 3.74815 0
2.74889 3.74815 0
2.35619 4.37322 0
2.74889 4.37322 0
2.74889 3.74815 0
3.14159 3.74815 0
2.74889 4.37322 0
3.14159 4.37322 0
2.35619 4.37322 0
2.74889 4.37322 0
2.35619 4.99829 0
2.74889 4.99829 0
2.74889 4.37322 0
3.14159 4.37322 0
2.74889 4.99829 0
3.14159 4.99829 0
3.14159 0 0
3.53429 0 0
3.14159 0.622721 0
3.53429 0.622721 0
3.53429 0 0
3.92699 0 0
3.53429 0.622721 0
3.92699 0.622721 0
3.14159 0.622721 0
3.53429 0.622721 0
3.14159 1.24786 0
3.53429 1.24786 0
3.53429 0.622721 0
3.92699 0.622721 0
3.53429 1.24786 0
3.92699 1.24786 0
3.92699 0 0
4.31969 0 0
3.92699 0.622721 0
4.31969 0.622721 0
4.31969 0 0
4.71239 0 0
4.31969 0.622721 0
4.71239 0.622721 0
3.92699 0.622721 0
4.31969 0.622721 0
3.92699 1.24786 0
4.31969 1.24786 0
4.31969 0.622721 0
4.71239 0.622721 0
4.31969 1.24786 0
4.71239 1.24786 0
3.14159 1.24786 0
3.53429 1.24786 0
3.14159 1.87289 0
3.53429 1.87289 0
3.53429 1.24786 0
3.92699 1.24786 0
3.53429 1.87289 0
3.92699 1.87289 0
3.14159 1.87289 0
3.53429 1.87289 0
3.14159 2.49799 0
3.53429 2.49799 0
3.53429 1.87289 0
3.92699 1.87289 0
3.53429 2.49799 0
3.92699 2.49799 0
3.92699 1.24786 0
4.31969 1.24786 0
3.92699 1.87289 0
4.31969 1.87289 0
4.31969 1.24786 0
4.71239 1.24786 0
4.31969 1.87289 0
4.71239 1.87289 0
3.92699 1.87289 0
4.31969 1.87289 0
3.92699 2.49799 0
4.31969 2.49799 0
4.31969 1.87289 0
4.71239 1.87289 0
4.31969 2.49799 0
4.71239 2.49799 0
4.71239 0 0
5.10509 0 0
4.71239 0.622721 0
5.10509 0.622721 0
5.10509 0 0
5.49779 0 0
5.10509 0.622721 0
5.49779 0.622721 0
4.71239 0.622721 0
5.10509 0.622721 0
4.71239 1.24786 0
5.10509 1.24786 0
5.10509 0.622721 0
5.49779 0.622721 0
5.10509 1.24786 0
5.49779 1.24786 0
5.49779 0 0
5.89049 0 0
5.49779 0.622721 0
5.89049 0.622721 0
5.89049 0 0
6.28319 0 0
5.89049 0.622721 0
6.28319 0.622721 0
5.49779 0.622721 0
5.89049 0.622721 0
5.49779 1.24786 0
5.89049 1.24786 0
5.89049 0.622721 0
6.28319 0.622721 0
5.89049 1.24786 0
6.28319 1.24786 0
4.71239 1.24786 0
5.10509 1.24786 0
4.71239 1.87289 0
5.10509 1.87289 0
5.10509 1.24786 0
5.49779 1.24786 0
5.10509 1.87289 0
5.49779 1.87289 0
4.71239 1.87289 0
5.10509 1.87289 0
4.71239 2.49799 0
5.10509 2.49799 0
5.10509 1.87289 0
5.49779 1.87289 0
5.10509 2.49799 0
5.49779 2.49799 0
5.49779 1.24786 0
5.89049 1.24786 0
5.49779 1.87289 0
5.89049 1.87289 0
5.89049 1.24786 0
6.28319 1.24786 0
5.89049 1.87289 0
6.28319 1.87289 0
5.49779 1.87289 0
5.89049 1.87289 0
5.49779 2.49799 0
5.89049 2.49799 0
5.89049 1.87289 0
6.28319 1.87289 0
5.89049 2.49799 0
6.28319 2.49799 0
3.14159 2.49799 0
3.53429 2.49799 0
3.14159 3.12307 0
3.53429 3.12307 0
3.53429 2.49799 0
3.92699 2.49799 0
3.53429 3.12307 0
3.92699 3.12307 0
3.14159 3.12307 0
3.53429 3.12307 0
3.14159 3.74815 0
3.53429 3.74815 0
3.53429 3.12307 0
3.92699 3.12307 0
3.53429 3.74815 0
3.92699 3.74815 0
3.92699 2.49799 0
4.31969 2.49799 0
3.92699 3.12307 0
4.31969 3.12307 0
4.31969 2.49799 0
4.71239 2.49799 0
4.31969 3.12307 0
4.71239 3.12307 0
3.92699 3.12307 0
4.31969 3.12307 0
3.92699 3.74815 0
4.31969 3.74815 0
4.31969 3.12307 0
4.71239 3.12307 0
4.31969 3.74815 0
4.71239 3.74815 0
3.14159 3.74815 0
3.53429 3.74815 0
3.14159 4.37322 0
3.53429 4.37322 0
3.53429 3.74815 0
3.92699 3.74815 0
3.53429 4.37322 0
3.92699 4.37322 0
3.14159 4.37322 0
3.53429 4.37322 0
3.14159 4.99829 0
3.53429 4.99829 0
3.53429 4.37322 0
3.92699 4.37322 0
3.53429 4.99829 0
3.92699 4.99829 0
3.92699 3.74815 0
4.31969 3.74815 0
3.92699 4.37322 0
4.31969 4.37322 0
4.31969 3.74815 0
4.71239 3.74815 0
4.31969 4.37322 0
4.71239 4.37322 0
3.92699 4.37322 0
4.31969 4.37322 0
3.92699 4.99829 0
4.31969 4.99829 0
4.31969 4.37322 0
4.71239 4.37322 0
4.31969 4.99829 0
4.71239 4.99829 0
4.71239 2.49799 0
5.10509 2.49799 0
4.71239 3.12307 0
5.10509 3.12307 0
5.10509 2.49799 0
5.49779 2.49799 0
5.10509 3.12307 0
5.49779 3.12307 0
4.71239 3.12307 0
5.10509 3.12307 0
4.71239 3.74815 0
5.10509 3.74815 0
5.10509 3.12307 0
5.49779 3.12307 0
5.10509 3.74815 0
5.49779 3.74815 0
5.49779 2.49799 0
5.89049 2.49799 0
5.49779 3.12307 0
5.89049 3.12307 0
5.89049 2.49799 0
6.28319 2.49799 0
5.89049 3.12307 0
6.28319 3.12307 0
5.49779 3.12307 0
5.89049 3.12307 0
5.49779 3.74815 0
5.89049 3.74815 0
5.89049 3.12307 0
6.28319 3.12307 0
5.89049 3.74815 0
6.28319 3.74815 0
4.71239 3.74815 0
5.10509 3.74815 0
4.71239 4.37322 0
5.10509 4.37322 0
5.10509 3.74815 0
5.49779 3.74815 0
5.10509 4.37322 0
5.49779 4.37322 0
4.71239 4.37322 0
5.10509 4.37322 0
4.71239 4.99829 0
5.10509 4.99829 0
5.10509 4.37322 0
5.49779 4.37322 0
5.10509 4.99829 0
5.49779 4.99829 0
5.49779 3.74815 0
5.89049 3.74815 0
5.49779 4.37322 0
5.89049 4.37322 0
5.89049 3.74815 0
6.28319 3.74815 0
5.89049 4.37322 0
6.28319 4.37322 0
5.49779 4.37322 0
5.89049 4.37322 0
5.49779 4.99829 0
5.89049 4.99829 0
5.89049 4.37322 0
6.28319 4.37322 0
5.89049 4.99829 0
6.28319 4.99829 0
0 4.99829 0
0.392699 4.99829 0
0 5.62334 0
0.392699 5.62334 0
0.392699 4.99829 0
0.785398 4.99829 0
0.392699 5.62334 0
0.785398 5.62334 0
0 5.62334 0
0.392699 5.62334 0
0 6.24839 0
0.392699 6.24839 0
0.392699 5.62334 0
0.785398 5.62334 0
0.392699 6.24839 0
0.785398 6.24839 0
0.785398 4.99829 0
1.1781 4.99829 0
0.785398 5.62334 0
1.1781 5.62334 0
1.1781 4.99829 0
1.5708 4.99829 0
1.1781 5.62334 0
1.5708 5.62334 0
0.785398 5.62334 0
1.1781 5.62334 0
0.785398 6.24839 0
1.1781 6.24839 0
1.1781 5.62334 0
1.5708 5.62334 0
1.1781 6.24839 0
1.5708 6.24839 0
0 6.24839 0
0.392699 6.24839 0
0 6.87342 0
0.392699 6.87342 0
0.392699 6.24839 0
0.785398 6.24839 0
0.392699 6.87342 0
0.785398 6.87342 0
0 6.87342 0
0.392699 6.87342 0
0 7.49846 0
0.392699 7.49846 0
0.392699 6.87342 0
0.785398 6.87342 0
0.392699 7.49846 0
0.785398 7.49846 0
0.785398 6.24839 0
1.1781 6.24839 0
0.785398 6.87342 0
[...]
POINT_DATA 5120
VECTORS uf double
0 1 0
-7.59487e-15 1 0
0 1.00163 0
-1.79018e-15 1.00163 0
-7.59487e-15 1 0
-1.02599e-14 1 0
-1.79018e-15 1.00163 0
1.39527e-14 1.00163 0
0 1.00163 0
-3.3193e-15 1.00163 0
0 1.00249 0
1.35571e-14 1.00249 0
-3.3193e-15 1.00163 0
-1.21633e-14 1.00163 0
1.35571e-14 1.00249 0
1.40622e-14 1.00249 0
-1.02599e-14 1 0
-2.82723e-14 1 0
1.39527e-14 1.00163 0
3.79221e-14 1.00163 0
-2.82723e-14 1 0
-2.80074e-14 1 0
3.79221e-14 1.00163 0
3.32707e-14 1.00163 0
-1.21633e-14 1.00163 0
-2.85048e-14 1.00163 0
1.40622e-14 1.00249 0
2.92377e-14 1.00249 0
-2.85048e-14 1.00163 0
-2.86962e-14 1.00163 0
2.92377e-14 1.00249 0
3.39173e-14 1.00249 0
0 1.00249 0
1.91362e-15 1.00249 0
0 1.00353 0
-9.12323e-16 1.00353 0
1.91362e-15 1.00249 0
-9.50582e-15 1.00249 0
-9.12323e-16 1.00353 0
8.29803e-15 1.00353 0
0 1.00353 0
-6.64293e-15 1.00353 0
0 1.00451 0
1.50147e-15 1.00451 0
-6.64293e-15 1.00353 0
-1.35434e-14 1.00353 0
1.50147e-15 1.00451 0
1.70862e-14 1.00451 0
-9.50582e-15 1.00249 0
-3.31787e-14 1.00249 0
8.29803e-15 1.00353 0
2.99748e-14 1.00353 0
-3.31787e-14 1.00249 0
-3.04567e-14 1.00249 0
2.99748e-14 1.00353 0
2.768e-14 1.00353 0
-1.35434e-14 1.00353 0
-8.83523e-15 1.00353 0
1.70862e-14 1.00451 0
1.28642e-14 1.00451 0
-8.83523e-15 1.00353 0
-1.39142e-14 1.00353 0
1.28642e-14 1.00451 0
8.61082e-15 1.00451 0
-2.80074e-14 1 0
-2.05417e-14 1 0
3.32707e-14 1.00163 0
1.88894e-14 1.00163 0
-2.05417e-14 1 0
-2.58809e-14 1 0
1.88894e-14 1.00163 0
2.54555e-14 1.00163 0
-2.86962e-14 1.00163 0
-1.52535e-14 1.00163 0
3.39173e-14 1.00249 0
1.65018e-14 1.00249 0
-1.52535e-14 1.00163 0
-2.64822e-14 1.00163 0
1.65018e-14 1.00249 0
3.24543e-14 1.00249 0
-2.58809e-14 1 0
-1.93781e-14 1 0
2.54555e-14 1.00163 0
1.8388e-14 1.00163 0
-1.93781e-14 1 0
-1.44394e-14 1 0
1.8388e-14 1.00163 0
2.16655e-14 1.00163 0
-2.64822e-14 1.00163 0
-1.77141e-14 1.00163 0
3.24543e-14 1.00249 0
2.40447e-14 1.00249 0
-1.77141e-14 1.00163 0
-2.54867e-14 1.00163 0
2.40447e-14 1.00249 0
2.66081e-14 1.00249 0
-3.04567e-14 1.00249 0
-8.05361e-15 1.00249 0
2.768e-14 1.00353 0
1.89565e-14 1.00353 0
-8.05361e-15 1.00249 0
-1.39144e-14 1.00249 0
1.89565e-14 1.00353 0
1.75039e-14 1.00353 0
-1.39142e-14 1.00353 0
-2.37024e-14 1.00353 0
8.61082e-15 1.00451 0
1.56514e-14 1.00451 0
-2.37024e-14 1.00353 0
-1.77751e-14 1.00353 0
1.56514e-14 1.00451 0
1.78102e-14 1.00451 0
-1.39144e-14 1.00249 0
-1.80708e-14 1.00249 0
1.75039e-14 1.00353 0
2.46622e-14 1.00353 0
-1.80708e-14 1.00249 0
-2.57928e-14 1.00249 0
2.46622e-14 1.00353 0
3.28432e-14 1.00353 0
-1.77751e-14 1.00353 0
-2.10683e-14 1.00353 0
1.78102e-14 1.00451 0
1.96213e-14 1.00451 0
-2.10683e-14 1.00353 0
-2.06173e-14 1.00353 0
1.96213e-14 1.00451 0
1.91359e-14 1.00451 0
0 1.00451 0
7.15572e-15 1.00451 0
0 1.00549 0
-3.08489e-15 1.00549 0
7.15572e-15 1.00451 0
-1.16008e-14 1.00451 0
-3.08489e-15 1.00549 0
6.44677e-15 1.00549 0
0 1.00549 0
1.32455e-15 1.00549 0
0 1.00645 0
-4.80018e-15 1.00645 0
1.32455e-15 1.00549 0
-1.55218e-14 1.00549 0
-4.80018e-15 1.00645 0
1.98279e-14 1.00645 0
-1.16008e-14 1.00451 0
-2.18337e-14 1.00451 0
6.44677e-15 1.00549 0
2.00389e-14 1.00549 0
-2.18337e-14 1.00451 0
-3.82087e-15 1.00451 0
2.00389e-14 1.00549 0
1.07031e-14 1.00549 0
-1.55218e-14 1.00549 0
-2.64792e-14 1.00549 0
1.98279e-14 1.00645 0
2.49346e-14 1.00645 0
-2.64792e-14 1.00549 0
-1.68852e-14 1.00549 0
2.49346e-14 1.00645 0
1.2732e-14 1.00645 0
0 1.00645 0
2.6418e-16 1.00645 0
0 1.00741 0
2.56833e-15 1.00741 0
2.6418e-16 1.00645 0
-1.52293e-14 1.00645 0
2.56833e-15 1.00741 0
4.7755e-15 1.00741 0
0 1.00741 0
-5.97312e-16 1.00741 0
0 1.00836 0
3.11901e-15 1.00836 0
-5.97312e-16 1.00741 0
-4.86558e-15 1.00741 0
3.11901e-15 1.00836 0
1.79454e-14 1.00836 0
-1.52293e-14 1.00645 0
-2.01134e-14 1.00645 0
4.7755e-15 1.00741 0
8.63924e-15 1.00741 0
-2.01134e-14 1.00645 0
-1.91787e-14 1.00645 0
8.63924e-15 1.00741 0
1.74605e-14 1.00741 0
-4.86558e-15 1.00741 0
6.38155e-16 1.00741 0
1.79454e-14 1.00836 0
7.58409e-15 1.00836 0
6.38155e-16 1.00741 0
-5.97258e-15 1.00741 0
7.58409e-15 1.00836 0
9.21629e-15 1.00836 0
-3.82087e-15 1.00451 0
-1.29238e-14 1.00451 0
1.07031e-14 1.00549 0
1.66916e-14 1.00549 0
-1.29238e-14 1.00451 0
-2.11557e-14 1.00451 0
1.66916e-14 1.00549 0
2.11843e-14 1.00549 0
-1.68852e-14 1.00549 0
-1.97768e-14 1.00549 0
1.2732e-14 1.00645 0
1.64675e-14 1.00645 0
-1.97768e-14 1.00549 0
-1.14883e-14 1.00549 0
1.64675e-14 1.00645 0
1.45261e-14 1.00645 0
-2.11557e-14 1.00451 0
-1.98276e-14 1.00451 0
2.11843e-14 1.00549 0
2.29612e-14 1.00549 0
-1.98276e-14 1.00451 0
-3.21368e-14 1.00451 0
2.29612e-14 1.00549 0
3.88938e-14 1.00549 0
-1.14883e-14 1.00549 0
-1.32041e-14 1.00549 0
1.45261e-14 1.00645 0
8.97424e-15 1.00645 0
-1.32041e-14 1.00549 0
-3.28275e-14 1.00549 0
8.97424e-15 1.00645 0
2.90844e-14 1.00645 0
-1.91787e-14 1.00645 0
-1.08309e-14 1.00645 0
1.74605e-14 1.00741 0
1.56541e-14 1.00741 0
-1.08309e-14 1.00645 0
-2.588e-14 1.00645 0
1.56541e-14 1.00741 0
2.38109e-14 1.00741 0
-5.97258e-15 1.00741 0
-1.78384e-14 1.00741 0
9.21629e-15 1.00836 0
1.34924e-14 1.00836 0
-1.78384e-14 1.00741 0
-1.75928e-14 1.00741 0
1.34924e-14 1.00836 0
2.16862e-14 1.00836 0
-2.588e-14 1.00645 0
-1.23621e-14 1.00645 0
2.38109e-14 1.00741 0
1.65426e-14 1.00741 0
-1.23621e-14 1.00645 0
-2.36954e-14 1.00645 0
1.65426e-14 1.00741 0
2.36833e-14 1.00741 0
-1.75928e-14 1.00741 0
-1.62671e-14 1.00741 0
2.16862e-14 1.00836 0
1.64038e-14 1.00836 0
-1.62671e-14 1.00741 0
-2.51017e-14 1.00741 0
1.64038e-14 1.00836 0
2.49175e-14 1.00836 0
-1.44394e-14 1 0
-2.43467e-14 1 0
2.16655e-14 1.00163 0
2.4627e-14 1.00163 0
-2.43467e-14 1 0
-2.02702e-14 1 0
2.4627e-14 1.00163 0
2.46852e-14 1.00163 0
-2.54867e-14 1.00163 0
-9.23622e-15 1.00163 0
2.66081e-14 1.00249 0
1.50895e-14 1.00249 0
-9.23622e-15 1.00163 0
-1.33286e-14 1.00163 0
1.50895e-14 1.00249 0
1.23996e-14 1.00249 0
-2.02702e-14 1 0
-2.10863e-14 1 0
2.46852e-14 1.00163 0
2.10647e-14 1.00163 0
-2.10863e-14 1 0
-3.245e-14 1 0
2.10647e-14 1.00163 0
3.97058e-14 1.00163 0
-1.33286e-14 1.00163 0
-1.5945e-14 1.00163 0
1.23996e-14 1.00249 0
1.94225e-14 1.00249 0
-1.5945e-14 1.00163 0
-2.17276e-14 1.00163 0
1.94225e-14 1.00249 0
1.81753e-14 1.00249 0
-2.57928e-14 1.00249 0
-1.77832e-14 1.00249 0
3.28432e-14 1.00353 0
2.52841e-14 1.00353 0
-1.77832e-14 1.00249 0
-7.66886e-15 1.00249 0
2.52841e-14 1.00353 0
1.66371e-14 1.00353 0
-2.06173e-14 1.00353 0
-2.17302e-14 1.00353 0
1.91359e-14 1.00451 0
2.86335e-14 1.00451 0
-2.17302e-14 1.00353 0
-1.64779e-14 1.00353 0
2.86335e-14 1.00451 0
1.92156e-14 1.00451 0
-7.66886e-15 1.00249 0
-1.23948e-14 1.00249 0
1.66371e-14 1.00353 0
1.79577e-14 1.00353 0
-1.23948e-14 1.00249 0
-1.36747e-14 1.00249 0
1.79577e-14 1.00353 0
2.16334e-14 1.00353 0
-1.64779e-14 1.00353 0
-1.22876e-14 1.00353 0
1.92156e-14 1.00451 0
2.19017e-14 1.00451 0
-1.22876e-14 1.00353 0
-1.17998e-14 1.00353 0
2.19017e-14 1.00451 0
1.9705e-14 1.00451 0
-3.245e-14 1 0
-2.87977e-14 1 0
3.97058e-14 1.00163 0
4.02678e-14 1.00163 0
-2.87977e-14 1 0
-2.47627e-14 1 0
4.02678e-14 1.00163 0
3.55003e-14 1.00163 0
-2.17276e-14 1.00163 0
-3.15916e-14 1.00163 0
1.81753e-14 1.00249 0
2.74707e-14 1.00249 0
-3.15916e-14 1.00163 0
-3.13421e-14 1.00163 0
2.74707e-14 1.00249 0
2.61526e-14 1.00249 0
-2.47627e-14 1 0
-1.32724e-14 1 0
3.55003e-14 1.00163 0
1.50028e-14 1.00163 0
-1.32724e-14 1 0
-2.40601e-14 1 0
1.50028e-14 1.00163 0
3.23686e-14 1.00163 0
-3.13421e-14 1.00163 0
-1.48986e-14 1.00163 0
2.61526e-14 1.00249 0
2.46156e-14 1.00249 0
-1.48986e-14 1.00163 0
-1.89087e-14 1.00163 0
2.46156e-14 1.00249 0
1.9712e-14 1.00249 0
-1.36747e-14 1.00249 0
-1.31506e-14 1.00249 0
2.16334e-14 1.00353 0
2.08159e-14 1.00353 0
-1.31506e-14 1.00249 0
-5.81293e-15 1.00249 0
2.08159e-14 1.00353 0
1.05548e-14 1.00353 0
-1.17998e-14 1.00353 0
-1.793e-14 1.00353 0
1.9705e-14 1.00451 0
2.19149e-14 1.00451 0
-1.793e-14 1.00353 0
-1.58378e-14 1.00353 0
2.19149e-14 1.00451 0
1.84019e-14 1.00451 0
-5.81293e-15 1.00249 0
-3.11442e-14 1.00249 0
1.05548e-14 1.00353 0
3.05833e-14 1.00353 0
-3.11442e-14 1.00249 0
-2.10739e-14 1.00249 0
3.05833e-14 1.00353 0
2.25075e-14 1.00353 0
-1.58378e-14 1.00353 0
-1.69014e-14 1.00353 0
1.84019e-14 1.00451 0
2.14263e-14 1.00451 0
-1.69014e-14 1.00353 0
-7.37876e-15 1.00353 0
2.14263e-14 1.00451 0
1.29277e-14 1.00451 0
-3.21368e-14 1.00451 0
-3.47376e-14 1.00451 0
3.88938e-14 1.00549 0
3.22368e-14 1.00549 0
-3.47376e-14 1.00451 0
-1.68767e-14 1.00451 0
3.22368e-14 1.00549 0
1.85424e-14 1.00549 0
-3.28275e-14 1.00549 0
-1.88641e-14 1.00549 0
2.90844e-14 1.00645 0
2.182e-14 1.00645 0
-1.88641e-14 1.00549 0
-1.51128e-14 1.00549 0
2.182e-14 1.00645 0
2.048e-14 1.00645 0
-1.68767e-14 1.00451 0
-2.51417e-14 1.00451 0
1.85424e-14 1.00549 0
2.90562e-14 1.00549 0
-2.51417e-14 1.00451 0
-1.89721e-14 1.00451 0
2.90562e-14 1.00549 0
2.0127e-14 1.00549 0
-1.51128e-14 1.00549 0
-2.51131e-14 1.00549 0
2.048e-14 1.00645 0
2.11485e-14 1.00645 0
-2.51131e-14 1.00549 0
-1.79763e-14 1.00549 0
2.11485e-14 1.00645 0
1.96716e-14 1.00645 0
-2.36954e-14 1.00645 0
-2.00219e-14 1.00645 0
2.36833e-14 1.00741 0
1.9451e-14 1.00741 0
-2.00219e-14 1.00645 0
-2.28043e-14 1.00645 0
1.9451e-14 1.00741 0
1.85721e-14 1.00741 0
-2.51017e-14 1.00741 0
-2.01848e-14 1.00741 0
2.49175e-14 1.00836 0
2.47242e-14 1.00836 0
-2.01848e-14 1.00741 0
-1.76037e-14 1.00741 0
2.47242e-14 1.00836 0
2.15605e-14 1.00836 0
-2.28043e-14 1.00645 0
-2.23286e-14 1.00645 0
1.85721e-14 1.00741 0
1.96018e-14 1.00741 0
-2.23286e-14 1.00645 0
-1.8816e-14 1.00645 0
1.96018e-14 1.00741 0
1.62733e-14 1.00741 0
-1.76037e-14 1.00741 0
-1.36058e-14 1.00741 0
2.15605e-14 1.00836 0
1.85448e-14 1.00836 0
-1.36058e-14 1.00741 0
-9.9618e-15 1.00741 0
1.85448e-14 1.00836 0
1.49324e-14 1.00836 0
-1.89721e-14 1.00451 0
-1.69809e-14 1.00451 0
2.0127e-14 1.00549 0
1.72909e-14 1.00549 0
-1.69809e-14 1.00451 0
-1.2095e-14 1.00451 0
1.72909e-14 1.00549 0
1.9176e-14 1.00549 0
-1.79763e-14 1.00549 0
-6.55722e-15 1.00549 0
1.96716e-14 1.00645 0
3.46272e-15 1.00645 0
-6.55722e-15 1.00549 0
-1.31465e-14 1.00549 0
3.46272e-15 1.00645 0
1.21076e-14 1.00645 0
-1.2095e-14 1.00451 0
-8.97677e-15 1.00451 0
1.9176e-14 1.00549 0
9.96221e-15 1.00549 0
-8.97677e-15 1.00451 0
-8.00438e-15 1.00451 0
9.96221e-15 1.00549 0
1.5571e-14 1.00549 0
-1.31465e-14 1.00549 0
-1.42815e-14 1.00549 0
1.21076e-14 1.00645 0
1.95039e-14 1.00645 0
-1.42815e-14 1.00549 0
-2.31332e-14 1.00549 0
1.95039e-14 1.00645 0
2.08699e-14 1.00645 0
-1.8816e-14 1.00645 0
-5.19389e-15 1.00645 0
1.62733e-14 1.00741 0
8.1929e-15 1.00741 0
-5.19389e-15 1.00645 0
-1.78601e-14 1.00645 0
8.1929e-15 1.00741 0
1.62958e-14 1.00741 0
-9.9618e-15 1.00741 0
-1.01993e-14 1.00741 0
1.49324e-14 1.00836 0
1.34849e-14 1.00836 0
-1.01993e-14 1.00741 0
-1.90646e-14 1.00741 0
1.34849e-14 1.00836 0
2.27071e-14 1.00836 0
-1.78601e-14 1.00645 0
-1.44859e-14 1.00645 0
1.62958e-14 1.00741 0
1.27239e-14 1.00741 0
-1.44859e-14 1.00645 0
-1.43414e-14 1.00645 0
1.27239e-14 1.00741 0
1.23488e-14 1.00741 0
-1.90646e-14 1.00741 0
-1.45945e-14 1.00741 0
2.27071e-14 1.00836 0
1.58284e-14 1.00836 0
-1.45945e-14 1.00741 0
-5.58259e-15 1.00741 0
1.58284e-14 1.00836 0
6.9967e-15 1.00836 0
0 1.00836 0
-1.13102e-14 1.00836 0
0 1.00931 0
7.31039e-15 1.00931 0
-1.13102e-14 1.00836 0
-1.51091e-14 1.00836 0
7.31039e-15 1.00931 0
1.11988e-14 1.00931 0
0 1.00931 0
-2.35766e-15 1.00931 0
0 1.01026 0
6.18235e-15 1.01026 0
-2.35766e-15 1.00931 0
-1.01627e-14 1.00931 0
6.18235e-15 1.01026 0
1.38454e-14 1.01026 0
-1.51091e-14 1.00836 0
-1.02306e-14 1.00836 0
1.11988e-14 1.00931 0
1.06096e-14 1.00931 0
-1.02306e-14 1.00836 0
-6.94852e-15 1.00836 0
1.06096e-14 1.00931 0
9.14397e-15 1.00931 0
-1.01627e-14 1.00931 0
-1.74393e-14 1.00931 0
1.38454e-14 1.01026 0
1.88356e-14 1.01026 0
-1.74393e-14 1.00931 0
-1.49034e-14 1.00931 0
1.88356e-14 1.01026 0
1.87683e-14 1.01026 0
0 1.01026 0
-5.21592e-15 1.01026 0
0 1.01124 0
4.71596e-15 1.01124 0
-5.21592e-15 1.01026 0
-7.86703e-15 1.01026 0
4.71596e-15 1.01124 0
5.57646e-15 1.01124 0
0 1.01124 0
-6.24682e-15 1.01124 0
0 1.01225 0
4.23133e-15 1.01225 0
-6.24682e-15 1.01124 0
-4.16412e-15 1.01124 0
4.23133e-15 1.01225 0
3.02523e-16 1.01225 0
-7.86703e-15 1.01026 0
-1.22681e-14 1.01026 0
5.57646e-15 1.01124 0
1.19476e-14 1.01124 0
-1.22681e-14 1.01026 0
-1.35913e-14 1.01026 0
1.19476e-14 1.01124 0
9.96163e-15 1.01124 0
-4.16412e-15 1.01124 0
-1.1284e-14 1.01124 0
3.02523e-16 1.01225 0
9.58305e-15 1.01225 0
-1.1284e-14 1.01124 0
-9.94071e-15 1.01124 0
9.58305e-15 1.01225 0
1.01055e-14 1.01225 0
-6.94852e-15 1.00836 0
-1.34022e-14 1.00836 0
9.14397e-15 1.00931 0
1.47209e-14 1.00931 0
-1.34022e-14 1.00836 0
-1.90384e-14 1.00836 0
1.47209e-14 1.00931 0
2.01809e-14 1.00931 0
-1.49034e-14 1.00931 0
-1.50587e-14 1.00931 0
1.87683e-14 1.01026 0
2.22665e-14 1.01026 0
-1.50587e-14 1.00931 0
-1.62719e-14 1.00931 0
2.22665e-14 1.01026 0
1.68464e-14 1.01026 0
-1.90384e-14 1.00836 0
-1.56827e-14 1.00836 0
2.01809e-14 1.00931 0
1.90375e-14 1.00931 0
-1.56827e-14 1.00836 0
-1.23281e-14 1.00836 0
1.90375e-14 1.00931 0
1.21947e-14 1.00931 0
-1.62719e-14 1.00931 0
-1.88578e-14 1.00931 0
1.68464e-14 1.01026 0
1.91931e-14 1.01026 0
-1.88578e-14 1.00931 0
-1.69619e-14 1.00931 0
1.91931e-14 1.01026 0
2.02293e-14 1.01026 0
-1.35913e-14 1.01026 0
-1.84604e-14 1.01026 0
9.96163e-15 1.01124 0
1.62592e-14 1.01124 0
-1.84604e-14 1.01026 0
-1.81801e-14 1.01026 0
1.62592e-14 1.01124 0
1.69225e-14 1.01124 0
-9.94071e-15 1.01124 0
-1.64201e-14 1.01124 0
1.01055e-14 1.01225 0
1.59145e-14 1.01225 0
-1.64201e-14 1.01124 0
-1.78556e-14 1.01124 0
1.59145e-14 1.01225 0
1.93701e-14 1.01225 0
-1.81801e-14 1.01026 0
-1.88068e-14 1.01026 0
1.69225e-14 1.01124 0
1.99289e-14 1.01124 0
-1.88068e-14 1.01026 0
-1.84453e-14 1.01026 0
1.99289e-14 1.01124 0
1.98426e-14 1.01124 0
-1.78556e-14 1.01124 0
-2.20099e-14 1.01124 0
1.93701e-14 1.01225 0
1.97784e-14 1.01225 0
-2.20099e-14 1.01124 0
-2.0778e-14 1.01124 0
1.97784e-14 1.01225 0
1.96125e-14 1.01225 0
0 1.01225 0
-3.46929e-15 1.01225 0
0 1.01328 0
2.47606e-15 1.01328 0
-3.46929e-15 1.01225 0
-5.22974e-16 1.01225 0
2.47606e-15 1.01328 0
-1.40884e-15 1.01328 0
0 1.01328 0
-4.96521e-15 1.01328 0
0 1.01429 0
6.84127e-15 1.01429 0
-4.96521e-15 1.01328 0
1.93236e-17 1.01328 0
6.84127e-15 1.01429 0
4.54476e-15 1.01429 0
-5.22974e-16 1.01225 0
-1.45172e-14 1.01225 0
-1.40884e-15 1.01328 0
1.35448e-14 1.01328 0
-1.45172e-14 1.01225 0
-1.41544e-14 1.01225 0
1.35448e-14 1.01328 0
1.27799e-14 1.01328 0
1.93236e-17 1.01328 0
-4.17549e-15 1.01328 0
4.54476e-15 1.01429 0
2.81831e-15 1.01429 0
-4.17549e-15 1.01328 0
-7.45644e-15 1.01328 0
2.81831e-15 1.01429 0
3.89647e-15 1.01429 0
0 1.01429 0
-1.26753e-15 1.01429 0
0 1.01514 0
1.29817e-16 1.01514 0
-1.26753e-15 1.01429 0
-3.73862e-15 1.01429 0
1.29817e-16 1.01514 0
9.95953e-16 1.01514 0
0 1.01514 0
-1.5931e-15 1.01514 0
0 1.01536 0
2.48311e-15 1.01536 0
-1.5931e-15 1.01514 0
-5.96625e-15 1.01514 0
2.48311e-15 1.01536 0
3.50046e-15 1.01536 0
-3.73862e-15 1.01429 0
-6.83998e-15 1.01429 0
9.95953e-16 1.01514 0
4.99706e-15 1.01514 0
-6.83998e-15 1.01429 0
-5.6982e-15 1.01429 0
4.99706e-15 1.01514 0
4.37008e-15 1.01514 0
-5.96625e-15 1.01514 0
-9.90476e-15 1.01514 0
3.50046e-15 1.01536 0
7.98027e-15 1.01536 0
-9.90476e-15 1.01514 0
-6.63796e-15 1.01514 0
7.98027e-15 1.01536 0
-5.31443e-17 1.01536 0
-1.41544e-14 1.01225 0
-1.25359e-14 1.01225 0
1.27799e-14 1.01328 0
1.18534e-14 1.01328 0
-1.25359e-14 1.01225 0
-1.18856e-14 1.01225 0
1.18534e-14 1.01328 0
1.12022e-14 1.01328 0
-7.45644e-15 1.01328 0
-1.01615e-14 1.01328 0
3.89647e-15 1.01429 0
8.85457e-15 1.01429 0
-1.01615e-14 1.01328 0
-1.26724e-14 1.01328 0
8.85457e-15 1.01429 0
1.22533e-14 1.01429 0
-1.18856e-14 1.01225 0
-1.07641e-14 1.01225 0
1.12022e-14 1.01328 0
1.27667e-14 1.01328 0
-1.07641e-14 1.01225 0
-1.20283e-14 1.01225 0
1.27667e-14 1.01328 0
1.09402e-14 1.01328 0
-1.26724e-14 1.01328 0
-1.36829e-14 1.01328 0
1.22533e-14 1.01429 0
1.01235e-14 1.01429 0
-1.36829e-14 1.01328 0
-9.33485e-15 1.01328 0
1.01235e-14 1.01429 0
8.72231e-15 1.01429 0
-5.6982e-15 1.01429 0
-9.86455e-15 1.01429 0
4.37008e-15 1.01514 0
7.60959e-15 1.01514 0
-9.86455e-15 1.01429 0
-9.0877e-15 1.01429 0
7.60959e-15 1.01514 0
7.68914e-15 1.01514 0
-6.63796e-15 1.01514 0
-7.54349e-15 1.01514 0
-5.31443e-17 1.01536 0
7.87105e-15 1.01536 0
-7.54349e-15 1.01514 0
-5.84292e-15 1.01514 0
7.87105e-15 1.01536 0
8.6097e-15 1.01536 0
-9.0877e-15 1.01429 0
-8.81078e-15 1.01429 0
7.68914e-15 1.01514 0
8.13158e-15 1.01514 0
-8.81078e-15 1.01429 0
-9.10979e-15 1.01429 0
8.13158e-15 1.01514 0
8.4437e-15 1.01514 0
-5.84292e-15 1.01514 0
-3.59127e-15 1.01514 0
8.6097e-15 1.01536 0
8.03948e-15 1.01536 0
-3.59127e-15 1.01514 0
-5.57596e-15 1.01514 0
8.03948e-15 1.01536 0
6.76772e-15 1.01536 0
-1.23281e-14 1.00836 0
-2.22041e-14 1.00836 0
1.21947e-14 1.00931 0
2.47877e-14 1.00931 0
-2.22041e-14 1.00836 0
-1.362e-14 1.00836 0
2.47877e-14 1.00931 0
1.22686e-14 1.00931 0
-1.69619e-14 1.00931 0
-2.6654e-14 1.00931 0
2.02293e-14 1.01026 0
2.86799e-14 1.01026 0
-2.6654e-14 1.00931 0
-1.17521e-14 1.00931 0
2.86799e-14 1.01026 0
1.68304e-14 1.01026 0
-1.362e-14 1.00836 0
-1.323e-14 1.00836 0
1.22686e-14 1.00931 0
1.39976e-14 1.00931 0
-1.323e-14 1.00836 0
-1.84735e-14 1.00836 0
1.39976e-14 1.00931 0
1.95129e-14 1.00931 0
-1.17521e-14 1.00931 0
-1.36699e-14 1.00931 0
1.68304e-14 1.01026 0
1.6028e-14 1.01026 0
-1.36699e-14 1.00931 0
-1.25389e-14 1.00931 0
1.6028e-14 1.01026 0
1.80111e-14 1.01026 0
-1.84453e-14 1.01026 0
-2.71994e-14 1.01026 0
1.98426e-14 1.01124 0
2.76332e-14 1.01124 0
-2.71994e-14 1.01026 0
-2.13311e-14 1.01026 0
2.76332e-14 1.01124 0
2.3818e-14 1.01124 0
-2.0778e-14 1.01124 0
-2.51225e-14 1.01124 0
1.96125e-14 1.01225 0
2.15723e-14 1.01225 0
-2.51225e-14 1.01124 0
-1.36307e-14 1.01124 0
2.15723e-14 1.01225 0
9.74982e-15 1.01225 0
-2.13311e-14 1.01026 0
-1.4915e-14 1.01026 0
2.3818e-14 1.01124 0
1.79039e-14 1.01124 0
-1.4915e-14 1.01026 0
-1.75091e-14 1.01026 0
1.79039e-14 1.01124 0
1.72166e-14 1.01124 0
-1.36307e-14 1.01124 0
-1.45866e-14 1.01124 0
9.74982e-15 1.01225 0
1.38495e-14 1.01225 0
-1.45866e-14 1.01124 0
-1.00695e-14 1.01124 0
1.38495e-14 1.01225 0
1.05302e-14 1.01225 0
-1.84735e-14 1.00836 0
-1.46228e-14 1.00836 0
1.95129e-14 1.00931 0
1.56092e-14 1.00931 0
-1.46228e-14 1.00836 0
-1.87776e-14 1.00836 0
1.56092e-14 1.00931 0
2.27717e-14 1.00931 0
-1.25389e-14 1.00931 0
-6.81578e-15 1.00931 0
1.80111e-14 1.01026 0
1.16249e-14 1.01026 0
-6.81578e-15 1.00931 0
-6.85805e-15 1.00931 0
1.16249e-14 1.01026 0
7.09526e-15 1.01026 0
-1.87776e-14 1.00836 0
-9.00284e-15 1.00836 0
2.27717e-14 1.00931 0
1.49747e-14 1.00931 0
-9.00284e-15 1.00836 0
-5.22044e-15 1.00836 0
1.49747e-14 1.00931 0
1.33179e-14 1.00931 0
-6.85805e-15 1.00931 0
-8.29303e-15 1.00931 0
7.09526e-15 1.01026 0
1.12783e-14 1.01026 0
-8.29303e-15 1.00931 0
-1.35871e-14 1.00931 0
1.12783e-14 1.01026 0
1.28305e-14 1.01026 0
-1.75091e-14 1.01026 0
-1.27731e-14 1.01026 0
1.72166e-14 1.01124 0
1.01196e-14 1.01124 0
-1.27731e-14 1.01026 0
-1.10825e-14 1.01026 0
1.01196e-14 1.01124 0
1.36304e-14 1.01124 0
-1.00695e-14 1.01124 0
-7.06014e-15 1.01124 0
1.05302e-14 1.01225 0
7.18646e-15 1.01225 0
-7.06014e-15 1.01124 0
-1.97628e-14 1.01124 0
7.18646e-15 1.01225 0
1.76157e-14 1.01225 0
-1.10825e-14 1.01026 0
-1.42449e-14 1.01026 0
1.36304e-14 1.01124 0
1.57257e-14 1.01124 0
-1.42449e-14 1.01026 0
-1.29714e-14 1.01026 0
1.57257e-14 1.01124 0
1.67891e-14 1.01124 0
-1.97628e-14 1.01124 0
-9.43975e-15 1.01124 0
1.76157e-14 1.01225 0
6.26062e-15 1.01225 0
-9.43975e-15 1.01124 0
-1.06129e-14 1.01124 0
6.26062e-15 1.01225 0
1.08462e-14 1.01225 0
-1.20283e-14 1.01225 0
-1.40855e-14 1.01225 0
1.09402e-14 1.01328 0
1.42057e-14 1.01328 0
-1.40855e-14 1.01225 0
-1.00466e-14 1.01225 0
1.42057e-14 1.01328 0
1.05031e-14 1.01328 0
-9.33485e-15 1.01328 0
-1.18237e-14 1.01328 0
8.72231e-15 1.01429 0
1.10385e-14 1.01429 0
-1.18237e-14 1.01328 0
-6.79501e-15 1.01328 0
1.10385e-14 1.01429 0
5.96067e-15 1.01429 0
-1.00466e-14 1.01225 0
-9.70649e-15 1.01225 0