# vtk DataFile Version 3.0
#This file was generated by the deal.II library on 2018/10/12 at 0:22:52
ASCII
DATASET UNSTRUCTURED_GRID

POINTS 5120 double
0 0 0
0.392699 0 0
0 0.611554 0
0.392699 0.611554 0
0.392699 0 0
0.785398 0 0
0.392699 0.611554 0
0.785398 0.611554 0
0 0.611554 0
0.392699 0.611554 0
0 1.23757 0
0.392699 1.23757 0
0.392699 0.611554 0
0.785398 0.611554 0
0.392699 1.23757 0
0.785398 1.23757 0
0.785398 0 0
1.1781 0 0
0.785398 0.611554 0
1.1781 0.611554 0
1.1781 0 0
1.5708 0 0
1.1781 0.611554 0
1.5708 0.611554 0
0.785398 0.611554 0
1.1781 0.611554 0
0.785398 1.23757 0
1.1781 1.23757 0
1.1781 0.611554 0
1.5708 0.611554 0
1.1781 1.23757 0
1.5708 1.23757 0
0 1.23757 0
0.392699 1.23757 0
0 1.86302 0
0.392699 1.86302 0
0.392699 1.23757 0
0.785398 1.23757 0
0.392699 1.86302 0
0.785398 1.86302 0
0 1.86302 0
0.392699 1.86302 0
0 2.48893 0
0.392699 2.48893 0
0.392699 1.86302 0
0.785398 1.86302 0
0.392699 2.48893 0
0.785398 2.48893 0
0.785398 1.23757 0
1.1781 1.23757 0
0.785398 1.86302 0
1.1781 1.86302 0
1.1781 1.23757 0
1.5708 1.23757 0
1.1781 1.86302 0
1.5708 1.86302 0
0.785398 1.86302 0
1.1781 1.86302 0
0.785398 2.48893 0
1.1781 2.48893 0
1.1781 1.86302 0
1.5708 1.86302 0
1.1781 2.48893 0
1.5708 2.48893 0
1.5708 0 0
1.9635 0 0
1.5708 0.611554 0
1.9635 0.611554 0
1.9635 0 0
2.35619 0 0
1.9635 0.611554 0
2.35619 0.611554 0
1.5708 0.611554 0
1.9635 0.611554 0
1.5708 1.23757 0
1.9635 1.23757 0
1.9635 0.611554 0
2.35619 0.611554 0
1.9635 1.23757 0
2.35619 1.23757 0
2.35619 0 0
2.74889 0 0
2.35619 0.611554 0
2.74889 0.611554 0
2.74889 0 0
3.14159 0 0
2.74889 0.611554 0
3.14159 0.611554 0
2.35619 0.611554 0
2.74889 0.611554 0
2.35619 1.23757 0
2.74889 1.23757 0
2.74889 0.611554 0
3.14159 0.611554 0
2.74889 1.23757 0
3.14159 1.23757 0
1.5708 1.23757 0
1.9635 1.23757 0
1.5708 1.86302 0
1.9635 1.86302 0
1.9635 1.23757 0
2.35619 1.23757 0
1.9635 1.86302 0
2.35619 1.86302 0
1.5708 1.86302 0
1.9635 1.86302 0
1.5708 2.48893 0
1.9635 2.48893 0
1.9635 1.86302 0
2.35619 1.86302 0
1.9635 2.48893 0
2.35619 2.48893 0
2.35619 1.23757 0
2.74889 1.23757 0
2.35619 1.86302 0
2.74889 1.86302 0
2.74889 1.23757 0
3.14159 1.23757 0
2.74889 1.86302 0
3.14159 1.86302 0
2.35619 1.86302 0
2.74889 1.86302 0
2.35619 2.48893 0
2.74889 2.48893 0
2.74889 1.86302 0
3.14159 1.86302 0
2.74889 2.48893 0
3.14159 2.48893 0
0 2.48893 0
0.392699 2.48893 0
0 3.11472 0
0.392699 3.11472 0
0.392699 2.48893 0
0.785398 2.48893 0
0.392699 3.11472 0
0.785398 3.11472 0
0 3.11472 0
0.392699 3.11472 0
0 3.74052 0
0.392699 3.74052 0
0.392699 3.11472 0
0.785398 3.11472 0
0.392699 3.74052 0
0.785398 3.74052 0
0.785398 2.48893 0
1.1781 2.48893 0
0.785398 3.11472 0
1.1781 3.11472 0
1.1781 2.48893 0
1.5708 2.48893 0
1.1781 3.11472 0
1.5708 3.11472 0
0.785398 3.11472 0
1.1781 3.11472 0
0.785398 3.74052 0
1.1781 3.74052 0
1.1781 3.11472 0
1.5708 3.11472 0
1.1781 3.74052 0
1.5708 3.74052 0
0 3.74052 0
0.392699 3.74052 0
0 4.36627 0
0.392699 4.36627 0
0.392699 3.74052 0
0.785398 3.74052 0
0.392699 4.36627 0
0.785398 4.36627 0
0 4.36627 0
0.392699 4.36627 0
0 4.99199 0
0.392699 4.99199 0
0.392699 4.36627 0
0.785398 4.36627 0
0.392699 4.99199 0
0.785398 4.99199 0
0.785398 3.74052 0
1.1781 3.74052 0
0.785398 4.36627 0
1.1781 4.36627 0
1.1781 3.74052 0
1.5708 3.74052 0
1.1781 4.36627 0
1.5708 4.36627 0
0.785398 4.36627 0
1.1781 4.36627 0
0.785398 4.99199 0
1.1781 4.99199 0
1.1781 4.36627 0
1.5708 4.36627 0
1.1781 4.99199 0
1.5708 4.99199 0
1.5708 2.48893 0
1.9635 2.48893 0
1.5708 3.11472 0
1.9635 3.11472 0
1.9635 2.48893 0
2.35619 2.48893 0
1.9635 3.11472 0
2.35619 3.11472 0
1.5708 3.11472 0
1.9635 3.11472 0
1.5708 3.74052 0
1.9635 3.74052 0
1.9635 3.11472 0
2.35619 3.11472 0
1.9635 3.74052 0
2.35619 3.74052 0
2.35619 2.48893 0
2.74889 2.48893 0
2.35619 3.11472 0
2.74889 3.11472 0
2.74889 2.48893 0
3.14159 2.48893 0
2.74889 3.11472 0
3.14159 3.11472 0
2.35619 3.11472 0
2.74889 3.11472 0
2.35619 3.74052 0
2.74889 3.74052 0
2.74889 3.11472 0
3.14159 3.11472 0
2.74889 3.74052 0
3.14159 3.74052 0
1.5708 3.74052 0
1.9635 3.74052 0
1.5708 4.36627 0
1.9635 4.36627 0
1.9635 3.74052 0
2.35619 3.74052 0
1.9635 4.36627 0
2.35619 4.36627 0
1.5708 4.36627 0
1.9635 4.36627 0
1.5708 4.99199 0
1.9635 4.99199 0
1.9635 4.36627 0
2.35619 4.36627 0
1.9635 4.99199 0
2.35619 4.99199 0
2.35619 3.74052 0
2.74889 3.74052 0
2.35619 4.36627 0
2.74889 4.36627 0
2.74889 3.74052 0
3.14159 3.74052 0
2.74889 4.36627 0
3.14159 4.36627 0
2.35619 4.36627 0
2.74889 4.36627 0
2.35619 4.99199 0
2.74889 4.99199 0
2.74889 4.36627 0
3.14159 4.36627 0
2.74889 4.99199 0
3.14159 4.99199 0
3.14159 0 0
3.53429 0 0
3.14159 0.611554 0
3.53429 0.611554 0
3.53429 0 0
3.92699 0 0
3.53429 0.611554 0
3.92699 0.611554 0
3.14159 0.611554 0
3.53429 0.611554 0
3.14159 1.23757 0
3.53429 1.23757 0
3.53429 0.611554 0
3.92699 0.611554 0
3.53429 1.23757 0
3.92699 1.23757 0
3.92699 0 0
4.31969 0 0
3.92699 0.611554 0
4.31969 0.611554 0
4.31969 0 0
4.71239 0 0
4.31969 0.611554 0
4.71239 0.611554 0
3.92699 0.611554 0
4.31969 0.611554 0
3.92699 1.23757 0
4.31969 1.23757 0
4.31969 0.611554 0
4.71239 0.611554 0
4.31969 1.23757 0
4.71239 1.23757 0
3.14159 1.23757 0
3.53429 1.23757 0
3.14159 1.86302 0
3.53429 1.86302 0
3.53429 1.23757 0
3.92699 1.23757 0
3.53429 1.86302 0
3.92699 1.86302 0
3.14159 1.86302 0
3.53429 1.86302 0
3.14159 2.48893 0
3.53429 2.48893 0
3.53429 1.86302 0
3.92699 1.86302 0
3.53429 2.48893 0
3.92699 2.48893 0
3.92699 1.23757 0
4.31969 1.23757 0
3.92699 1.86302 0
4.31969 1.86302 0
4.31969 1.23757 0
4.71239 1.23757 0
4.31969 1.86302 0
4.71239 1.86302 0
3.92699 1.86302 0
4.31969 1.86302 0
3.92699 2.48893 0
4.31969 2.48893 0
4.31969 1.86302 0
4.71239 1.86302 0
4.31969 2.48893 0
4.71239 2.48893 0
4.71239 0 0
5.10509 0 0
4.71239 0.611554 0
5.10509 0.611554 0
5.10509 0 0
5.49779 0 0
5.10509 0.611554 0
5.49779 0.611554 0
4.71239 0.611554 0
5.10509 0.611554 0
4.71239 1.23757 0
5.10509 1.23757 0
5.10509 0.611554 0
5.49779 0.611554 0
5.10509 1.23757 0
5.49779 1.23757 0
5.49779 0 0
5.89049 0 0
5.49779 0.611554 0
5.89049 0.611554 0
5.89049 0 0
6.28319 0 0
5.89049 0.611554 0
6.28319 0.611554 0
5.49779 0.611554 0
5.89049 0.611554 0
5.49779 1.23757 0
5.89049 1.23757 0
5.89049 0.611554 0
6.28319 0.611554 0
5.89049 1.23757 0
6.28319 1.23757 0
4.71239 1.23757 0
5.10509 1.23757 0
4.71239 1.86302 0
5.10509 1.86302 0
5.10509 1.23757 0
5.49779 1.23757 0
5.10509 1.86302 0
5.49779 1.86302 0
4.71239 1.86302 0
5.10509 1.86302 0
4.71239 2.48893 0
5.10509 2.48893 0
5.10509 1.86302 0
5.49779 1.86302 0
5.10509 2.48893 0
5.49779 2.48893 0
5.49779 1.23757 0
5.89049 1.23757 0
5.49779 1.86302 0
5.89049 1.86302 0
5.89049 1.23757 0
6.28319 1.23757 0
5.89049 1.86302 0
6.28319 1.86302 0
5.49779 1.86302 0
5.89049 1.86302 0
5.49779 2.48893 0
5.89049 2.48893 0
5.89049 1.86302 0
6.28319 1.86302 0
5.89049 2.48893 0
6.28319 2.48893 0
3.14159 2.48893 0
3.53429 2.48893 0
3.14159 3.11472 0
3.53429 3.11472 0
3.53429 2.48893 0
3.92699 2.48893 0
3.53429 3.11472 0
3.92699 3.11472 0
3.14159 3.11472 0
3.53429 3.11472 0
3.14159 3.74052 0
3.53429 3.74052 0
3.53429 3.11472 0
3.92699 3.11472 0
3.53429 3.74052 0
3.92699 3.74052 0
3.92699 2.48893 0
4.31969 2.48893 0
3.92699 3.11472 0
4.31969 3.11472 0
4.31969 2.48893 0
4.71239 2.48893 0
4.31969 3.11472 0
4.71239 3.11472 0
3.92699 3.11472 0
4.31969 3.11472 0
3.92699 3.74052 0
4.31969 3.74052 0
4.31969 3.11472 0
4.71239 3.11472 0
4.31969 3.74052 0
4.71239 3.74052 0
3.14159 3.74052 0
3.53429 3.74052 0
3.14159 4.36627 0
3.53429 4.36627 0
3.53429 3.74052 0
3.92699 3.74052 0
3.53429 4.36627 0
3.92699 4.36627 0
3.14159 4.36627 0
3.53429 4.36627 0
3.14159 4.99199 0
3.53429 4.99199 0
3.53429 4.36627 0
3.92699 4.36627 0
3.53429 4.99199 0
3.92699 4.99199 0
3.92699 3.74052 0
4.31969 3.74052 0
3.92699 4.36627 0
4.31969 4.36627 0
4.31969 3.74052 0
4.71239 3.74052 0
4.31969 4.36627 0
4.71239 4.36627 0
3.92699 4.36627 0
4.31969 4.36627 0
3.92699 4.99199 0
4.31969 4.99199 0
4.31969 4.36627 0
4.71239 4.36627 0
4.31969 4.99199 0
4.71239 4.99199 0
4.71239 2.48893 0
5.10509 2.48893 0
4.71239 3.11472 0
5.10509 3.11472 0
5.10509 2.48893 0
5.49779 2.48893 0
5.10509 3.11472 0
5.49779 3.11472 0
4.71239 3.11472 0
5.10509 3.11472 0
4.71239 3.74052 0
5.10509 3.74052 0
5.10509 3.11472 0
5.49779 3.11472 0
5.10509 3.74052 0
5.49779 3.74052 0
5.49779 2.48893 0
5.89049 2.48893 0
5.49779 3.11472 0
5.89049 3.11472 0
5.89049 2.48893 0
6.28319 2.48893 0
5.89049 3.11472 0
6.28319 3.11472 0
5.49779 3.11472 0
5.89049 3.11472 0
5.49779 3.74052 0
5.89049 3.74052 0
5.89049 3.11472 0
6.28319 3.11472 0
5.89049 3.74052 0
6.28319 3.74052 0
4.71239 3.74052 0
5.10509 3.74052 0
4.71239 4.36627 0
5.10509 4.36627 0
5.10509 3.74052 0
5.49779 3.74052 0
5.10509 4.36627 0
5.49779 4.36627 0
4.71239 4.36627 0
5.10509 4.36627 0
4.71239 4.99199 0
5.10509 4.99199 0
5.10509 4.36627 0
5.49779 4.36627 0
5.10509 4.99199 0
5.49779 4.99199 0
5.49779 3.74052 0
5.89049 3.74052 0
5.49779 4.36627 0
5.89049 4.36627 0
5.89049 3.74052 0
6.28319 3.74052 0
5.89049 4.36627 0
6.28319 4.36627 0
5.49779 4.36627 0
5.89049 4.36627 0
5.49779 4.99199 0
5.89049 4.99199 0
5.89049 4.36627 0
6.28319 4.36627 0
5.89049 4.99199 0
6.28319 4.99199 0
0 4.99199 0
0.392699 4.99199 0
0 5.61766 0
0.392699 5.61766 0
0.392699 4.99199 0
0.785398 4.99199 0
0.392699 5.61766 0
0.785398 5.61766 0
0 5.61766 0
0.392699 5.61766 0
0 6.24329 0
0.392699 6.24329 0
0.392699 5.61766 0
0.785398 5.61766 0
0.392699 6.24329 0
0.785398 6.24329 0
0.785398 4.99199 0
1.1781 4.99199 0
0.785398 5.61766 0
1.1781 5.61766 0
1.1781 4.99199 0
1.5708 4.99199 0
1.1781 5.61766 0
1.5708 5.61766 0
0.785398 5.61766 0
1.1781 5.61766 0
0.785398 6.24329 0
1.1781 6.24329 0
1.1781 5.61766 0
1.5708 5.61766 0
1.1781 6.24329 0
1.5708 6.24329 0
0 6.24329 0
0.392699 6.24329 0
0 6.86889 0
0.392699 6.86889 0
0.392699 6.24329 0
0.785398 6.24329 0
0.392699 6.86889 0
0.785398 6.86889 0
0 6.86889 0
0.392699 6.86889 0
0 7.49449 0
0.392699 7.49449 0
0.392699 6.86889 0
0.785398 6.86889 0
0.392699 7.49449 0
0.785398 7.49449 0
0.785398 6.24329 0
1.1781 6.24329 0
0.785398 6.86889 0
[...]
POINT_DATA 5120
VECTORS uf double
0 1 0
-4.10376e-14 1 0
0 1.00224 0
-3.38961e-14 1.00224 0
-4.10376e-14 1 0
-9.7657e-15 1 0
-3.38961e-14 1.00224 0
-7.42149e-15 1.00224 0
0 1.00224 0
3.46371e-15 1.00224 0
0 1.00339 0
1.50873e-15 1.00339 0
3.46371e-15 1.00224 0
1.05531e-14 1.00224 0
1.50873e-15 1.00339 0
2.74569e-14 1.00339 0
-9.7657e-15 1 0
5.92341e-14 1 0
-7.42149e-15 1.00224 0
6.97511e-14 1.00224 0
5.92341e-14 1 0
-1.47994e-15 1 0
6.97511e-14 1.00224 0
6.22685e-15 1.00224 0
1.05531e-14 1.00224 0
-7.50346e-14 1.00224 0
2.74569e-14 1.00339 0
-5.42094e-14 1.00339 0
-7.50346e-14 1.00224 0
-9.76488e-15 1.00224 0
-5.42094e-14 1.00339 0
4.75842e-15 1.00339 0
0 1.00339 0
1.35149e-14 1.00339 0
0 1.00479 0
9.31828e-15 1.00479 0
1.35149e-14 1.00339 0
-2.56488e-14 1.00339 0
9.31828e-15 1.00479 0
-1.21976e-14 1.00479 0
0 1.00479 0
3.17153e-14 1.00479 0
0 1.00609 0
2.56304e-14 1.00609 0
3.17153e-14 1.00479 0
4.66651e-14 1.00479 0
2.56304e-14 1.00609 0
4.14762e-14 1.00609 0
-2.56488e-14 1.00339 0
-8.86141e-15 1.00339 0
-1.21976e-14 1.00479 0
1.93399e-15 1.00479 0
-8.86141e-15 1.00339 0
-9.49611e-15 1.00339 0
1.93399e-15 1.00479 0
1.00262e-14 1.00479 0
4.66651e-14 1.00479 0
5.44819e-15 1.00479 0
4.14762e-14 1.00609 0
9.06509e-15 1.00609 0
5.44819e-15 1.00479 0
-2.98642e-14 1.00479 0
9.06509e-15 1.00609 0
-1.40719e-14 1.00609 0
-1.47994e-15 1 0
-1.94199e-14 1 0
6.22685e-15 1.00224 0
-1.3321e-14 1.00224 0
-1.94199e-14 1 0
-1.16229e-14 1 0
-1.3321e-14 1.00224 0
8.46833e-15 1.00224 0
-9.76488e-15 1.00224 0
1.67112e-14 1.00224 0
4.75842e-15 1.00339 0
1.99435e-14 1.00339 0
1.67112e-14 1.00224 0
-1.80659e-15 1.00224 0
1.99435e-14 1.00339 0
5.27118e-15 1.00339 0
-1.16229e-14 1 0
2.2396e-16 1 0
8.46833e-15 1.00224 0
-1.49734e-15 1.00224 0
2.2396e-16 1 0
-3.92814e-15 1 0
-1.49734e-15 1.00224 0
5.51349e-15 1.00224 0
-1.80659e-15 1.00224 0
-8.68299e-15 1.00224 0
5.27118e-15 1.00339 0
9.75455e-15 1.00339 0
-8.68299e-15 1.00224 0
-6.35218e-15 1.00224 0
9.75455e-15 1.00339 0
9.51967e-15 1.00339 0
-9.49611e-15 1.00339 0
1.43101e-15 1.00339 0
1.00262e-14 1.00479 0
1.85279e-14 1.00479 0
1.43101e-15 1.00339 0
-4.80419e-15 1.00339 0
1.85279e-14 1.00479 0
8.31149e-15 1.00479 0
-2.98642e-14 1.00479 0
-3.36667e-15 1.00479 0
-1.40719e-14 1.00609 0
4.87452e-15 1.00609 0
-3.36667e-15 1.00479 0
-1.91863e-15 1.00479 0
4.87452e-15 1.00609 0
4.09197e-15 1.00609 0
-4.80419e-15 1.00339 0
-1.04026e-14 1.00339 0
8.31149e-15 1.00479 0
1.26267e-14 1.00479 0
-1.04026e-14 1.00339 0
-1.09903e-14 1.00339 0
1.26267e-14 1.00479 0
8.89577e-15 1.00479 0
-1.91863e-15 1.00479 0
-2.86737e-15 1.00479 0
4.09197e-15 1.00609 0
3.25783e-15 1.00609 0
-2.86737e-15 1.00479 0
-2.87788e-15 1.00479 0
3.25783e-15 1.00609 0
2.81403e-15 1.00609 0
0 1.00609 0
-1.69264e-14 1.00609 0
0 1.00739 0
-1.93305e-14 1.00739 0
-1.69264e-14 1.00609 0
-5.50592e-14 1.00609 0
-1.93305e-14 1.00739 0
-4.59302e-14 1.00739 0
0 1.00739 0
1.16706e-14 1.00739 0
0 1.00866 0
1.80566e-14 1.00866 0
1.16706e-14 1.00739 0
7.28976e-14 1.00739 0
1.80566e-14 1.00866 0
7.35817e-14 1.00866 0
-5.50592e-14 1.00609 0
-8.67963e-15 1.00609 0
-4.59302e-14 1.00739 0
-3.61002e-15 1.00739 0
-8.67963e-15 1.00609 0
5.01934e-14 1.00609 0
-3.61002e-15 1.00739 0
4.71231e-14 1.00739 0
7.28976e-14 1.00739 0
1.25506e-14 1.00739 0
7.35817e-14 1.00866 0
1.2299e-14 1.00866 0
1.25506e-14 1.00739 0
-5.60745e-14 1.00739 0
1.2299e-14 1.00866 0
-3.79402e-14 1.00866 0
0 1.00866 0
8.76268e-15 1.00866 0
0 1.00992 0
1.41197e-14 1.00992 0
8.76268e-15 1.00866 0
-1.11442e-13 1.00866 0
1.41197e-14 1.00992 0
-1.07175e-13 1.00992 0
0 1.00992 0
-1.17047e-14 1.00992 0
0 1.01115 0
-2.30917e-15 1.01115 0
-1.17047e-14 1.00992 0
8.89109e-14 1.00992 0
-2.30917e-15 1.01115 0
9.84153e-14 1.01115 0
-1.11442e-13 1.00866 0
-8.85882e-15 1.00866 0
-1.07175e-13 1.00992 0
-2.01601e-15 1.00992 0
-8.85882e-15 1.00866 0
7.32428e-14 1.00866 0
-2.01601e-15 1.00992 0
8.29402e-14 1.00992 0
8.89109e-14 1.00992 0
9.73848e-15 1.00992 0
9.84153e-14 1.01115 0
9.15674e-15 1.01115 0
9.73848e-15 1.00992 0
-1.0255e-13 1.00992 0
9.15674e-15 1.01115 0
-9.19096e-14 1.01115 0
5.01934e-14 1.00609 0
-1.77625e-14 1.00609 0
4.71231e-14 1.00739 0
-1.12371e-14 1.00739 0
-1.77625e-14 1.00609 0
-6.12147e-15 1.00609 0
-1.12371e-14 1.00739 0
7.70973e-17 1.00739 0
-5.60745e-14 1.00739 0
2.00181e-15 1.00739 0
-3.79402e-14 1.00866 0
8.61044e-15 1.00866 0
2.00181e-15 1.00739 0
-1.00335e-15 1.00739 0
8.61044e-15 1.00866 0
6.51051e-15 1.00866 0
-6.12147e-15 1.00609 0
-2.54479e-15 1.00609 0
7.70973e-17 1.00739 0
2.03492e-15 1.00739 0
-2.54479e-15 1.00609 0
-3.42613e-15 1.00609 0
2.03492e-15 1.00739 0
6.70505e-15 1.00739 0
-1.00335e-15 1.00739 0
-4.47454e-15 1.00739 0
6.51051e-15 1.00866 0
7.01722e-15 1.00866 0
-4.47454e-15 1.00739 0
-5.4209e-16 1.00739 0
7.01722e-15 1.00866 0
5.82311e-15 1.00866 0
7.32428e-14 1.00866 0
1.21019e-14 1.00866 0
8.29402e-14 1.00992 0
1.63956e-14 1.00992 0
1.21019e-14 1.00866 0
-3.24242e-15 1.00866 0
1.63956e-14 1.00992 0
7.34812e-15 1.00992 0
-1.0255e-13 1.00992 0
-2.27894e-14 1.00992 0
-9.19096e-14 1.01115 0
-9.67054e-15 1.01115 0
-2.27894e-14 1.00992 0
-4.1096e-15 1.00992 0
-9.67054e-15 1.01115 0
6.28814e-15 1.01115 0
-3.24242e-15 1.00866 0
-1.2538e-15 1.00866 0
7.34812e-15 1.00992 0
8.93634e-15 1.00992 0
-1.2538e-15 1.00866 0
8.99437e-16 1.00866 0
8.93634e-15 1.00992 0
5.22168e-15 1.00992 0
-4.1096e-15 1.00992 0
-9.55516e-15 1.00992 0
6.28814e-15 1.01115 0
6.54206e-15 1.01115 0
-9.55516e-15 1.00992 0
-4.59942e-15 1.00992 0
6.54206e-15 1.01115 0
5.36026e-15 1.01115 0
-3.92814e-15 1 0
-8.17334e-15 1 0
5.51349e-15 1.00224 0
1.34033e-14 1.00224 0
-8.17334e-15 1 0
-7.56272e-16 1 0
1.34033e-14 1.00224 0
6.45649e-15 1.00224 0
-6.35218e-15 1.00224 0
-4.91923e-15 1.00224 0
9.51967e-15 1.00339 0
7.57052e-15 1.00339 0
-4.91923e-15 1.00224 0
-2.96772e-15 1.00224 0
7.57052e-15 1.00339 0
1.45869e-15 1.00339 0
-7.56272e-16 1 0
1.59712e-15 1 0
6.45649e-15 1.00224 0
7.13063e-15 1.00224 0
1.59712e-15 1 0
-4.41175e-15 1 0
7.13063e-15 1.00224 0
7.44142e-15 1.00224 0
-2.96772e-15 1.00224 0
-1.48761e-14 1.00224 0
1.45869e-15 1.00339 0
1.34715e-14 1.00339 0
-1.48761e-14 1.00224 0
5.93925e-16 1.00224 0
1.34715e-14 1.00339 0
-3.1651e-16 1.00339 0
-1.09903e-14 1.00339 0
-1.11389e-14 1.00339 0
8.89577e-15 1.00479 0
1.08689e-14 1.00479 0
-1.11389e-14 1.00339 0
-1.19873e-15 1.00339 0
1.08689e-14 1.00479 0
5.87421e-15 1.00479 0
-2.87788e-15 1.00479 0
-1.71288e-15 1.00479 0
2.81403e-15 1.00609 0
2.73466e-15 1.00609 0
-1.71288e-15 1.00479 0
-1.47019e-15 1.00479 0
2.73466e-15 1.00609 0
4.8572e-15 1.00609 0
-1.19873e-15 1.00339 0
3.73148e-15 1.00339 0
5.87421e-15 1.00479 0
-1.69187e-15 1.00479 0
3.73148e-15 1.00339 0
-2.70276e-15 1.00339 0
-1.69187e-15 1.00479 0
1.10279e-14 1.00479 0
-1.47019e-15 1.00479 0
-4.47671e-15 1.00479 0
4.8572e-15 1.00609 0
6.57862e-15 1.00609 0
-4.47671e-15 1.00479 0
2.15361e-15 1.00479 0
6.57862e-15 1.00609 0
2.77651e-15 1.00609 0
-4.41175e-15 1 0
1.62001e-15 1 0
7.44142e-15 1.00224 0
2.73203e-15 1.00224 0
1.62001e-15 1 0
-3.42913e-16 1 0
2.73203e-15 1.00224 0
7.89519e-15 1.00224 0
5.93925e-16 1.00224 0
-2.73484e-16 1.00224 0
-3.1651e-16 1.00339 0
1.39629e-15 1.00339 0
-2.73484e-16 1.00224 0
-1.0884e-14 1.00224 0
1.39629e-15 1.00339 0
1.31572e-14 1.00339 0
-3.42913e-16 1 0
2.17233e-15 1 0
7.89519e-15 1.00224 0
7.22383e-16 1.00224 0
2.17233e-15 1 0
1.37465e-15 1 0
7.22383e-16 1.00224 0
1.33474e-14 1.00224 0
-1.0884e-14 1.00224 0
9.38708e-15 1.00224 0
1.31572e-14 1.00339 0
3.02976e-16 1.00339 0
9.38708e-15 1.00224 0
-1.00466e-14 1.00224 0
3.02976e-16 1.00339 0
1.0559e-14 1.00339 0
-2.70276e-15 1.00339 0
-5.44865e-15 1.00339 0
1.10279e-14 1.00479 0
6.31778e-15 1.00479 0
-5.44865e-15 1.00339 0
2.42321e-15 1.00339 0
6.31778e-15 1.00479 0
1.33147e-15 1.00479 0
2.15361e-15 1.00479 0
7.11486e-15 1.00479 0
2.77651e-15 1.00609 0
4.72413e-15 1.00609 0
7.11486e-15 1.00479 0
-2.03808e-15 1.00479 0
4.72413e-15 1.00609 0
4.80643e-15 1.00609 0
2.42321e-15 1.00339 0
-9.93217e-15 1.00339 0
1.33147e-15 1.00479 0
1.12293e-14 1.00479 0
-9.93217e-15 1.00339 0
-1.09563e-14 1.00339 0
1.12293e-14 1.00479 0
5.33797e-15 1.00479 0
-2.03808e-15 1.00479 0
-9.48904e-16 1.00479 0
4.80643e-15 1.00609 0
8.07416e-15 1.00609 0
-9.48904e-16 1.00479 0
3.72286e-15 1.00479 0
8.07416e-15 1.00609 0
4.77579e-15 1.00609 0
-3.42613e-15 1.00609 0
1.59265e-15 1.00609 0
6.70505e-15 1.00739 0
3.59473e-15 1.00739 0
1.59265e-15 1.00609 0
-3.71582e-15 1.00609 0
3.59473e-15 1.00739 0
4.3754e-15 1.00739 0
-5.4209e-16 1.00739 0
-8.51337e-15 1.00739 0
5.82311e-15 1.00866 0
6.13815e-15 1.00866 0
-8.51337e-15 1.00739 0
3.4766e-15 1.00739 0
6.13815e-15 1.00866 0
-1.24078e-15 1.00866 0
-3.71582e-15 1.00609 0
1.5522e-15 1.00609 0
4.3754e-15 1.00739 0
2.72091e-15 1.00739 0
1.5522e-15 1.00609 0
-7.65792e-15 1.00609 0
2.72091e-15 1.00739 0
1.39447e-14 1.00739 0
3.4766e-15 1.00739 0
-1.71394e-16 1.00739 0
-1.24078e-15 1.00866 0
2.31393e-15 1.00866 0
-1.71394e-16 1.00739 0
-5.60594e-15 1.00739 0
2.31393e-15 1.00866 0
4.97141e-15 1.00866 0
8.99437e-16 1.00866 0
-3.64686e-16 1.00866 0
5.22168e-15 1.00992 0
5.38136e-15 1.00992 0
-3.64686e-16 1.00866 0
-2.53426e-15 1.00866 0
5.38136e-15 1.00992 0
7.95556e-15 1.00992 0
-4.59942e-15 1.00992 0
3.38538e-16 1.00992 0
5.36026e-15 1.01115 0
7.31469e-15 1.01115 0
3.38538e-16 1.00992 0
-3.58626e-15 1.00992 0
7.31469e-15 1.01115 0
1.21363e-14 1.01115 0
-2.53426e-15 1.00866 0
-8.5842e-15 1.00866 0
7.95556e-15 1.00992 0
1.02264e-14 1.00992 0
-8.5842e-15 1.00866 0
-2.87965e-15 1.00866 0
1.02264e-14 1.00992 0
8.22832e-15 1.00992 0
-3.58626e-15 1.00992 0
2.68532e-15 1.00992 0
1.21363e-14 1.01115 0
3.90704e-15 1.01115 0
2.68532e-15 1.00992 0
-4.88387e-15 1.00992 0
3.90704e-15 1.01115 0
6.64617e-15 1.01115 0
-7.65792e-15 1.00609 0
-2.45639e-15 1.00609 0
1.39447e-14 1.00739 0
8.34209e-15 1.00739 0
-2.45639e-15 1.00609 0
1.7603e-15 1.00609 0
8.34209e-15 1.00739 0
8.89975e-15 1.00739 0
-5.60594e-15 1.00739 0
-4.95495e-15 1.00739 0
4.97141e-15 1.00866 0
4.47862e-15 1.00866 0
-4.95495e-15 1.00739 0
-9.39684e-16 1.00739 0
4.47862e-15 1.00866 0
1.51853e-15 1.00866 0
1.7603e-15 1.00609 0
4.91373e-15 1.00609 0
8.89975e-15 1.00739 0
1.19894e-15 1.00739 0
4.91373e-15 1.00609 0
7.91335e-15 1.00609 0
1.19894e-15 1.00739 0
2.55729e-15 1.00739 0
-9.39684e-16 1.00739 0
-7.39271e-16 1.00739 0
1.51853e-15 1.00866 0
7.56553e-15 1.00866 0
-7.39271e-16 1.00739 0
-1.15801e-15 1.00739 0
7.56553e-15 1.00866 0
7.5433e-15 1.00866 0
-2.87965e-15 1.00866 0
1.15798e-15 1.00866 0
8.22832e-15 1.00992 0
2.98704e-15 1.00992 0
1.15798e-15 1.00866 0
-4.45858e-15 1.00866 0
2.98704e-15 1.00992 0
6.69963e-15 1.00992 0
-4.88387e-15 1.00992 0
-4.4622e-15 1.00992 0
6.64617e-15 1.01115 0
5.42737e-15 1.01115 0
-4.4622e-15 1.00992 0
-1.78594e-15 1.00992 0
5.42737e-15 1.01115 0
3.65422e-15 1.01115 0
-4.45858e-15 1.00866 0
-3.51753e-15 1.00866 0
6.69963e-15 1.00992 0
5.2678e-15 1.00992 0
-3.51753e-15 1.00866 0
-6.7184e-15 1.00866 0
5.2678e-15 1.00992 0
8.00018e-15 1.00992 0
-1.78594e-15 1.00992 0
-4.11102e-15 1.00992 0
3.65422e-15 1.01115 0
5.79419e-15 1.01115 0
-4.11102e-15 1.00992 0
1.00351e-15 1.00992 0
5.79419e-15 1.01115 0
-1.55035e-15 1.01115 0
0 1.01115 0
-6.73761e-15 1.01115 0
0 1.01238 0
-2.86727e-15 1.01238 0
-6.73761e-15 1.01115 0
-6.74587e-14 1.01115 0
-2.86727e-15 1.01238 0
-5.63533e-14 1.01238 0
0 1.01238 0
3.30648e-15 1.01238 0
0 1.01361 0
1.34871e-14 1.01361 0
3.30648e-15 1.01238 0
3.62342e-14 1.01238 0
1.34871e-14 1.01361 0
3.98494e-14 1.01361 0
-6.74587e-14 1.01115 0
5.11533e-15 1.01115 0
-5.63533e-14 1.01238 0
4.40611e-15 1.01238 0
5.11533e-15 1.01115 0
5.61554e-14 1.01115 0
4.40611e-15 1.01238 0
6.49434e-14 1.01238 0
3.62342e-14 1.01238 0
-2.54402e-14 1.01238 0
3.98494e-14 1.01361 0
-2.15812e-14 1.01361 0
-2.54402e-14 1.01238 0
-1.55713e-14 1.01238 0
-2.15812e-14 1.01361 0
-9.75314e-15 1.01361 0
0 1.01361 0
-1.51904e-14 1.01361 0
0 1.01485 0
-1.09682e-14 1.01485 0
-1.51904e-14 1.01361 0
-2.52308e-14 1.01361 0
-1.09682e-14 1.01485 0
-1.58836e-14 1.01485 0
0 1.01485 0
4.67983e-15 1.01485 0
0 1.01611 0
1.21121e-14 1.01611 0
4.67983e-15 1.01485 0
2.12911e-14 1.01485 0
1.21121e-14 1.01611 0
1.73852e-14 1.01611 0
-2.52308e-14 1.01361 0
1.06752e-14 1.01361 0
-1.58836e-14 1.01485 0
1.41676e-14 1.01485 0
1.06752e-14 1.01361 0
2.60001e-15 1.01361 0
1.41676e-14 1.01485 0
9.06953e-15 1.01485 0
2.12911e-14 1.01485 0
-7.63029e-15 1.01485 0
1.73852e-14 1.01611 0
6.60637e-16 1.01611 0
-7.63029e-15 1.01485 0
-4.74199e-15 1.01485 0
6.60637e-16 1.01611 0
-1.80764e-15 1.01611 0
5.61554e-14 1.01115 0
-1.65223e-14 1.01115 0
6.49434e-14 1.01238 0
-9.26e-15 1.01238 0
-1.65223e-14 1.01115 0
-8.2092e-15 1.01115 0
-9.26e-15 1.01238 0
8.94719e-15 1.01238 0
-1.55713e-14 1.01238 0
1.95161e-14 1.01238 0
-9.75314e-15 1.01361 0
2.06347e-14 1.01361 0
1.95161e-14 1.01238 0
-1.07264e-14 1.01238 0
2.06347e-14 1.01361 0
9.71489e-15 1.01361 0
-8.2092e-15 1.01115 0
-5.56185e-17 1.01115 0
8.94719e-15 1.01238 0
4.43671e-15 1.01238 0
-5.56185e-17 1.01115 0
-6.95247e-16 1.01115 0
4.43671e-15 1.01238 0
4.59961e-15 1.01238 0
-1.07264e-14 1.01238 0
-5.57591e-15 1.01238 0
9.71489e-15 1.01361 0
6.96906e-15 1.01361 0
-5.57591e-15 1.01238 0
-7.81158e-15 1.01238 0
6.96906e-15 1.01361 0
8.49691e-15 1.01361 0
2.60001e-15 1.01361 0
-6.80914e-15 1.01361 0
9.06953e-15 1.01485 0
8.52792e-16 1.01485 0
-6.80914e-15 1.01361 0
-3.81814e-15 1.01361 0
8.52792e-16 1.01485 0
2.96656e-15 1.01485 0
-4.74199e-15 1.01485 0
-6.80975e-15 1.01485 0
-1.80764e-15 1.01611 0
1.01557e-15 1.01611 0
-6.80975e-15 1.01485 0
-2.51223e-15 1.01485 0
1.01557e-15 1.01611 0
2.31565e-15 1.01611 0
-3.81814e-15 1.01361 0
-2.16064e-15 1.01361 0
2.96656e-15 1.01485 0
2.50454e-15 1.01485 0
-2.16064e-15 1.01361 0
-5.53988e-15 1.01361 0
2.50454e-15 1.01485 0
5.35754e-15 1.01485 0
-2.51223e-15 1.01485 0
-6.60013e-15 1.01485 0
2.31565e-15 1.01611 0
5.10199e-15 1.01611 0
-6.60013e-15 1.01485 0
-7.57063e-15 1.01485 0
5.10199e-15 1.01611 0
5.06517e-15 1.01611 0
0 1.01611 0
2.29195e-15 1.01611 0
0 1.01738 0
2.91054e-15 1.01738 0
2.29195e-15 1.01611 0
-2.4027e-14 1.01611 0
2.91054e-15 1.01738 0
-1.95986e-14 1.01738 0
0 1.01738 0
-1.24192e-14 1.01738 0
0 1.01862 0
-6.82253e-15 1.01862 0
-1.24192e-14 1.01738 0
1.80003e-14 1.01738 0
-6.82253e-15 1.01862 0
1.95702e-14 1.01862 0
-2.4027e-14 1.01611 0
-3.22222e-15 1.01611 0
-1.95986e-14 1.01738 0
1.67871e-15 1.01738 0
-3.22222e-15 1.01611 0
-1.06043e-14 1.01611 0
1.67871e-15 1.01738 0
-4.20698e-15 1.01738 0
1.80003e-14 1.01738 0
-6.42851e-16 1.01738 0
1.95702e-14 1.01862 0
6.12177e-15 1.01862 0
-6.42851e-16 1.01738 0
1.38645e-15 1.01738 0
6.12177e-15 1.01862 0
5.41106e-17 1.01862 0
0 1.01862 0
7.30919e-15 1.01862 0
0 1.01969 0
4.46439e-15 1.01969 0
7.30919e-15 1.01862 0
-1.2395e-14 1.01862 0
4.46439e-15 1.01969 0
-1.10033e-14 1.01969 0
0 1.01969 0
1.03264e-15 1.01969 0
0 1.02012 0
-8.12471e-15 1.02012 0
1.03264e-15 1.01969 0
9.4651e-16 1.01969 0
-8.12471e-15 1.02012 0
1.83384e-14 1.02012 0
-1.2395e-14 1.01862 0
-1.9978e-16 1.01862 0
-1.10033e-14 1.01969 0
-5.01596e-16 1.01969 0
-1.9978e-16 1.01862 0
1.94621e-16 1.01862 0
-5.01596e-16 1.01969 0
3.68576e-16 1.01969 0
9.4651e-16 1.01969 0
-3.80328e-15 1.01969 0
1.83384e-14 1.02012 0
-8.41701e-15 1.02012 0
-3.80328e-15 1.01969 0
-3.05656e-15 1.01969 0
-8.41701e-15 1.02012 0
5.71159e-15 1.02012 0
-1.06043e-14 1.01611 0
-3.54921e-15 1.01611 0
-4.20698e-15 1.01738 0
9.01134e-15 1.01738 0
-3.54921e-15 1.01611 0
-1.23351e-15 1.01611 0
9.01134e-15 1.01738 0
4.21394e-15 1.01738 0
1.38645e-15 1.01738 0
-4.84957e-15 1.01738 0
5.41106e-17 1.01862 0
-3.6494e-15 1.01862 0
-4.84957e-15 1.01738 0
-2.2075e-15 1.01738 0
-3.6494e-15 1.01862 0
3.07749e-15 1.01862 0
-1.23351e-15 1.01611 0
-1.72003e-15 1.01611 0
4.21394e-15 1.01738 0
2.14462e-16 1.01738 0
-1.72003e-15 1.01611 0
-4.67133e-15 1.01611 0
2.14462e-16 1.01738 0
4.56603e-15 1.01738 0
-2.2075e-15 1.01738 0
-6.03982e-15 1.01738 0
3.07749e-15 1.01862 0
4.30348e-15 1.01862 0
-6.03982e-15 1.01738 0
-3.96649e-15 1.01738 0
4.30348e-15 1.01862 0
3.6325e-15 1.01862 0
1.94621e-16 1.01862 0
-1.17871e-15 1.01862 0
3.68576e-16 1.01969 0
2.56392e-15 1.01969 0
-1.17871e-15 1.01862 0
-2.74255e-15 1.01862 0
2.56392e-15 1.01969 0
7.83082e-16 1.01969 0
-3.05656e-15 1.01969 0
-4.68411e-15 1.01969 0
5.71159e-15 1.02012 0
2.89005e-15 1.02012 0
-4.68411e-15 1.01969 0
-2.00515e-15 1.01969 0
2.89005e-15 1.02012 0
8.95999e-16 1.02012 0
-2.74255e-15 1.01862 0
-2.77974e-15 1.01862 0
7.83082e-16 1.01969 0
-4.84643e-16 1.01969 0
-2.77974e-15 1.01862 0
-2.51085e-15 1.01862 0
-4.84643e-16 1.01969 0
3.94504e-15 1.01969 0
-2.00515e-15 1.01969 0
-1.52584e-15 1.01969 0
8.95999e-16 1.02012 0
5.20618e-15 1.02012 0
-1.52584e-15 1.01969 0
4.24721e-16 1.01969 0
5.20618e-15 1.02012 0
-9.33211e-15 1.02012 0
-6.95247e-16 1.01115 0
-1.0912e-15 1.01115 0
4.59961e-15 1.01238 0
9.83647e-15 1.01238 0
-1.0912e-15 1.01115 0
-7.30548e-15 1.01115 0
9.83647e-15 1.01238 0
3.80744e-15 1.01238 0
-7.81158e-15 1.01238 0
-7.06201e-15 1.01238 0
8.49691e-15 1.01361 0
6.49183e-15 1.01361 0
-7.06201e-15 1.01238 0
-8.73483e-16 1.01238 0
6.49183e-15 1.01361 0
5.94237e-15 1.01361 0
-7.30548e-15 1.01115 0
-3.6374e-15 1.01115 0
3.80744e-15 1.01238 0
2.88683e-15 1.01238 0
-3.6374e-15 1.01115 0
-1.83036e-16 1.01115 0
2.88683e-15 1.01238 0
4.97435e-15 1.01238 0
-8.73483e-16 1.01238 0
-3.98559e-15 1.01238 0
5.94237e-15 1.01361 0
4.85089e-15 1.01361 0
-3.98559e-15 1.01238 0
-1.15464e-15 1.01238 0
4.85089e-15 1.01361 0
3.58893e-15 1.01361 0
-5.53988e-15 1.01361 0
-6.05732e-15 1.01361 0
5.35754e-15 1.01485 0
5.46061e-15 1.01485 0
-6.05732e-15 1.01361 0
-9.2519e-15 1.01361 0
5.46061e-15 1.01485 0
8.78021e-15 1.01485 0
-7.57063e-15 1.01485 0
-5.25706e-15 1.01485 0
5.06517e-15 1.01611 0
5.44633e-15 1.01611 0
-5.25706e-15 1.01485 0
-3.65153e-15 1.01485 0
5.44633e-15 1.01611 0
1.13822e-15 1.01611 0
-9.2519e-15 1.01361 0
-4.82742e-15 1.01361 0
8.78021e-15 1.01485 0
7.90343e-15 1.01485 0
-4.82742e-15 1.01361 0
-4.43846e-15 1.01361 0
7.90343e-15 1.01485 0
3.6717e-15 1.01485 0
-3.65153e-15 1.01485 0
-2.15196e-15 1.01485 0
1.13822e-15 1.01611 0
1.85782e-15 1.01611 0
-2.15196e-15 1.01485 0
3.78375e-16 1.01485 0
1.85782e-15 1.01611 0
1.87406e-15 1.01611 0
-1.83036e-16 1.01115 0
1.86719e-15 1.01115 0
4.97435e-15 1.01238 0
3.41738e-15 1.01238 0
1.86719e-15 1.01115 0
2.93598e-15 1.01115 0
3.41738e-15 1.01238 0
5.73434e-15 1.01238 0
-1.15464e-15 1.01238 0
-3.338e-15 1.01238 0
3.58893e-15 1.01361 0
7.5681e-15 1.01361 0
-3.338e-15 1.01238 0
4.29068e-16 1.01238 0
7.5681e-15 1.01361 0
3.51774e-15 1.01361 0
2.93598e-15 1.01115 0
-3.30316e-15 1.01115 0
5.73434e-15 1.01238 0
8.33823e-15 1.01238 0
-3.30316e-15 1.01115 0
5.69591e-15 1.01115 0
8.33823e-15 1.01238 0
3.39024e-15 1.01238 0
4.29068e-16 1.01238 0
-3.83076e-15 1.01238 0
3.51774e-15 1.01361 0
8.34364e-15 1.01361 0
-3.83076e-15 1.01238 0
-4.22746e-15 1.01238 0
8.34364e-15 1.01361 0
6.10434e-15 1.01361 0
-4.43846e-15 1.01361 0
-1.12187e-15 1.01361 0
3.6717e-15 1.01485 0
2.67595e-15 1.01485 0
-1.12187e-15 1.01361 0
3.75153e-16 1.01361 0
2.67595e-15 1.01485 0
9.11384e-16 1.01485 0
3.78375e-16 1.01485 0
-1.73809e-15 1.01485 0
1.87406e-15 1.01611 0
3.63725e-15 1.01611 0
-1.73809e-15 1.01485 0
-6.2959e-15 1.01485 0
3.63725e-15 1.01611 0
6.82567e-15 1.01611 0
3.75153e-16 1.01361 0
-5.05149e-15 1.01361 0
9.11384e-16 1.01485 0
5.73705e-15 1.01485 0
-5.05149e-15 1.01361 0
-4.81424e-15 1.01361 0
5.73705e-15 1.01485 0
4.28186e-15 1.01485 0
-6.2959e-15 1.01485 0
-3.86787e-15 1.01485 0
6.82567e-15 1.01611 0
1.56552e-15 1.01611 0
-3.86787e-15 1.01485 0
3.45575e-15 1.01485 0
1.56552e-15 1.01611 0
2.31631e-17 1.01611 0
-4.67133e-15 1.01611 0
-7.06891e-15 1.01611 0
4.56603e-15 1.01738 0
3.35539e-15 1.01738 0
-7.06891e-15 1.01611 0
-2.2854e-15 1.01611 0
3.35539e-15 1.01738 0
-3.85664e-16 1.01738 0
-3.96649e-15 1.01738 0
-1.50755e-15 1.01738 0
3.6325e-15 1.01862 0
6.02824e-16 1.01862 0
-1.50755e-15 1.01738 0
-1.23614e-15 1.01738 0
6.02824e-16 1.01862 0
3.08537e-15 1.01862 0
-2.2854e-15 1.01611 0
4.78711e-16 1.01611 0
-3.85664e-16 1.01738 0
3.11586e-16 1.01738 0