# vtk DataFile Version 3.0
#This file was generated by the deal.II library on 2018/10/12 at 0:09:55
ASCII
DATASET UNSTRUCTURED_GRID

POINTS 5120 double
0 0 0
0.392699 0 0
0 0.614957 0
0.392699 0.614957 0
0.392699 0 0
0.785398 0 0
0.392699 0.614957 0
0.785398 0.614957 0
0 0.614957 0
0.392699 0.614957 0
0 1.24071 0
0.392699 1.24071 0
0.392699 0.614957 0
0.785398 0.614957 0
0.392699 1.24071 0
0.785398 1.24071 0
0.785398 0 0
1.1781 0 0
0.785398 0.614957 0
1.1781 0.614957 0
1.1781 0 0
1.5708 0 0
1.1781 0.614957 0
1.5708 0.614957 0
0.785398 0.614957 0
1.1781 0.614957 0
0.785398 1.24071 0
1.1781 1.24071 0
1.1781 0.614957 0
1.5708 0.614957 0
1.1781 1.24071 0
1.5708 1.24071 0
0 1.24071 0
0.392699 1.24071 0
0 1.86602 0
0.392699 1.86602 0
0.392699 1.24071 0
0.785398 1.24071 0
0.392699 1.86602 0
0.785398 1.86602 0
0 1.86602 0
0.392699 1.86602 0
0 2.49168 0
0.392699 2.49168 0
0.392699 1.86602 0
0.785398 1.86602 0
0.392699 2.49168 0
0.785398 2.49168 0
0.785398 1.24071 0
1.1781 1.24071 0
0.785398 1.86602 0
1.1781 1.86602 0
1.1781 1.24071 0
1.5708 1.24071 0
1.1781 1.86602 0
1.5708 1.86602 0
0.785398 1.86602 0
1.1781 1.86602 0
0.785398 2.49168 0
1.1781 2.49168 0
1.1781 1.86602 0
1.5708 1.86602 0
1.1781 2.49168 0
1.5708 2.49168 0
1.5708 0 0
1.9635 0 0
1.5708 0.614957 0
1.9635 0.614957 0
1.9635 0 0
2.35619 0 0
1.9635 0.614957 0
2.35619 0.614957 0
1.5708 0.614957 0
1.9635 0.614957 0
1.5708 1.24071 0
1.9635 1.24071 0
1.9635 0.614957 0
2.35619 0.614957 0
1.9635 1.24071 0
2.35619 1.24071 0
2.35619 0 0
2.74889 0 0
2.35619 0.614957 0
2.74889 0.614957 0
2.74889 0 0
3.14159 0 0
2.74889 0.614957 0
3.14159 0.614957 0
2.35619 0.614957 0
2.74889 0.614957 0
2.35619 1.24071 0
2.74889 1.24071 0
2.74889 0.614957 0
3.14159 0.614957 0
2.74889 1.24071 0
3.14159 1.24071 0
1.5708 1.24071 0
1.9635 1.24071 0
1.5708 1.86602 0
1.9635 1.86602 0
1.9635 1.24071 0
2.35619 1.24071 0
1.9635 1.86602 0
2.35619 1.86602 0
1.5708 1.86602 0
1.9635 1.86602 0
1.5708 2.49168 0
1.9635 2.49168 0
1.9635 1.86602 0
2.35619 1.86602 0
1.9635 2.49168 0
2.35619 2.49168 0
2.35619 1.24071 0
2.74889 1.24071 0
2.35619 1.86602 0
2.74889 1.86602 0
2.74889 1.24071 0
3.14159 1.24071 0
2.74889 1.86602 0
3.14159 1.86602 0
2.35619 1.86602 0
2.74889 1.86602 0
2.35619 2.49168 0
2.74889 2.49168 0
2.74889 1.86602 0
3.14159 1.86602 0
2.74889 2.49168 0
3.14159 2.49168 0
0 2.49168 0
0.392699 2.49168 0
0 3.11725 0
0.392699 3.11725 0
0.392699 2.49168 0
0.785398 2.49168 0
0.392699 3.11725 0
0.785398 3.11725 0
0 3.11725 0
0.392699 3.11725 0
0 3.74282 0
0.392699 3.74282 0
0.392699 3.11725 0
0.785398 3.11725 0
0.392699 3.74282 0
0.785398 3.74282 0
0.785398 2.49168 0
1.1781 2.49168 0
0.785398 3.11725 0
1.1781 3.11725 0
1.1781 2.49168 0
1.5708 2.49168 0
1.1781 3.11725 0
1.5708 3.11725 0
0.785398 3.11725 0
1.1781 3.11725 0
0.785398 3.74282 0
1.1781 3.74282 0
1.1781 3.11725 0
1.5708 3.11725 0
1.1781 3.74282 0
1.5708 3.74282 0
0 3.74282 0
0.392699 3.74282 0
0 4.36836 0
0.392699 4.36836 0
0.392699 3.74282 0
0.785398 3.74282 0
0.392699 4.36836 0
0.785398 4.36836 0
0 4.36836 0
0.392699 4.36836 0
0 4.99387 0
0.392699 4.99387 0
0.392699 4.36836 0
0.785398 4.36836 0
0.392699 4.99387 0
0.785398 4.99387 0
0.785398 3.74282 0
1.1781 3.74282 0
0.785398 4.36836 0
1.1781 4.36836 0
1.1781 3.74282 0
1.5708 3.74282 0
1.1781 4.36836 0
1.5708 4.36836 0
0.785398 4.36836 0
1.1781 4.36836 0
0.785398 4.99387 0
1.1781 4.99387 0
1.1781 4.36836 0
1.5708 4.36836 0
1.1781 4.99387 0
1.5708 4.99387 0
1.5708 2.49168 0
1.9635 2.49168 0
1.5708 3.11725 0
1.9635 3.11725 0
1.9635 2.49168 0
2.35619 2.49168 0
1.9635 3.11725 0
2.35619 3.11725 0
1.5708 3.11725 0
1.9635 3.11725 0
1.5708 3.74282 0
1.9635 3.74282 0
1.9635 3.11725 0
2.35619 3.11725 0
1.9635 3.74282 0
2.35619 3.74282 0
2.35619 2.49168 0
2.74889 2.49168 0
2.35619 3.11725 0
2.74889 3.11725 0
2.74889 2.49168 0
3.14159 2.49168 0
2.74889 3.11725 0
3.14159 3.11725 0
2.35619 3.11725 0
2.74889 3.11725 0
2.35619 3.74282 0
2.74889 3.74282 0
2.74889 3.11725 0
3.14159 3.11725 0
2.74889 3.74282 0
3.14159 3.74282 0
1.5708 3.74282 0
1.9635 3.74282 0
1.5708 4.36836 0
1.9635 4.36836 0
1.9635 3.74282 0
2.35619 3.74282 0
1.9635 4.36836 0
2.35619 4.36836 0
1.5708 4.36836 0
1.9635 4.36836 0
1.5708 4.99387 0
1.9635 4.99387 0
1.9635 4.36836 0
2.35619 4.36836 0
1.9635 4.99387 0
2.35619 4.99387 0
2.35619 3.74282 0
2.74889 3.74282 0
2.35619 4.36836 0
2.74889 4.36836 0
2.74889 3.74282 0
3.14159 3.74282 0
2.74889 4.36836 0
3.14159 4.36836 0
2.35619 4.36836 0
2.74889 4.36836 0
2.35619 4.99387 0
2.74889 4.99387 0
2.74889 4.36836 0
3.14159 4.36836 0
2.74889 4.99387 0
3.14159 4.99387 0
3.14159 0 0
3.53429 0 0
3.14159 0.614957 0
3.53429 0.614957 0
3.53429 0 0
3.92699 0 0
3.53429 0.614957 0
3.92699 0.614957 0
3.14159 0.614957 0
3.53429 0.614957 0
3.14159 1.24071 0
3.53429 1.24071 0
3.53429 0.614957 0
3.92699 0.614957 0
3.53429 1.24071 0
3.92699 1.24071 0
3.92699 0 0
4.31969 0 0
3.92699 0.614957 0
4.31969 0.614957 0
4.31969 0 0
4.71239 0 0
4.31969 0.614957 0
4.71239 0.614957 0
3.92699 0.614957 0
4.31969 0.614957 0
3.92699 1.24071 0
4.31969 1.24071 0
4.31969 0.614957 0
4.71239 0.614957 0
4.31969 1.24071 0
4.71239 1.24071 0
3.14159 1.24071 0
3.53429 1.24071 0
3.14159 1.86602 0
3.53429 1.86602 0
3.53429 1.24071 0
3.92699 1.24071 0
3.53429 1.86602 0
3.92699 1.86602 0
3.14159 1.86602 0
3.53429 1.86602 0
3.14159 2.49168 0
3.53429 2.49168 0
3.53429 1.86602 0
3.92699 1.86602 0
3.53429 2.49168 0
3.92699 2.49168 0
3.92699 1.24071 0
4.31969 1.24071 0
3.92699 1.86602 0
4.31969 1.86602 0
4.31969 1.24071 0
4.71239 1.24071 0
4.31969 1.86602 0
4.71239 1.86602 0
3.92699 1.86602 0
4.31969 1.86602 0
3.92699 2.49168 0
4.31969 2.49168 0
4.31969 1.86602 0
4.71239 1.86602 0
4.31969 2.49168 0
4.71239 2.49168 0
4.71239 0 0
5.10509 0 0
4.71239 0.614957 0
5.10509 0.614957 0
5.10509 0 0
5.49779 0 0
5.10509 0.614957 0
5.49779 0.614957 0
4.71239 0.614957 0
5.10509 0.614957 0
4.71239 1.24071 0
5.10509 1.24071 0
5.10509 0.614957 0
5.49779 0.614957 0
5.10509 1.24071 0
5.49779 1.24071 0
5.49779 0 0
5.89049 0 0
5.49779 0.614957 0
5.89049 0.614957 0
5.89049 0 0
6.28319 0 0
5.89049 0.614957 0
6.28319 0.614957 0
5.49779 0.614957 0
5.89049 0.614957 0
5.49779 1.24071 0
5.89049 1.24071 0
5.89049 0.614957 0
6.28319 0.614957 0
5.89049 1.24071 0
6.28319 1.24071 0
4.71239 1.24071 0
5.10509 1.24071 0
4.71239 1.86602 0
5.10509 1.86602 0
5.10509 1.24071 0
5.49779 1.24071 0
5.10509 1.86602 0
5.49779 1.86602 0
4.71239 1.86602 0
5.10509 1.86602 0
4.71239 2.49168 0
5.10509 2.49168 0
5.10509 1.86602 0
5.49779 1.86602 0
5.10509 2.49168 0
5.49779 2.49168 0
5.49779 1.24071 0
5.89049 1.24071 0
5.49779 1.86602 0
5.89049 1.86602 0
5.89049 1.24071 0
6.28319 1.24071 0
5.89049 1.86602 0
6.28319 1.86602 0
5.49779 1.86602 0
5.89049 1.86602 0
5.49779 2.49168 0
5.89049 2.49168 0
5.89049 1.86602 0
6.28319 1.86602 0
5.89049 2.49168 0
6.28319 2.49168 0
3.14159 2.49168 0
3.53429 2.49168 0
3.14159 3.11725 0
3.53429 3.11725 0
3.53429 2.49168 0
3.92699 2.49168 0
3.53429 3.11725 0
3.92699 3.11725 0
3.14159 3.11725 0
3.53429 3.11725 0
3.14159 3.74282 0
3.53429 3.74282 0
3.53429 3.11725 0
3.92699 3.11725 0
3.53429 3.74282 0
3.92699 3.74282 0
3.92699 2.49168 0
4.31969 2.49168 0
3.92699 3.11725 0
4.31969 3.11725 0
4.31969 2.49168 0
4.71239 2.49168 0
4.31969 3.11725 0
4.71239 3.11725 0
3.92699 3.11725 0
4.31969 3.11725 0
3.92699 3.74282 0
4.31969 3.74282 0
4.31969 3.11725 0
4.71239 3.11725 0
4.31969 3.74282 0
4.71239 3.74282 0
3.14159 3.74282 0
3.53429 3.74282 0
3.14159 4.36836 0
3.53429 4.36836 0
3.53429 3.74282 0
3.92699 3.74282 0
3.53429 4.36836 0
3.92699 4.36836 0
3.14159 4.36836 0
3.53429 4.36836 0
3.14159 4.99387 0
3.53429 4.99387 0
3.53429 4.36836 0
3.92699 4.36836 0
3.53429 4.99387 0
3.92699 4.99387 0
3.92699 3.74282 0
4.31969 3.74282 0
3.92699 4.36836 0
4.31969 4.36836 0
4.31969 3.74282 0
4.71239 3.74282 0
4.31969 4.36836 0
4.71239 4.36836 0
3.92699 4.36836 0
4.31969 4.36836 0
3.92699 4.99387 0
4.31969 4.99387 0
4.31969 4.36836 0
4.71239 4.36836 0
4.31969 4.99387 0
4.71239 4.99387 0
4.71239 2.49168 0
5.10509 2.49168 0
4.71239 3.11725 0
5.10509 3.11725 0
5.10509 2.49168 0
5.49779 2.49168 0
5.10509 3.11725 0
5.49779 3.11725 0
4.71239 3.11725 0
5.10509 3.11725 0
4.71239 3.74282 0
5.10509 3.74282 0
5.10509 3.11725 0
5.49779 3.11725 0
5.10509 3.74282 0
5.49779 3.74282 0
5.49779 2.49168 0
5.89049 2.49168 0
5.49779 3.11725 0
5.89049 3.11725 0
5.89049 2.49168 0
6.28319 2.49168 0
5.89049 3.11725 0
6.28319 3.11725 0
5.49779 3.11725 0
5.89049 3.11725 0
5.49779 3.74282 0
5.89049 3.74282 0
5.89049 3.11725 0
6.28319 3.11725 0
5.89049 3.74282 0
6.28319 3.74282 0
4.71239 3.74282 0
5.10509 3.74282 0
4.71239 4.36836 0
5.10509 4.36836 0
5.10509 3.74282 0
5.49779 3.74282 0
5.10509 4.36836 0
5.49779 4.36836 0
4.71239 4.36836 0
5.10509 4.36836 0
4.71239 4.99387 0
5.10509 4.99387 0
5.10509 4.36836 0
5.49779 4.36836 0
5.10509 4.99387 0
5.49779 4.99387 0
5.49779 3.74282 0
5.89049 3.74282 0
5.49779 4.36836 0
5.89049 4.36836 0
5.89049 3.74282 0
6.28319 3.74282 0
5.89049 4.36836 0
6.28319 4.36836 0
5.49779 4.36836 0
5.89049 4.36836 0
5.49779 4.99387 0
5.89049 4.99387 0
5.89049 4.36836 0
6.28319 4.36836 0
5.89049 4.99387 0
6.28319 4.99387 0
0 4.99387 0
0.392699 4.99387 0
0 5.61934 0
0.392699 5.61934 0
0.392699 4.99387 0
0.785398 4.99387 0
0.392699 5.61934 0
0.785398 5.61934 0
0 5.61934 0
0.392699 5.61934 0
0 6.24478 0
0.392699 6.24478 0
0.392699 5.61934 0
0.785398 5.61934 0
0.392699 6.24478 0
0.785398 6.24478 0
0.785398 4.99387 0
1.1781 4.99387 0
0.785398 5.61934 0
1.1781 5.61934 0
1.1781 4.99387 0
1.5708 4.99387 0
1.1781 5.61934 0
1.5708 5.61934 0
0.785398 5.61934 0
1.1781 5.61934 0
0.785398 6.24478 0
1.1781 6.24478 0
1.1781 5.61934 0
1.5708 5.61934 0
1.1781 6.24478 0
1.5708 6.24478 0
0 6.24478 0
0.392699 6.24478 0
0 6.8702 0
0.392699 6.8702 0
0.392699 6.24478 0
0.785398 6.24478 0
0.392699 6.8702 0
0.785398 6.8702 0
0 6.8702 0
0.392699 6.8702 0
0 7.49562 0
0.392699 7.49562 0
0.392699 6.8702 0
0.785398 6.8702 0
0.392699 7.49562 0
0.785398 7.49562 0
0.785398 6.24478 0
1.1781 6.24478 0
0.785398 6.8702 0
[...]
POINT_DATA 5120
VECTORS uf double
0 1 0
-2.94765e-14 1 0
0 1.00214 0
-2.12293e-14 1.00214 0
-2.94765e-14 1 0
-8.27652e-15 1 0
-2.12293e-14 1.00214 0
-1.47384e-15 1.00214 0
0 1.00214 0
4.27088e-15 1.00214 0
0 1.00323 0
5.13737e-16 1.00323 0
4.27088e-15 1.00214 0
9.7032e-15 1.00214 0
5.13737e-16 1.00323 0
8.69439e-15 1.00323 0
-8.27652e-15 1 0
4.56053e-14 1 0
-1.47384e-15 1.00214 0
5.32447e-14 1.00214 0
4.56053e-14 1 0
-2.78297e-15 1 0
5.32447e-14 1.00214 0
9.0061e-15 1.00214 0
9.7032e-15 1.00214 0
-6.12817e-14 1.00214 0
8.69439e-15 1.00323 0
-3.56685e-14 1.00323 0
-6.12817e-14 1.00214 0
-7.4093e-15 1.00214 0
-3.56685e-14 1.00323 0
5.4751e-15 1.00323 0
0 1.00323 0
1.09504e-14 1.00323 0
0 1.00457 0
4.98132e-15 1.00457 0
1.09504e-14 1.00323 0
-7.45673e-15 1.00323 0
4.98132e-15 1.00457 0
-7.24301e-15 1.00457 0
0 1.00457 0
1.5521e-14 1.00457 0
0 1.00581 0
1.96429e-14 1.00581 0
1.5521e-14 1.00457 0
1.67967e-14 1.00457 0
1.96429e-14 1.00581 0
2.70922e-14 1.00581 0
-7.45673e-15 1.00323 0
-4.8038e-15 1.00323 0
-7.24301e-15 1.00457 0
5.21018e-15 1.00457 0
-4.8038e-15 1.00323 0
-1.0718e-14 1.00323 0
5.21018e-15 1.00457 0
9.21244e-15 1.00457 0
1.67967e-14 1.00457 0
-2.45855e-15 1.00457 0
2.70922e-14 1.00581 0
3.97715e-15 1.00581 0
-2.45855e-15 1.00457 0
-3.24133e-14 1.00457 0
3.97715e-15 1.00581 0
-2.18008e-14 1.00581 0
-2.78297e-15 1 0
-1.90636e-14 1 0
9.0061e-15 1.00214 0
-8.89764e-15 1.00214 0
-1.90636e-14 1 0
-5.45164e-15 1 0
-8.89764e-15 1.00214 0
3.92406e-15 1.00214 0
-7.4093e-15 1.00214 0
1.37338e-14 1.00214 0
5.4751e-15 1.00323 0
1.67978e-14 1.00323 0
1.37338e-14 1.00214 0
-3.42142e-15 1.00214 0
1.67978e-14 1.00323 0
4.23795e-15 1.00323 0
-5.45164e-15 1 0
-2.31928e-15 1 0
3.92406e-15 1.00214 0
-3.8311e-15 1.00214 0
-2.31928e-15 1 0
-5.45565e-16 1 0
-3.8311e-15 1.00214 0
-1.293e-15 1.00214 0
-3.42142e-15 1.00214 0
3.72216e-15 1.00214 0
4.23795e-15 1.00323 0
-8.80368e-16 1.00323 0
3.72216e-15 1.00214 0
-4.5652e-16 1.00214 0
-8.80368e-16 1.00323 0
4.7518e-15 1.00323 0
-1.0718e-14 1.00323 0
-3.75916e-15 1.00323 0
9.21244e-15 1.00457 0
8.44938e-15 1.00457 0
-3.75916e-15 1.00323 0
-1.06795e-15 1.00323 0
8.44938e-15 1.00457 0
7.97949e-15 1.00457 0
-3.24133e-14 1.00457 0
-4.47603e-15 1.00457 0
-2.18008e-14 1.00581 0
8.10539e-15 1.00581 0
-4.47603e-15 1.00457 0
-8.59192e-15 1.00457 0
8.10539e-15 1.00581 0
1.03872e-14 1.00581 0
-1.06795e-15 1.00323 0
-1.61093e-15 1.00323 0
7.97949e-15 1.00457 0
1.34725e-14 1.00457 0
-1.61093e-15 1.00323 0
-4.35423e-15 1.00323 0
1.34725e-14 1.00457 0
1.31392e-14 1.00457 0
-8.59192e-15 1.00457 0
-1.06538e-14 1.00457 0
1.03872e-14 1.00581 0
1.00064e-14 1.00581 0
-1.06538e-14 1.00457 0
-1.15978e-14 1.00457 0
1.00064e-14 1.00581 0
7.29886e-15 1.00581 0
0 1.00581 0
-9.26483e-15 1.00581 0
0 1.00705 0
-1.2273e-14 1.00705 0
-9.26483e-15 1.00581 0
-3.93281e-14 1.00581 0
-1.2273e-14 1.00705 0
-2.92348e-14 1.00705 0
0 1.00705 0
7.27558e-15 1.00705 0
0 1.00827 0
6.65171e-15 1.00827 0
7.27558e-15 1.00705 0
5.39404e-14 1.00705 0
6.65171e-15 1.00827 0
5.56173e-14 1.00827 0
-3.93281e-14 1.00581 0
-1.31222e-14 1.00581 0
-2.92348e-14 1.00705 0
9.77424e-15 1.00705 0
-1.31222e-14 1.00581 0
4.87395e-14 1.00581 0
9.77424e-15 1.00705 0
3.45999e-14 1.00705 0
5.39404e-14 1.00705 0
-3.47371e-15 1.00705 0
5.56173e-14 1.00827 0
2.1484e-14 1.00827 0
-3.47371e-15 1.00705 0
-4.43341e-14 1.00705 0
2.1484e-14 1.00827 0
-2.70867e-14 1.00827 0
0 1.00827 0
1.30516e-14 1.00827 0
0 1.00947 0
8.2576e-15 1.00947 0
1.30516e-14 1.00827 0
-7.45225e-14 1.00827 0
8.2576e-15 1.00947 0
-6.9846e-14 1.00947 0
0 1.00947 0
-4.25399e-15 1.00947 0
0 1.01066 0
-3.63704e-15 1.01066 0
-4.25399e-15 1.00947 0
6.25931e-14 1.00947 0
-3.63704e-15 1.01066 0
6.20295e-14 1.01066 0
-7.45225e-14 1.00827 0
-2.01092e-14 1.00827 0
-6.9846e-14 1.00947 0
-8.02299e-15 1.00947 0
-2.01092e-14 1.00827 0
4.65496e-14 1.00827 0
-8.02299e-15 1.00947 0
5.46141e-14 1.00947 0
6.25931e-14 1.00947 0
7.38227e-15 1.00947 0
6.20295e-14 1.01066 0
1.33591e-14 1.01066 0
7.38227e-15 1.00947 0
-5.79804e-14 1.00947 0
1.33591e-14 1.01066 0
-4.06602e-14 1.01066 0
4.87395e-14 1.00581 0
-1.44344e-14 1.00581 0
3.45999e-14 1.00705 0
-4.30617e-15 1.00705 0
-1.44344e-14 1.00581 0
-9.56798e-15 1.00581 0
-4.30617e-15 1.00705 0
4.10142e-15 1.00705 0
-4.43341e-14 1.00705 0
-5.45382e-15 1.00705 0
-2.70867e-14 1.00827 0
-2.72488e-15 1.00827 0
-5.45382e-15 1.00705 0
-4.71817e-15 1.00705 0
-2.72488e-15 1.00827 0
6.81037e-15 1.00827 0
-9.56798e-15 1.00581 0
-5.86631e-15 1.00581 0
4.10142e-15 1.00705 0
7.0777e-15 1.00705 0
-5.86631e-15 1.00581 0
-1.27223e-14 1.00581 0
7.0777e-15 1.00705 0
1.52114e-14 1.00705 0
-4.71817e-15 1.00705 0
-7.68509e-15 1.00705 0
6.81037e-15 1.00827 0
5.45143e-15 1.00827 0
-7.68509e-15 1.00705 0
-7.96579e-15 1.00705 0
5.45143e-15 1.00827 0
6.58908e-15 1.00827 0
4.65496e-14 1.00827 0
2.42932e-14 1.00827 0
5.46141e-14 1.00947 0
3.22518e-14 1.00947 0
2.42932e-14 1.00827 0
-3.51537e-15 1.00827 0
3.22518e-14 1.00947 0
5.95639e-15 1.00947 0
-5.79804e-14 1.00947 0
-2.25195e-14 1.00947 0
-4.06602e-14 1.01066 0
-1.04079e-14 1.01066 0
-2.25195e-14 1.00947 0
-2.57329e-16 1.00947 0
-1.04079e-14 1.01066 0
6.38005e-15 1.01066 0
-3.51537e-15 1.00827 0
-4.60763e-15 1.00827 0
5.95639e-15 1.00947 0
9.10791e-15 1.00947 0
-4.60763e-15 1.00827 0
-2.60439e-15 1.00827 0
9.10791e-15 1.00947 0
7.34975e-15 1.00947 0
-2.57329e-16 1.00947 0
-9.22416e-15 1.00947 0
6.38005e-15 1.01066 0
6.2423e-15 1.01066 0
-9.22416e-15 1.00947 0
-6.48555e-15 1.00947 0
6.2423e-15 1.01066 0
7.89005e-15 1.01066 0
-5.45565e-16 1 0
-5.30615e-15 1 0
-1.293e-15 1.00214 0
9.73996e-15 1.00214 0
-5.30615e-15 1 0
-4.39538e-15 1 0
9.73996e-15 1.00214 0
7.64236e-15 1.00214 0
-4.5652e-16 1.00214 0
-3.77131e-15 1.00214 0
4.7518e-15 1.00323 0
1.1227e-14 1.00323 0
-3.77131e-15 1.00214 0
-2.29152e-15 1.00214 0
1.1227e-14 1.00323 0
5.72997e-15 1.00323 0
-4.39538e-15 1 0
-2.55265e-15 1 0
7.64236e-15 1.00214 0
5.94228e-15 1.00214 0
-2.55265e-15 1 0
-5.90815e-15 1 0
5.94228e-15 1.00214 0
1.31147e-14 1.00214 0
-2.29152e-15 1.00214 0
-5.1837e-15 1.00214 0
5.72997e-15 1.00323 0
5.80753e-15 1.00323 0
-5.1837e-15 1.00214 0
-7.72816e-15 1.00214 0
5.80753e-15 1.00323 0
8.71921e-15 1.00323 0
-4.35423e-15 1.00323 0
-1.08107e-14 1.00323 0
1.31392e-14 1.00457 0
1.10432e-14 1.00457 0
-1.08107e-14 1.00323 0
2.71958e-18 1.00323 0
1.10432e-14 1.00457 0
3.55785e-15 1.00457 0
-1.15978e-14 1.00457 0
-5.61619e-15 1.00457 0
7.29886e-15 1.00581 0
7.50453e-15 1.00581 0
-5.61619e-15 1.00457 0
-5.13973e-15 1.00457 0
7.50453e-15 1.00581 0
5.76577e-15 1.00581 0
2.71958e-18 1.00323 0
4.66998e-15 1.00323 0
3.55785e-15 1.00457 0
-4.99171e-17 1.00457 0
4.66998e-15 1.00323 0
-4.18241e-15 1.00323 0
-4.99171e-17 1.00457 0
7.66863e-15 1.00457 0
-5.13973e-15 1.00457 0
-1.12087e-14 1.00457 0
5.76577e-15 1.00581 0
7.28064e-15 1.00581 0
-1.12087e-14 1.00457 0
-1.75083e-15 1.00457 0
7.28064e-15 1.00581 0
5.71855e-15 1.00581 0
-5.90815e-15 1 0
-3.28261e-15 1 0
1.31147e-14 1.00214 0
1.12499e-14 1.00214 0
-3.28261e-15 1 0
-3.15358e-15 1 0
1.12499e-14 1.00214 0
6.26924e-15 1.00214 0
-7.72816e-15 1.00214 0
-5.64996e-15 1.00214 0
8.71921e-15 1.00323 0
1.00868e-14 1.00323 0
-5.64996e-15 1.00214 0
-4.31647e-15 1.00214 0
1.00868e-14 1.00323 0
1.2672e-14 1.00323 0
-3.15358e-15 1 0
-1.81234e-15 1 0
6.26924e-15 1.00214 0
9.13659e-15 1.00214 0
-1.81234e-15 1 0
4.0256e-15 1 0
9.13659e-15 1.00214 0
6.51197e-15 1.00214 0
-4.31647e-15 1.00214 0
-1.81528e-16 1.00214 0
1.2672e-14 1.00323 0
4.81676e-15 1.00323 0
-1.81528e-16 1.00214 0
-6.03645e-15 1.00214 0
4.81676e-15 1.00323 0
7.90896e-15 1.00323 0
-4.18241e-15 1.00323 0
-8.24519e-15 1.00323 0
7.66863e-15 1.00457 0
9.93363e-15 1.00457 0
-8.24519e-15 1.00323 0
-2.44737e-16 1.00323 0
9.93363e-15 1.00457 0
4.17357e-15 1.00457 0
-1.75083e-15 1.00457 0
-4.74689e-15 1.00457 0
5.71855e-15 1.00581 0
7.67847e-15 1.00581 0
-4.74689e-15 1.00457 0
-7.95988e-15 1.00457 0
7.67847e-15 1.00581 0
6.19127e-15 1.00581 0
-2.44737e-16 1.00323 0
-1.20234e-14 1.00323 0
4.17357e-15 1.00457 0
1.41465e-14 1.00457 0
-1.20234e-14 1.00323 0
-6.34675e-15 1.00323 0
1.41465e-14 1.00457 0
4.70299e-15 1.00457 0
-7.95988e-15 1.00457 0
-3.24843e-15 1.00457 0
6.19127e-15 1.00581 0
3.52749e-15 1.00581 0
-3.24843e-15 1.00457 0
-2.55065e-15 1.00457 0
3.52749e-15 1.00581 0
9.68958e-15 1.00581 0
-1.27223e-14 1.00581 0
-7.00442e-15 1.00581 0
1.52114e-14 1.00705 0
4.66805e-15 1.00705 0
-7.00442e-15 1.00581 0
-8.33069e-15 1.00581 0
4.66805e-15 1.00705 0
6.08566e-15 1.00705 0
-7.96579e-15 1.00705 0
-5.17998e-15 1.00705 0
6.58908e-15 1.00827 0
1.08901e-15 1.00827 0
-5.17998e-15 1.00705 0
-2.88289e-15 1.00705 0
1.08901e-15 1.00827 0
5.44029e-15 1.00827 0
-8.33069e-15 1.00581 0
7.25656e-16 1.00581 0
6.08566e-15 1.00705 0
5.47008e-15 1.00705 0
7.25656e-16 1.00581 0
-8.29512e-15 1.00581 0
5.47008e-15 1.00705 0
1.03549e-14 1.00705 0
-2.88289e-15 1.00705 0
-2.41386e-15 1.00705 0
5.44029e-15 1.00827 0
3.91205e-16 1.00827 0
-2.41386e-15 1.00705 0
-5.37531e-15 1.00705 0
3.91205e-16 1.00827 0
5.76883e-15 1.00827 0
-2.60439e-15 1.00827 0
1.4179e-15 1.00827 0
7.34975e-15 1.00947 0
9.2258e-15 1.00947 0
1.4179e-15 1.00827 0
-3.06147e-15 1.00827 0
9.2258e-15 1.00947 0
7.79948e-15 1.00947 0
-6.48555e-15 1.00947 0
-5.1611e-15 1.00947 0
7.89005e-15 1.01066 0
6.95637e-15 1.01066 0
-5.1611e-15 1.00947 0
-5.19448e-15 1.00947 0
6.95637e-15 1.01066 0
5.50683e-15 1.01066 0
-3.06147e-15 1.00827 0
-4.23465e-15 1.00827 0
7.79948e-15 1.00947 0
4.9737e-15 1.00947 0
-4.23465e-15 1.00827 0
-8.22563e-16 1.00827 0
4.9737e-15 1.00947 0
4.8983e-15 1.00947 0
-5.19448e-15 1.00947 0
-3.8285e-16 1.00947 0
5.50683e-15 1.01066 0
6.90333e-15 1.01066 0
-3.8285e-16 1.00947 0
-2.45986e-15 1.00947 0
6.90333e-15 1.01066 0
2.07653e-15 1.01066 0
-8.29512e-15 1.00581 0
-2.14024e-15 1.00581 0
1.03549e-14 1.00705 0
3.50915e-15 1.00705 0
-2.14024e-15 1.00581 0
-2.53552e-15 1.00581 0
3.50915e-15 1.00705 0
9.91748e-15 1.00705 0
-5.37531e-15 1.00705 0
-1.84948e-15 1.00705 0
5.76883e-15 1.00827 0
6.65964e-15 1.00827 0
-1.84948e-15 1.00705 0
-1.07026e-15 1.00705 0
6.65964e-15 1.00827 0
5.71866e-16 1.00827 0
-2.53552e-15 1.00581 0
2.80402e-15 1.00581 0
9.91748e-15 1.00705 0
2.51913e-15 1.00705 0
2.80402e-15 1.00581 0
2.40617e-15 1.00581 0
2.51913e-15 1.00705 0
5.96232e-15 1.00705 0
-1.07026e-15 1.00705 0
-3.97716e-15 1.00705 0
5.71866e-16 1.00827 0
1.37695e-14 1.00827 0
-3.97716e-15 1.00705 0
-6.73148e-15 1.00705 0
1.37695e-14 1.00827 0
6.45066e-15 1.00827 0
-8.22563e-16 1.00827 0
6.10834e-17 1.00827 0
4.8983e-15 1.00947 0
5.07827e-15 1.00947 0
6.10834e-17 1.00827 0
7.39886e-16 1.00827 0
5.07827e-15 1.00947 0
6.94735e-15 1.00947 0
-2.45986e-15 1.00947 0
-5.26339e-15 1.00947 0
2.07653e-15 1.01066 0
5.51292e-15 1.01066 0
-5.26339e-15 1.00947 0
-1.24741e-14 1.00947 0
5.51292e-15 1.01066 0
1.44596e-14 1.01066 0
7.39886e-16 1.00827 0
-7.82775e-15 1.00827 0
6.94735e-15 1.00947 0
1.05415e-14 1.00947 0
-7.82775e-15 1.00827 0
-8.72794e-16 1.00827 0
1.05415e-14 1.00947 0
4.17852e-15 1.00947 0
-1.24741e-14 1.00947 0
-5.2552e-15 1.00947 0
1.44596e-14 1.01066 0
4.72318e-15 1.01066 0
-5.2552e-15 1.00947 0
8.85216e-16 1.00947 0
4.72318e-15 1.01066 0
2.52526e-15 1.01066 0
0 1.01066 0
-3.37806e-15 1.01066 0
0 1.01184 0
1.85886e-15 1.01184 0
-3.37806e-15 1.01066 0
-3.93114e-14 1.01066 0
1.85886e-15 1.01184 0
-3.71602e-14 1.01184 0
0 1.01184 0
2.00026e-16 1.01184 0
0 1.01302 0
-6.01883e-15 1.01302 0
2.00026e-16 1.01184 0
1.55029e-14 1.01184 0
-6.01883e-15 1.01302 0
2.6476e-14 1.01302 0
-3.93114e-14 1.01066 0
1.03952e-14 1.01066 0
-3.71602e-14 1.01184 0
6.41769e-15 1.01184 0
1.03952e-14 1.01066 0
3.06816e-14 1.01066 0
6.41769e-15 1.01184 0
3.80077e-14 1.01184 0
1.55029e-14 1.01184 0
-2.29587e-14 1.01184 0
2.6476e-14 1.01302 0
-1.47894e-14 1.01302 0
-2.29587e-14 1.01184 0
-9.79328e-15 1.01184 0
-1.47894e-14 1.01302 0
-6.62217e-15 1.01302 0
0 1.01302 0
-4.12817e-15 1.01302 0
0 1.01422 0
-6.53882e-15 1.01422 0
-4.12817e-15 1.01302 0
-2.41868e-14 1.01302 0
-6.53882e-15 1.01422 0
-7.27106e-15 1.01422 0
0 1.01422 0
5.92187e-15 1.01422 0
0 1.01543 0
1.05086e-14 1.01543 0
5.92187e-15 1.01422 0
1.65184e-14 1.01422 0
1.05086e-14 1.01543 0
1.77414e-14 1.01543 0
-2.41868e-14 1.01302 0
7.43443e-15 1.01302 0
-7.27106e-15 1.01422 0
6.14908e-15 1.01422 0
7.43443e-15 1.01302 0
-3.23081e-15 1.01302 0
6.14908e-15 1.01422 0
7.16427e-15 1.01422 0
1.65184e-14 1.01422 0
-3.03373e-15 1.01422 0
1.77414e-14 1.01543 0
2.87199e-15 1.01543 0
-3.03373e-15 1.01422 0
-5.97199e-15 1.01422 0
2.87199e-15 1.01543 0
2.01011e-15 1.01543 0
3.06816e-14 1.01066 0
-1.69283e-14 1.01066 0
3.80077e-14 1.01184 0
-7.23928e-15 1.01184 0
-1.69283e-14 1.01066 0
-8.46872e-15 1.01066 0
-7.23928e-15 1.01184 0
7.71742e-15 1.01184 0
-9.79328e-15 1.01184 0
1.26042e-14 1.01184 0
-6.62217e-15 1.01302 0
1.48276e-14 1.01302 0
1.26042e-14 1.01184 0
-4.86058e-15 1.01184 0
1.48276e-14 1.01302 0
5.77236e-15 1.01302 0
-8.46872e-15 1.01066 0
-6.11244e-16 1.01066 0
7.71742e-15 1.01184 0
5.31225e-15 1.01184 0
-6.11244e-16 1.01066 0
-1.52774e-15 1.01066 0
5.31225e-15 1.01184 0
2.35848e-15 1.01184 0
-4.86058e-15 1.01184 0
-5.54983e-15 1.01184 0
5.77236e-15 1.01302 0
5.33287e-15 1.01302 0
-5.54983e-15 1.01184 0
-7.85414e-15 1.01184 0
5.33287e-15 1.01302 0
5.842e-15 1.01302 0
-3.23081e-15 1.01302 0
-4.60354e-15 1.01302 0
7.16427e-15 1.01422 0
1.66193e-15 1.01422 0
-4.60354e-15 1.01302 0
-6.52237e-15 1.01302 0
1.66193e-15 1.01422 0
5.12691e-15 1.01422 0
-5.97199e-15 1.01422 0
-3.66635e-15 1.01422 0
2.01011e-15 1.01543 0
6.36069e-16 1.01543 0
-3.66635e-15 1.01422 0
-4.75399e-15 1.01422 0
6.36069e-16 1.01543 0
5.43094e-15 1.01543 0
-6.52237e-15 1.01302 0
-6.20046e-15 1.01302 0
5.12691e-15 1.01422 0
9.63544e-15 1.01422 0
-6.20046e-15 1.01302 0
-4.3908e-15 1.01302 0
9.63544e-15 1.01422 0
6.45097e-15 1.01422 0
-4.75399e-15 1.01422 0
-9.94412e-15 1.01422 0
5.43094e-15 1.01543 0
6.55925e-15 1.01543 0
-9.94412e-15 1.01422 0
-7.55605e-15 1.01422 0
6.55925e-15 1.01543 0
7.56897e-15 1.01543 0
0 1.01543 0
3.45697e-15 1.01543 0
0 1.01666 0
2.14811e-15 1.01666 0
3.45697e-15 1.01543 0
-1.05244e-14 1.01543 0
2.14811e-15 1.01666 0
-1.01127e-14 1.01666 0
0 1.01666 0
-7.50158e-15 1.01666 0
0 1.01786 0
-4.32842e-15 1.01786 0
-7.50158e-15 1.01666 0
9.12023e-15 1.01666 0
-4.32842e-15 1.01786 0
1.05224e-14 1.01786 0
-1.05244e-14 1.01543 0
-5.30502e-15 1.01543 0
-1.01127e-14 1.01666 0
5.14162e-15 1.01666 0
-5.30502e-15 1.01543 0
-5.87451e-15 1.01543 0
5.14162e-15 1.01666 0
4.73306e-15 1.01666 0
9.12023e-15 1.01666 0
5.26799e-16 1.01666 0
1.05224e-14 1.01786 0
1.83155e-15 1.01786 0
5.26799e-16 1.01666 0
-1.37843e-15 1.01666 0
1.83155e-15 1.01786 0
1.2641e-15 1.01786 0
0 1.01786 0
5.01944e-15 1.01786 0
0 1.01889 0
5.65097e-15 1.01889 0
5.01944e-15 1.01786 0
-9.63532e-15 1.01786 0
5.65097e-15 1.01889 0
-5.59823e-15 1.01889 0
0 1.01889 0
-2.08613e-15 1.01889 0
0 1.01928 0
-3.06168e-15 1.01928 0
-2.08613e-15 1.01889 0
-3.0546e-15 1.01889 0
-3.06168e-15 1.01928 0
1.18544e-14 1.01928 0
-9.63532e-15 1.01786 0
3.26915e-16 1.01786 0
-5.59823e-15 1.01889 0
-7.20799e-16 1.01889 0
3.26915e-16 1.01786 0
-1.91154e-15 1.01786 0
-7.20799e-16 1.01889 0
-4.15055e-17 1.01889 0
-3.0546e-15 1.01889 0
-3.28009e-15 1.01889 0
1.18544e-14 1.01928 0
-4.26109e-15 1.01928 0
-3.28009e-15 1.01889 0
-4.43184e-15 1.01889 0
-4.26109e-15 1.01928 0
1.89566e-15 1.01928 0
-5.87451e-15 1.01543 0
-2.4103e-15 1.01543 0
4.73306e-15 1.01666 0
7.36488e-15 1.01666 0
-2.4103e-15 1.01543 0
-4.89267e-15 1.01543 0
7.36488e-15 1.01666 0
5.71513e-15 1.01666 0
-1.37843e-15 1.01666 0
-3.68118e-15 1.01666 0
1.2641e-15 1.01786 0
6.91551e-16 1.01786 0
-3.68118e-15 1.01666 0
-4.46249e-15 1.01666 0
6.91551e-16 1.01786 0
5.01778e-15 1.01786 0
-4.89267e-15 1.01543 0
-3.05335e-15 1.01543 0
5.71513e-15 1.01666 0
3.47014e-15 1.01666 0
-3.05335e-15 1.01543 0
-3.68475e-15 1.01543 0
3.47014e-15 1.01666 0
3.49074e-15 1.01666 0
-4.46249e-15 1.01666 0
-6.20142e-15 1.01666 0
5.01778e-15 1.01786 0
3.79245e-15 1.01786 0
-6.20142e-15 1.01666 0
-3.82384e-15 1.01666 0
3.79245e-15 1.01786 0
4.37562e-15 1.01786 0
-1.91154e-15 1.01786 0
-4.43957e-15 1.01786 0
-4.15055e-17 1.01889 0
3.73025e-16 1.01889 0
-4.43957e-15 1.01786 0
-3.40862e-15 1.01786 0
3.73025e-16 1.01889 0
1.56383e-15 1.01889 0
-4.43184e-15 1.01889 0
-4.48611e-15 1.01889 0
1.89566e-15 1.01928 0
3.96457e-15 1.01928 0
-4.48611e-15 1.01889 0
-3.5736e-15 1.01889 0
3.96457e-15 1.01928 0
1.63543e-15 1.01928 0
-3.40862e-15 1.01786 0
-1.37366e-15 1.01786 0
1.56383e-15 1.01889 0
-5.53227e-16 1.01889 0
-1.37366e-15 1.01786 0
-3.09843e-15 1.01786 0
-5.53227e-16 1.01889 0
3.36516e-15 1.01889 0
-3.5736e-15 1.01889 0
-1.87924e-15 1.01889 0
1.63543e-15 1.01928 0
2.30091e-15 1.01928 0
-1.87924e-15 1.01889 0
-2.0011e-15 1.01889 0
2.30091e-15 1.01928 0
-5.96453e-15 1.01928 0
-1.52774e-15 1.01066 0
-3.79311e-15 1.01066 0
2.35848e-15 1.01184 0
8.10736e-15 1.01184 0
-3.79311e-15 1.01066 0
-6.43975e-15 1.01066 0
8.10736e-15 1.01184 0
7.83776e-15 1.01184 0
-7.85414e-15 1.01184 0
-8.78361e-15 1.01184 0
5.842e-15 1.01302 0
9.89013e-15 1.01302 0
-8.78361e-15 1.01184 0
-2.82765e-15 1.01184 0
9.89013e-15 1.01302 0
2.72281e-15 1.01302 0
-6.43975e-15 1.01066 0
-6.61055e-15 1.01066 0
7.83776e-15 1.01184 0
5.52772e-15 1.01184 0
-6.61055e-15 1.01066 0
-9.60283e-16 1.01066 0
5.52772e-15 1.01184 0
4.80868e-15 1.01184 0
-2.82765e-15 1.01184 0
-3.41758e-15 1.01184 0
2.72281e-15 1.01302 0
3.83644e-15 1.01302 0
-3.41758e-15 1.01184 0
-3.29024e-15 1.01184 0
3.83644e-15 1.01302 0
3.71866e-15 1.01302 0
-4.3908e-15 1.01302 0
-1.01461e-14 1.01302 0
6.45097e-15 1.01422 0
9.98331e-15 1.01422 0
-1.01461e-14 1.01302 0
-4.12069e-15 1.01302 0
9.98331e-15 1.01422 0
6.06446e-15 1.01422 0
-7.55605e-15 1.01422 0
-5.50758e-15 1.01422 0
7.56897e-15 1.01543 0
6.19571e-15 1.01543 0
-5.50758e-15 1.01422 0
-3.67921e-15 1.01422 0
6.19571e-15 1.01543 0
5.5541e-15 1.01543 0
-4.12069e-15 1.01302 0
-4.64623e-15 1.01302 0
6.06446e-15 1.01422 0
7.49333e-15 1.01422 0
-4.64623e-15 1.01302 0
-3.28787e-15 1.01302 0
7.49333e-15 1.01422 0
3.24238e-15 1.01422 0
-3.67921e-15 1.01422 0
-3.75647e-15 1.01422 0
5.5541e-15 1.01543 0
6.36102e-15 1.01543 0
-3.75647e-15 1.01422 0
6.61518e-16 1.01422 0
6.36102e-15 1.01543 0
3.47391e-15 1.01543 0
-9.60283e-16 1.01066 0
-3.06291e-15 1.01066 0
4.80868e-15 1.01184 0
4.96058e-15 1.01184 0
-3.06291e-15 1.01066 0
-4.63422e-15 1.01066 0
4.96058e-15 1.01184 0
1.04084e-14 1.01184 0
-3.29024e-15 1.01184 0
-3.61192e-15 1.01184 0
3.71866e-15 1.01302 0
5.40323e-15 1.01302 0
-3.61192e-15 1.01184 0
-1.45205e-16 1.01184 0
5.40323e-15 1.01302 0
1.02518e-15 1.01302 0
-4.63422e-15 1.01066 0
-1.0324e-15 1.01066 0
1.04084e-14 1.01184 0
7.13881e-15 1.01184 0
-1.0324e-15 1.01066 0
1.87634e-15 1.01066 0
7.13881e-15 1.01184 0
3.65262e-15 1.01184 0
-1.45205e-16 1.01184 0
-4.17972e-15 1.01184 0
1.02518e-15 1.01302 0
4.31727e-15 1.01302 0
-4.17972e-15 1.01184 0
-4.91319e-15 1.01184 0
4.31727e-15 1.01302 0
2.55495e-15 1.01302 0
-3.28787e-15 1.01302 0
-2.40113e-15 1.01302 0
3.24238e-15 1.01422 0
1.82142e-15 1.01422 0
-2.40113e-15 1.01302 0
-5.96427e-16 1.01302 0
1.82142e-15 1.01422 0
2.72373e-15 1.01422 0
6.61518e-16 1.01422 0
-6.85744e-16 1.01422 0
3.47391e-15 1.01543 0
4.55409e-15 1.01543 0
-6.85744e-16 1.01422 0
-7.09047e-15 1.01422 0
4.55409e-15 1.01543 0
6.85309e-15 1.01543 0
-5.96427e-16 1.01302 0
-5.08812e-15 1.01302 0
2.72373e-15 1.01422 0
4.6097e-15 1.01422 0
-5.08812e-15 1.01302 0
-3.02677e-15 1.01302 0
4.6097e-15 1.01422 0
3.93829e-15 1.01422 0
-7.09047e-15 1.01422 0
-2.24753e-15 1.01422 0
6.85309e-15 1.01543 0
1.0056e-15 1.01543 0
-2.24753e-15 1.01422 0
3.3401e-15 1.01422 0
1.0056e-15 1.01543 0
-1.92325e-15 1.01543 0
-3.68475e-15 1.01543 0
-7.11238e-15 1.01543 0
3.49074e-15 1.01666 0
6.49196e-15 1.01666 0
-7.11238e-15 1.01543 0
-4.90792e-15 1.01543 0
6.49196e-15 1.01666 0
5.03204e-15 1.01666 0
-3.82384e-15 1.01666 0
-2.5801e-15 1.01666 0
4.37562e-15 1.01786 0
2.23253e-15 1.01786 0
-2.5801e-15 1.01666 0
-4.47797e-15 1.01666 0
2.23253e-15 1.01786 0
3.22102e-15 1.01786 0
-4.90792e-15 1.01543 0
-2.67619e-15 1.01543 0