# vtk DataFile Version 3.0
#This file was generated by the deal.II library on 2018/10/12 at 0:02:32
ASCII
DATASET UNSTRUCTURED_GRID

POINTS 5120 double
0 0 0
0.392699 0 0
0 0.616611 0
0.392699 0.616611 0
0.392699 0 0
0.785398 0 0
0.392699 0.616611 0
0.785398 0.616611 0
0 0.616611 0
0.392699 0.616611 0
0 1.24223 0
0.392699 1.24223 0
0.392699 0.616611 0
0.785398 0.616611 0
0.392699 1.24223 0
0.785398 1.24223 0
0.785398 0 0
1.1781 0 0
0.785398 0.616611 0
1.1781 0.616611 0
1.1781 0 0
1.5708 0 0
1.1781 0.616611 0
1.5708 0.616611 0
0.785398 0.616611 0
1.1781 0.616611 0
0.785398 1.24223 0
1.1781 1.24223 0
1.1781 0.616611 0
1.5708 0.616611 0
1.1781 1.24223 0
1.5708 1.24223 0
0 1.24223 0
0.392699 1.24223 0
0 1.86748 0
0.392699 1.86748 0
0.392699 1.24223 0
0.785398 1.24223 0
0.392699 1.86748 0
0.785398 1.86748 0
0 1.86748 0
0.392699 1.86748 0
0 2.49302 0
0.392699 2.49302 0
0.392699 1.86748 0
0.785398 1.86748 0
0.392699 2.49302 0
0.785398 2.49302 0
0.785398 1.24223 0
1.1781 1.24223 0
0.785398 1.86748 0
1.1781 1.86748 0
1.1781 1.24223 0
1.5708 1.24223 0
1.1781 1.86748 0
1.5708 1.86748 0
0.785398 1.86748 0
1.1781 1.86748 0
0.785398 2.49302 0
1.1781 2.49302 0
1.1781 1.86748 0
1.5708 1.86748 0
1.1781 2.49302 0
1.5708 2.49302 0
1.5708 0 0
1.9635 0 0
1.5708 0.616611 0
1.9635 0.616611 0
1.9635 0 0
2.35619 0 0
1.9635 0.616611 0
2.35619 0.616611 0
1.5708 0.616611 0
1.9635 0.616611 0
1.5708 1.24223 0
1.9635 1.24223 0
1.9635 0.616611 0
2.35619 0.616611 0
1.9635 1.24223 0
2.35619 1.24223 0
2.35619 0 0
2.74889 0 0
2.35619 0.616611 0
2.74889 0.616611 0
2.74889 0 0
3.14159 0 0
2.74889 0.616611 0
3.14159 0.616611 0
2.35619 0.616611 0
2.74889 0.616611 0
2.35619 1.24223 0
2.74889 1.24223 0
2.74889 0.616611 0
3.14159 0.616611 0
2.74889 1.24223 0
3.14159 1.24223 0
1.5708 1.24223 0
1.9635 1.24223 0
1.5708 1.86748 0
1.9635 1.86748 0
1.9635 1.24223 0
2.35619 1.24223 0
1.9635 1.86748 0
2.35619 1.86748 0
1.5708 1.86748 0
1.9635 1.86748 0
1.5708 2.49302 0
1.9635 2.49302 0
1.9635 1.86748 0
2.35619 1.86748 0
1.9635 2.49302 0
2.35619 2.49302 0
2.35619 1.24223 0
2.74889 1.24223 0
2.35619 1.86748 0
2.74889 1.86748 0
2.74889 1.24223 0
3.14159 1.24223 0
2.74889 1.86748 0
3.14159 1.86748 0
2.35619 1.86748 0
2.74889 1.86748 0
2.35619 2.49302 0
2.74889 2.49302 0
2.74889 1.86748 0
3.14159 1.86748 0
2.74889 2.49302 0
3.14159 2.49302 0
0 2.49302 0
0.392699 2.49302 0
0 3.11848 0
0.392699 3.11848 0
0.392699 2.49302 0
0.785398 2.49302 0
0.392699 3.11848 0
0.785398 3.11848 0
0 3.11848 0
0.392699 3.11848 0
0 3.74394 0
0.392699 3.74394 0
0.392699 3.11848 0
0.785398 3.11848 0
0.392699 3.74394 0
0.785398 3.74394 0
0.785398 2.49302 0
1.1781 2.49302 0
0.785398 3.11848 0
1.1781 3.11848 0
1.1781 2.49302 0
1.5708 2.49302 0
1.1781 3.11848 0
1.5708 3.11848 0
0.785398 3.11848 0
1.1781 3.11848 0
0.785398 3.74394 0
1.1781 3.74394 0
1.1781 3.11848 0
1.5708 3.11848 0
1.1781 3.74394 0
1.5708 3.74394 0
0 3.74394 0
0.392699 3.74394 0
0 4.36938 0
0.392699 4.36938 0
0.392699 3.74394 0
0.785398 3.74394 0
0.392699 4.36938 0
0.785398 4.36938 0
0 4.36938 0
0.392699 4.36938 0
0 4.99479 0
0.392699 4.99479 0
0.392699 4.36938 0
0.785398 4.36938 0
0.392699 4.99479 0
0.785398 4.99479 0
0.785398 3.74394 0
1.1781 3.74394 0
0.785398 4.36938 0
1.1781 4.36938 0
1.1781 3.74394 0
1.5708 3.74394 0
1.1781 4.36938 0
1.5708 4.36938 0
0.785398 4.36938 0
1.1781 4.36938 0
0.785398 4.99479 0
1.1781 4.99479 0
1.1781 4.36938 0
1.5708 4.36938 0
1.1781 4.99479 0
1.5708 4.99479 0
1.5708 2.49302 0
1.9635 2.49302 0
1.5708 3.11848 0
1.9635 3.11848 0
1.9635 2.49302 0
2.35619 2.49302 0
1.9635 3.11848 0
2.35619 3.11848 0
1.5708 3.11848 0
1.9635 3.11848 0
1.5708 3.74394 0
1.9635 3.74394 0
1.9635 3.11848 0
2.35619 3.11848 0
1.9635 3.74394 0
2.35619 3.74394 0
2.35619 2.49302 0
2.74889 2.49302 0
2.35619 3.11848 0
2.74889 3.11848 0
2.74889 2.49302 0
3.14159 2.49302 0
2.74889 3.11848 0
3.14159 3.11848 0
2.35619 3.11848 0
2.74889 3.11848 0
2.35619 3.74394 0
2.74889 3.74394 0
2.74889 3.11848 0
3.14159 3.11848 0
2.74889 3.74394 0
3.14159 3.74394 0
1.5708 3.74394 0
1.9635 3.74394 0
1.5708 4.36938 0
1.9635 4.36938 0
1.9635 3.74394 0
2.35619 3.74394 0
1.9635 4.36938 0
2.35619 4.36938 0
1.5708 4.36938 0
1.9635 4.36938 0
1.5708 4.99479 0
1.9635 4.99479 0
1.9635 4.36938 0
2.35619 4.36938 0
1.9635 4.99479 0
2.35619 4.99479 0
2.35619 3.74394 0
2.74889 3.74394 0
2.35619 4.36938 0
2.74889 4.36938 0
2.74889 3.74394 0
3.14159 3.74394 0
2.74889 4.36938 0
3.14159 4.36938 0
2.35619 4.36938 0
2.74889 4.36938 0
2.35619 4.99479 0
2.74889 4.99479 0
2.74889 4.36938 0
3.14159 4.36938 0
2.74889 4.99479 0
3.14159 4.99479 0
3.14159 0 0
3.53429 0 0
3.14159 0.616611 0
3.53429 0.616611 0
3.53429 0 0
3.92699 0 0
3.53429 0.616611 0
3.92699 0.616611 0
3.14159 0.616611 0
3.53429 0.616611 0
3.14159 1.24223 0
3.53429 1.24223 0
3.53429 0.616611 0
3.92699 0.616611 0
3.53429 1.24223 0
3.92699 1.24223 0
3.92699 0 0
4.31969 0 0
3.92699 0.616611 0
4.31969 0.616611 0
4.31969 0 0
4.71239 0 0
4.31969 0.616611 0
4.71239 0.616611 0
3.92699 0.616611 0
4.31969 0.616611 0
3.92699 1.24223 0
4.31969 1.24223 0
4.31969 0.616611 0
4.71239 0.616611 0
4.31969 1.24223 0
4.71239 1.24223 0
3.14159 1.24223 0
3.53429 1.24223 0
3.14159 1.86748 0
3.53429 1.86748 0
3.53429 1.24223 0
3.92699 1.24223 0
3.53429 1.86748 0
3.92699 1.86748 0
3.14159 1.86748 0
3.53429 1.86748 0
3.14159 2.49302 0
3.53429 2.49302 0
3.53429 1.86748 0
3.92699 1.86748 0
3.53429 2.49302 0
3.92699 2.49302 0
3.92699 1.24223 0
4.31969 1.24223 0
3.92699 1.86748 0
4.31969 1.86748 0
4.31969 1.24223 0
4.71239 1.24223 0
4.31969 1.86748 0
4.71239 1.86748 0
3.92699 1.86748 0
4.31969 1.86748 0
3.92699 2.49302 0
4.31969 2.49302 0
4.31969 1.86748 0
4.71239 1.86748 0
4.31969 2.49302 0
4.71239 2.49302 0
4.71239 0 0
5.10509 0 0
4.71239 0.616611 0
5.10509 0.616611 0
5.10509 0 0
5.49779 0 0
5.10509 0.616611 0
5.49779 0.616611 0
4.71239 0.616611 0
5.10509 0.616611 0
4.71239 1.24223 0
5.10509 1.24223 0
5.10509 0.616611 0
5.49779 0.616611 0
5.10509 1.24223 0
5.49779 1.24223 0
5.49779 0 0
5.89049 0 0
5.49779 0.616611 0
5.89049 0.616611 0
5.89049 0 0
6.28319 0 0
5.89049 0.616611 0
6.28319 0.616611 0
5.49779 0.616611 0
5.89049 0.616611 0
5.49779 1.24223 0
5.89049 1.24223 0
5.89049 0.616611 0
6.28319 0.616611 0
5.89049 1.24223 0
6.28319 1.24223 0
4.71239 1.24223 0
5.10509 1.24223 0
4.71239 1.86748 0
5.10509 1.86748 0
5.10509 1.24223 0
5.49779 1.24223 0
5.10509 1.86748 0
5.49779 1.86748 0
4.71239 1.86748 0
5.10509 1.86748 0
4.71239 2.49302 0
5.10509 2.49302 0
5.10509 1.86748 0
5.49779 1.86748 0
5.10509 2.49302 0
5.49779 2.49302 0
5.49779 1.24223 0
5.89049 1.24223 0
5.49779 1.86748 0
5.89049 1.86748 0
5.89049 1.24223 0
6.28319 1.24223 0
5.89049 1.86748 0
6.28319 1.86748 0
5.49779 1.86748 0
5.89049 1.86748 0
5.49779 2.49302 0
5.89049 2.49302 0
5.89049 1.86748 0
6.28319 1.86748 0
5.89049 2.49302 0
6.28319 2.49302 0
3.14159 2.49302 0
3.53429 2.49302 0
3.14159 3.11848 0
3.53429 3.11848 0
3.53429 2.49302 0
3.92699 2.49302 0
3.53429 3.11848 0
3.92699 3.11848 0
3.14159 3.11848 0
3.53429 3.11848 0
3.14159 3.74394 0
3.53429 3.74394 0
3.53429 3.11848 0
3.92699 3.11848 0
3.53429 3.74394 0
3.92699 3.74394 0
3.92699 2.49302 0
4.31969 2.49302 0
3.92699 3.11848 0
4.31969 3.11848 0
4.31969 2.49302 0
4.71239 2.49302 0
4.31969 3.11848 0
4.71239 3.11848 0
3.92699 3.11848 0
4.31969 3.11848 0
3.92699 3.74394 0
4.31969 3.74394 0
4.31969 3.11848 0
4.71239 3.11848 0
4.31969 3.74394 0
4.71239 3.74394 0
3.14159 3.74394 0
3.53429 3.74394 0
3.14159 4.36938 0
3.53429 4.36938 0
3.53429 3.74394 0
3.92699 3.74394 0
3.53429 4.36938 0
3.92699 4.36938 0
3.14159 4.36938 0
3.53429 4.36938 0
3.14159 4.99479 0
3.53429 4.99479 0
3.53429 4.36938 0
3.92699 4.36938 0
3.53429 4.99479 0
3.92699 4.99479 0
3.92699 3.74394 0
4.31969 3.74394 0
3.92699 4.36938 0
4.31969 4.36938 0
4.31969 3.74394 0
4.71239 3.74394 0
4.31969 4.36938 0
4.71239 4.36938 0
3.92699 4.36938 0
4.31969 4.36938 0
3.92699 4.99479 0
4.31969 4.99479 0
4.31969 4.36938 0
4.71239 4.36938 0
4.31969 4.99479 0
4.71239 4.99479 0
4.71239 2.49302 0
5.10509 2.49302 0
4.71239 3.11848 0
5.10509 3.11848 0
5.10509 2.49302 0
5.49779 2.49302 0
5.10509 3.11848 0
5.49779 3.11848 0
4.71239 3.11848 0
5.10509 3.11848 0
4.71239 3.74394 0
5.10509 3.74394 0
5.10509 3.11848 0
5.49779 3.11848 0
5.10509 3.74394 0
5.49779 3.74394 0
5.49779 2.49302 0
5.89049 2.49302 0
5.49779 3.11848 0
5.89049 3.11848 0
5.89049 2.49302 0
6.28319 2.49302 0
5.89049 3.11848 0
6.28319 3.11848 0
5.49779 3.11848 0
5.89049 3.11848 0
5.49779 3.74394 0
5.89049 3.74394 0
5.89049 3.11848 0
6.28319 3.11848 0
5.89049 3.74394 0
6.28319 3.74394 0
4.71239 3.74394 0
5.10509 3.74394 0
4.71239 4.36938 0
5.10509 4.36938 0
5.10509 3.74394 0
5.49779 3.74394 0
5.10509 4.36938 0
5.49779 4.36938 0
4.71239 4.36938 0
5.10509 4.36938 0
4.71239 4.99479 0
5.10509 4.99479 0
5.10509 4.36938 0
5.49779 4.36938 0
5.10509 4.99479 0
5.49779 4.99479 0
5.49779 3.74394 0
5.89049 3.74394 0
5.49779 4.36938 0
5.89049 4.36938 0
5.89049 3.74394 0
6.28319 3.74394 0
5.89049 4.36938 0
6.28319 4.36938 0
5.49779 4.36938 0
5.89049 4.36938 0
5.49779 4.99479 0
5.89049 4.99479 0
5.89049 4.36938 0
6.28319 4.36938 0
5.89049 4.99479 0
6.28319 4.99479 0
0 4.99479 0
0.392699 4.99479 0
0 5.62017 0
0.392699 5.62017 0
0.392699 4.99479 0
0.785398 4.99479 0
0.392699 5.62017 0
0.785398 5.62017 0
0 5.62017 0
0.392699 5.62017 0
0 6.24552 0
0.392699 6.24552 0
0.392699 5.62017 0
0.785398 5.62017 0
0.392699 6.24552 0
0.785398 6.24552 0
0.785398 4.99479 0
1.1781 4.99479 0
0.785398 5.62017 0
1.1781 5.62017 0
1.1781 4.99479 0
1.5708 4.99479 0
1.1781 5.62017 0
1.5708 5.62017 0
0.785398 5.62017 0
1.1781 5.62017 0
0.785398 6.24552 0
1.1781 6.24552 0
1.1781 5.62017 0
1.5708 5.62017 0
1.1781 6.24552 0
1.5708 6.24552 0
0 6.24552 0
0.392699 6.24552 0
0 6.87085 0
0.392699 6.87085 0
0.392699 6.24552 0
0.785398 6.24552 0
0.392699 6.87085 0
0.785398 6.87085 0
0 6.87085 0
0.392699 6.87085 0
0 7.49618 0
0.392699 7.49618 0
0.392699 6.87085 0
0.785398 6.87085 0
0.392699 7.49618 0
0.785398 7.49618 0
0.785398 6.24552 0
1.1781 6.24552 0
0.785398 6.87085 0
[...]
POINT_DATA 5120
VECTORS uf double
0 1 0
-2.06498e-14 1 0
0 1.00207 0
-2.42705e-14 1.00207 0
-2.06498e-14 1 0
9.61754e-17 1 0
-2.42705e-14 1.00207 0
4.92058e-15 1.00207 0
0 1.00207 0
9.22453e-15 1.00207 0
0 1.00314 0
-2.65309e-15 1.00314 0
9.22453e-15 1.00207 0
-9.10988e-15 1.00207 0
-2.65309e-15 1.00314 0
8.47232e-15 1.00314 0
9.61754e-17 1 0
2.59619e-14 1 0
4.92058e-15 1.00207 0
4.58531e-14 1.00207 0
2.59619e-14 1 0
-6.10787e-15 1 0
4.58531e-14 1.00207 0
8.21448e-15 1.00207 0
-9.10988e-15 1.00207 0
-4.8174e-14 1.00207 0
8.47232e-15 1.00314 0
-2.32226e-14 1.00314 0
-4.8174e-14 1.00207 0
-1.01802e-14 1.00207 0
-2.32226e-14 1.00314 0
1.10642e-14 1.00314 0
0 1.00314 0
1.4798e-14 1.00314 0
0 1.00443 0
8.12454e-15 1.00443 0
1.4798e-14 1.00314 0
-7.47733e-15 1.00314 0
8.12454e-15 1.00443 0
5.16463e-15 1.00443 0
0 1.00443 0
5.27451e-15 1.00443 0
0 1.00564 0
9.84066e-15 1.00564 0
5.27451e-15 1.00443 0
7.25243e-15 1.00443 0
9.84066e-15 1.00564 0
1.76814e-14 1.00564 0
-7.47733e-15 1.00314 0
-7.06146e-15 1.00314 0
5.16463e-15 1.00443 0
1.55775e-14 1.00443 0
-7.06146e-15 1.00314 0
-1.12473e-14 1.00314 0
1.55775e-14 1.00443 0
1.16573e-14 1.00443 0
7.25243e-15 1.00443 0
-4.14157e-15 1.00443 0
1.76814e-14 1.00564 0
-2.4258e-16 1.00564 0
-4.14157e-15 1.00443 0
-3.61435e-14 1.00443 0
-2.4258e-16 1.00564 0
-1.43595e-14 1.00564 0
-6.10787e-15 1 0
-8.30623e-15 1 0
8.21448e-15 1.00207 0
-4.99245e-16 1.00207 0
-8.30623e-15 1 0
-1.17479e-14 1 0
-4.99245e-16 1.00207 0
1.39357e-14 1.00207 0
-1.01802e-14 1.00207 0
3.356e-15 1.00207 0
1.10642e-14 1.00314 0
2.36385e-15 1.00314 0
3.356e-15 1.00207 0
-1.31899e-14 1.00207 0
2.36385e-15 1.00314 0
1.04426e-14 1.00314 0
-1.17479e-14 1 0
3.17599e-16 1 0
1.39357e-14 1.00207 0
-2.87885e-15 1.00207 0
3.17599e-16 1 0
-1.43878e-16 1 0
-2.87885e-15 1.00207 0
4.65639e-15 1.00207 0
-1.31899e-14 1.00207 0
-3.85498e-15 1.00207 0
1.04426e-14 1.00314 0
9.67143e-15 1.00314 0
-3.85498e-15 1.00207 0
-1.33858e-14 1.00207 0
9.67143e-15 1.00314 0
1.55284e-14 1.00314 0
-1.12473e-14 1.00314 0
2.8755e-15 1.00314 0
1.16573e-14 1.00443 0
5.09787e-15 1.00443 0
2.8755e-15 1.00314 0
-1.68384e-15 1.00314 0
5.09787e-15 1.00443 0
6.20886e-15 1.00443 0
-3.61435e-14 1.00443 0
-1.99578e-15 1.00443 0
-1.43595e-14 1.00564 0
-4.68382e-15 1.00564 0
-1.99578e-15 1.00443 0
-6.54364e-15 1.00443 0
-4.68382e-15 1.00564 0
1.33603e-14 1.00564 0
-1.68384e-15 1.00314 0
-5.77976e-15 1.00314 0
6.20886e-15 1.00443 0
8.70489e-15 1.00443 0
-5.77976e-15 1.00314 0
-9.99659e-15 1.00314 0
8.70489e-15 1.00443 0
1.34356e-14 1.00443 0
-6.54364e-15 1.00443 0
-7.53451e-15 1.00443 0
1.33603e-14 1.00564 0
8.855e-15 1.00564 0
-7.53451e-15 1.00443 0
-1.17653e-14 1.00443 0
8.855e-15 1.00564 0
2.9818e-15 1.00564 0
0 1.00564 0
-4.10598e-15 1.00564 0
0 1.00685 0
-7.12012e-15 1.00685 0
-4.10598e-15 1.00564 0
-3.38075e-14 1.00564 0
-7.12012e-15 1.00685 0
-2.40089e-14 1.00685 0
0 1.00685 0
6.94866e-16 1.00685 0
0 1.00804 0
7.44845e-15 1.00804 0
6.94866e-16 1.00685 0
4.20924e-14 1.00685 0
7.44845e-15 1.00804 0
5.34357e-14 1.00804 0
-3.38075e-14 1.00564 0
-8.43778e-15 1.00564 0
-2.40089e-14 1.00685 0
5.7569e-15 1.00685 0
-8.43778e-15 1.00564 0
3.55278e-14 1.00564 0
5.7569e-15 1.00685 0
4.45841e-14 1.00685 0
4.20924e-14 1.00685 0
-2.9008e-15 1.00685 0
5.34357e-14 1.00804 0
2.20053e-14 1.00804 0
-2.9008e-15 1.00685 0
-4.29683e-14 1.00685 0
2.20053e-14 1.00804 0
-3.11512e-14 1.00804 0
0 1.00804 0
1.1974e-14 1.00804 0
0 1.00921 0
8.04721e-15 1.00921 0
1.1974e-14 1.00804 0
-6.22912e-14 1.00804 0
8.04721e-15 1.00921 0
-5.41324e-14 1.00921 0
0 1.00921 0
-1.93339e-15 1.00921 0
0 1.01036 0
-5.77734e-15 1.01036 0
-1.93339e-15 1.00921 0
5.0595e-14 1.00921 0
-5.77734e-15 1.01036 0
5.36478e-14 1.01036 0
-6.22912e-14 1.00804 0
-2.12321e-14 1.00804 0
-5.41324e-14 1.00921 0
-9.60636e-15 1.00921 0
-2.12321e-14 1.00804 0
4.12716e-14 1.00804 0
-9.60636e-15 1.00921 0
5.01393e-14 1.00921 0
5.0595e-14 1.00921 0
8.91308e-15 1.00921 0
5.36478e-14 1.01036 0
1.45164e-14 1.01036 0
8.91308e-15 1.00921 0
-4.01557e-14 1.00921 0
1.45164e-14 1.01036 0
-3.28351e-14 1.01036 0
3.55278e-14 1.00564 0
-1.64788e-15 1.00564 0
4.45841e-14 1.00685 0
5.73796e-15 1.00685 0
-1.64788e-15 1.00564 0
-1.51047e-14 1.00564 0
5.73796e-15 1.00685 0
1.48251e-14 1.00685 0
-4.29683e-14 1.00685 0
-1.9238e-14 1.00685 0
-3.11512e-14 1.00804 0
7.91197e-16 1.00804 0
-1.9238e-14 1.00685 0
-7.85539e-15 1.00685 0
7.91197e-16 1.00804 0
6.71218e-15 1.00804 0
-1.51047e-14 1.00564 0
-6.9094e-15 1.00564 0
1.48251e-14 1.00685 0
7.4165e-15 1.00685 0
-6.9094e-15 1.00564 0
-4.25063e-15 1.00564 0
7.4165e-15 1.00685 0
1.51992e-14 1.00685 0
-7.85539e-15 1.00685 0
-3.15943e-15 1.00685 0
6.71218e-15 1.00804 0
7.48106e-15 1.00804 0
-3.15943e-15 1.00685 0
-1.10231e-14 1.00685 0
7.48106e-15 1.00804 0
1.30769e-14 1.00804 0
4.12716e-14 1.00804 0
1.99282e-14 1.00804 0
5.01393e-14 1.00921 0
2.92625e-14 1.00921 0
1.99282e-14 1.00804 0
-8.09666e-15 1.00804 0
2.92625e-14 1.00921 0
7.74647e-15 1.00921 0
-4.01557e-14 1.00921 0
-1.50366e-14 1.00921 0
-3.28351e-14 1.01036 0
-7.02357e-15 1.01036 0
-1.50366e-14 1.00921 0
-2.92139e-15 1.00921 0
-7.02357e-15 1.01036 0
5.8635e-15 1.01036 0
-8.09666e-15 1.00804 0
-5.01803e-15 1.00804 0
7.74647e-15 1.00921 0
4.57861e-15 1.00921 0
-5.01803e-15 1.00804 0
-9.81223e-15 1.00804 0
4.57861e-15 1.00921 0
9.04673e-15 1.00921 0
-2.92139e-15 1.00921 0
-3.18916e-15 1.00921 0
5.8635e-15 1.01036 0
3.04897e-15 1.01036 0
-3.18916e-15 1.00921 0
-7.98484e-15 1.00921 0
3.04897e-15 1.01036 0
8.82252e-15 1.01036 0
-1.43878e-16 1 0
-8.93603e-15 1 0
4.65639e-15 1.00207 0
1.71427e-14 1.00207 0
-8.93603e-15 1 0
-7.1405e-16 1 0
1.71427e-14 1.00207 0
9.74069e-15 1.00207 0
-1.33858e-14 1.00207 0
-6.9739e-15 1.00207 0
1.55284e-14 1.00314 0
6.0391e-15 1.00314 0
-6.9739e-15 1.00207 0
-1.03105e-14 1.00207 0
6.0391e-15 1.00314 0
6.60775e-15 1.00314 0
-7.1405e-16 1 0
5.47306e-16 1 0
9.74069e-15 1.00207 0
5.43421e-15 1.00207 0
5.47306e-16 1 0
-5.17231e-15 1 0
5.43421e-15 1.00207 0
1.07601e-14 1.00207 0
-1.03105e-14 1.00207 0
-1.24497e-14 1.00207 0
6.60775e-15 1.00314 0
8.7845e-15 1.00314 0
-1.24497e-14 1.00207 0
-4.94518e-15 1.00207 0
8.7845e-15 1.00314 0
6.15573e-15 1.00314 0
-9.99659e-15 1.00314 0
-4.69112e-15 1.00314 0
1.34356e-14 1.00443 0
8.81442e-15 1.00443 0
-4.69112e-15 1.00314 0
-6.36559e-15 1.00314 0
8.81442e-15 1.00443 0
7.84434e-15 1.00443 0
-1.17653e-14 1.00443 0
-6.57567e-15 1.00443 0
2.9818e-15 1.00564 0
6.34454e-15 1.00564 0
-6.57567e-15 1.00443 0
-1.79431e-15 1.00443 0
6.34454e-15 1.00564 0
1.18371e-15 1.00564 0
-6.36559e-15 1.00314 0
5.83474e-15 1.00314 0
7.84434e-15 1.00443 0
5.41099e-15 1.00443 0
5.83474e-15 1.00314 0
-2.34976e-15 1.00314 0
5.41099e-15 1.00443 0
5.7941e-15 1.00443 0
-1.79431e-15 1.00443 0
-1.56331e-14 1.00443 0
1.18371e-15 1.00564 0
1.36201e-14 1.00564 0
-1.56331e-14 1.00443 0
7.75026e-16 1.00443 0
1.36201e-14 1.00564 0
6.52332e-15 1.00564 0
-5.17231e-15 1 0
-3.69343e-15 1 0
1.07601e-14 1.00207 0
1.47743e-14 1.00207 0
-3.69343e-15 1 0
-4.23038e-15 1 0
1.47743e-14 1.00207 0
1.45904e-14 1.00207 0
-4.94518e-15 1.00207 0
-1.21074e-14 1.00207 0
6.15573e-15 1.00314 0
1.41158e-14 1.00314 0
-1.21074e-14 1.00207 0
-7.65653e-15 1.00207 0
1.41158e-14 1.00314 0
7.08726e-15 1.00314 0
-4.23038e-15 1 0
-4.71147e-15 1 0
1.45904e-14 1.00207 0
1.43537e-14 1.00207 0
-4.71147e-15 1 0
1.15697e-16 1 0
1.43537e-14 1.00207 0
8.90997e-15 1.00207 0
-7.65653e-15 1.00207 0
-9.25124e-15 1.00207 0
7.08726e-15 1.00314 0
1.21321e-14 1.00314 0
-9.25124e-15 1.00207 0
-5.74137e-15 1.00207 0
1.21321e-14 1.00314 0
1.04801e-14 1.00314 0
-2.34976e-15 1.00314 0
-1.52914e-14 1.00314 0
5.7941e-15 1.00443 0
1.37326e-14 1.00443 0
-1.52914e-14 1.00314 0
1.62693e-16 1.00314 0
1.37326e-14 1.00443 0
7.14821e-15 1.00443 0
7.75026e-16 1.00443 0
-3.48463e-15 1.00443 0
6.52332e-15 1.00564 0
9.91849e-15 1.00564 0
-3.48463e-15 1.00443 0
-8.66409e-15 1.00443 0
9.91849e-15 1.00564 0
1.04186e-14 1.00564 0
1.62693e-16 1.00314 0
-1.12468e-14 1.00314 0
7.14821e-15 1.00443 0
1.4973e-14 1.00443 0
-1.12468e-14 1.00314 0
-1.20592e-14 1.00314 0
1.4973e-14 1.00443 0
1.12144e-14 1.00443 0
-8.66409e-15 1.00443 0
-1.08512e-15 1.00443 0
1.04186e-14 1.00564 0
4.0768e-15 1.00564 0
-1.08512e-15 1.00443 0
-2.85305e-15 1.00443 0
4.0768e-15 1.00564 0
9.70281e-15 1.00564 0
-4.25063e-15 1.00564 0
-3.63943e-15 1.00564 0
1.51992e-14 1.00685 0
1.04112e-14 1.00685 0
-3.63943e-15 1.00564 0
-1.07031e-15 1.00564 0
1.04112e-14 1.00685 0
1.0941e-14 1.00685 0
-1.10231e-14 1.00685 0
-1.06344e-14 1.00685 0
1.30769e-14 1.00804 0
8.34147e-15 1.00804 0
-1.06344e-14 1.00685 0
-3.78505e-15 1.00685 0
8.34147e-15 1.00804 0
9.60149e-15 1.00804 0
-1.07031e-15 1.00564 0
-5.97926e-15 1.00564 0
1.0941e-14 1.00685 0
1.23198e-14 1.00685 0
-5.97926e-15 1.00564 0
-5.20311e-15 1.00564 0
1.23198e-14 1.00685 0
1.123e-14 1.00685 0
-3.78505e-15 1.00685 0
-8.30601e-15 1.00685 0
9.60149e-15 1.00804 0
1.02698e-14 1.00804 0
-8.30601e-15 1.00685 0
-7.96142e-15 1.00685 0
1.02698e-14 1.00804 0
6.86347e-15 1.00804 0
-9.81223e-15 1.00804 0
-2.66019e-15 1.00804 0
9.04673e-15 1.00921 0
7.54839e-15 1.00921 0
-2.66019e-15 1.00804 0
-7.51969e-15 1.00804 0
7.54839e-15 1.00921 0
8.935e-15 1.00921 0
-7.98484e-15 1.00921 0
-4.14415e-15 1.00921 0
8.82252e-15 1.01036 0
4.50696e-15 1.01036 0
-4.14415e-15 1.00921 0
-7.78138e-15 1.00921 0
4.50696e-15 1.01036 0
5.3821e-15 1.01036 0
-7.51969e-15 1.00804 0
-9.94777e-15 1.00804 0
8.935e-15 1.00921 0
8.65301e-15 1.00921 0
-9.94777e-15 1.00804 0
-4.12736e-16 1.00804 0
8.65301e-15 1.00921 0
4.19988e-15 1.00921 0
-7.78138e-15 1.00921 0
-2.5123e-15 1.00921 0
5.3821e-15 1.01036 0
5.82294e-15 1.01036 0
-2.5123e-15 1.00921 0
-6.46394e-16 1.00921 0
5.82294e-15 1.01036 0
2.68338e-16 1.01036 0
-5.20311e-15 1.00564 0
1.42512e-16 1.00564 0
1.123e-14 1.00685 0
7.86642e-15 1.00685 0
1.42512e-16 1.00564 0
-4.17739e-15 1.00564 0
7.86642e-15 1.00685 0
1.19559e-14 1.00685 0
-7.96142e-15 1.00685 0
-6.18331e-15 1.00685 0
6.86347e-15 1.00804 0
4.80382e-15 1.00804 0
-6.18331e-15 1.00685 0
-8.70787e-15 1.00685 0
4.80382e-15 1.00804 0
8.73078e-15 1.00804 0
-4.17739e-15 1.00564 0
-7.69637e-16 1.00564 0
1.19559e-14 1.00685 0
6.88265e-15 1.00685 0
-7.69637e-16 1.00564 0
3.65581e-15 1.00564 0
6.88265e-15 1.00685 0
1.68601e-15 1.00685 0
-8.70787e-15 1.00685 0
-3.23949e-15 1.00685 0
8.73078e-15 1.00804 0
9.09303e-15 1.00804 0
-3.23949e-15 1.00685 0
-6.70626e-15 1.00685 0
9.09303e-15 1.00804 0
1.1929e-14 1.00804 0
-4.12736e-16 1.00804 0
2.37035e-15 1.00804 0
4.19988e-15 1.00921 0
-1.10791e-16 1.00921 0
2.37035e-15 1.00804 0
-6.32306e-15 1.00804 0
-1.10791e-16 1.00921 0
8.05925e-15 1.00921 0
-6.46394e-16 1.00921 0
3.11718e-16 1.00921 0
2.68338e-16 1.01036 0
4.23587e-15 1.01036 0
3.11718e-16 1.00921 0
-7.80573e-15 1.00921 0
4.23587e-15 1.01036 0
1.05011e-14 1.01036 0
-6.32306e-15 1.00804 0
-5.82447e-15 1.00804 0
8.05925e-15 1.00921 0
7.21713e-15 1.00921 0
-5.82447e-15 1.00804 0
-7.12635e-15 1.00804 0
7.21713e-15 1.00921 0
9.01779e-15 1.00921 0
-7.80573e-15 1.00921 0
-4.67622e-15 1.00921 0
1.05011e-14 1.01036 0
6.09273e-15 1.01036 0
-4.67622e-15 1.00921 0
-5.48333e-16 1.00921 0
6.09273e-15 1.01036 0
2.07408e-15 1.01036 0
0 1.01036 0
-3.68795e-15 1.01036 0
0 1.01152 0
5.80489e-15 1.01152 0
-3.68795e-15 1.01036 0
-3.74626e-14 1.01036 0
5.80489e-15 1.01152 0
-2.95066e-14 1.01152 0
0 1.01152 0
-5.9721e-15 1.01152 0
0 1.01267 0
3.88126e-16 1.01267 0
-5.9721e-15 1.01152 0
1.38474e-14 1.01152 0
3.88126e-16 1.01267 0
2.01664e-14 1.01267 0
-3.74626e-14 1.01036 0
3.91769e-15 1.01036 0
-2.95066e-14 1.01152 0
3.02381e-15 1.01152 0
3.91769e-15 1.01036 0
2.39852e-14 1.01036 0
3.02381e-15 1.01152 0
2.12045e-14 1.01152 0
1.38474e-14 1.01152 0
-1.53791e-14 1.01152 0
2.01664e-14 1.01267 0
-8.03133e-15 1.01267 0
-1.53791e-14 1.01152 0
-5.6742e-15 1.01152 0
-8.03133e-15 1.01267 0
2.47982e-15 1.01267 0
0 1.01267 0
-8.76936e-15 1.01267 0
0 1.01383 0
1.61678e-15 1.01383 0
-8.76936e-15 1.01267 0
-1.50294e-14 1.01267 0
1.61678e-15 1.01383 0
-5.30002e-15 1.01383 0
0 1.01383 0
-6.16523e-16 1.01383 0
0 1.01502 0
8.44045e-15 1.01502 0
-6.16523e-16 1.01383 0
1.12107e-14 1.01383 0
8.44045e-15 1.01502 0
1.10927e-14 1.01502 0
-1.50294e-14 1.01267 0
1.78005e-15 1.01267 0
-5.30002e-15 1.01383 0
7.04878e-15 1.01383 0
1.78005e-15 1.01267 0
-6.47533e-15 1.01267 0
7.04878e-15 1.01383 0
7.28851e-15 1.01383 0
1.12107e-14 1.01383 0
-8.23156e-15 1.01383 0
1.10927e-14 1.01502 0
6.54244e-15 1.01502 0
-8.23156e-15 1.01383 0
-7.63738e-15 1.01383 0
6.54244e-15 1.01502 0
5.65797e-15 1.01502 0
2.39852e-14 1.01036 0
-1.04659e-14 1.01036 0
2.12045e-14 1.01152 0
-5.98197e-15 1.01152 0
-1.04659e-14 1.01036 0
-6.27678e-15 1.01036 0
-5.98197e-15 1.01152 0
7.68004e-15 1.01152 0
-5.6742e-15 1.01152 0
2.64882e-15 1.01152 0
2.47982e-15 1.01267 0
1.67948e-14 1.01267 0
2.64882e-15 1.01152 0
-7.33372e-15 1.01152 0
1.67948e-14 1.01267 0
6.49886e-15 1.01267 0
-6.27678e-15 1.01036 0
-3.82058e-15 1.01036 0
7.68004e-15 1.01152 0
4.74883e-15 1.01152 0
-3.82058e-15 1.01036 0
-5.42518e-15 1.01036 0
4.74883e-15 1.01152 0
6.13043e-15 1.01152 0
-7.33372e-15 1.01152 0
-4.42442e-15 1.01152 0
6.49886e-15 1.01267 0
5.90558e-15 1.01267 0
-4.42442e-15 1.01152 0
-8.83154e-15 1.01152 0
5.90558e-15 1.01267 0
1.0714e-14 1.01267 0
-6.47533e-15 1.01267 0
-8.30035e-15 1.01267 0
7.28851e-15 1.01383 0
6.87046e-15 1.01383 0
-8.30035e-15 1.01267 0
-6.03819e-15 1.01267 0
6.87046e-15 1.01383 0
8.4656e-15 1.01383 0
-7.63738e-15 1.01383 0
-7.09038e-15 1.01383 0
5.65797e-15 1.01502 0
7.47876e-15 1.01502 0
-7.09038e-15 1.01383 0
-5.06844e-15 1.01383 0
7.47876e-15 1.01502 0
5.64327e-15 1.01502 0
-6.03819e-15 1.01267 0
-5.14193e-15 1.01267 0
8.4656e-15 1.01383 0
7.8684e-15 1.01383 0
-5.14193e-15 1.01267 0
-9.12932e-15 1.01267 0
7.8684e-15 1.01383 0
1.04093e-14 1.01383 0
-5.06844e-15 1.01383 0
-8.03561e-15 1.01383 0
5.64327e-15 1.01502 0
8.5071e-15 1.01502 0
-8.03561e-15 1.01383 0
-8.80387e-15 1.01383 0
8.5071e-15 1.01502 0
7.89075e-15 1.01502 0
0 1.01502 0
5.24447e-15 1.01502 0
0 1.01622 0
3.42213e-15 1.01622 0
5.24447e-15 1.01502 0
-5.6139e-15 1.01502 0
3.42213e-15 1.01622 0
-2.62577e-15 1.01622 0
0 1.01622 0
-6.52186e-15 1.01622 0
0 1.0174 0
-2.81167e-15 1.0174 0
-6.52186e-15 1.01622 0
3.25819e-15 1.01622 0
-2.81167e-15 1.0174 0
4.71119e-15 1.0174 0
-5.6139e-15 1.01502 0
-5.14428e-15 1.01502 0
-2.62577e-15 1.01622 0
2.36775e-15 1.01622 0
-5.14428e-15 1.01502 0
-6.18183e-15 1.01502 0
2.36775e-15 1.01622 0
3.94764e-15 1.01622 0
3.25819e-15 1.01622 0
-6.87898e-16 1.01622 0
4.71119e-15 1.0174 0
1.86714e-15 1.0174 0
-6.87898e-16 1.01622 0
-1.84728e-15 1.01622 0
1.86714e-15 1.0174 0
9.93959e-16 1.0174 0
0 1.0174 0
3.07754e-15 1.0174 0
0 1.01841 0
5.27303e-15 1.01841 0
3.07754e-15 1.0174 0
-7.51434e-15 1.0174 0
5.27303e-15 1.01841 0
-4.0411e-15 1.01841 0
0 1.01841 0
-1.76194e-15 1.01841 0
0 1.01878 0
-3.08639e-15 1.01878 0
-1.76194e-15 1.01841 0
-9.50052e-16 1.01841 0
-3.08639e-15 1.01878 0
9.6549e-15 1.01878 0
-7.51434e-15 1.0174 0
-2.51771e-15 1.0174 0
-4.0411e-15 1.01841 0
1.48768e-15 1.01841 0
-2.51771e-15 1.0174 0
-2.75667e-15 1.0174 0
1.48768e-15 1.01841 0
9.79908e-16 1.01841 0
-9.50052e-16 1.01841 0
-4.13224e-15 1.01841 0
9.6549e-15 1.01878 0
-3.02955e-15 1.01878 0
-4.13224e-15 1.01841 0
-3.87957e-15 1.01841 0
-3.02955e-15 1.01878 0
-2.15277e-15 1.01878 0
-6.18183e-15 1.01502 0
-7.53629e-15 1.01502 0
3.94764e-15 1.01622 0
1.05028e-14 1.01622 0
-7.53629e-15 1.01502 0
-3.12778e-15 1.01502 0
1.05028e-14 1.01622 0
5.88381e-15 1.01622 0
-1.84728e-15 1.01622 0
-4.42394e-15 1.01622 0
9.93959e-16 1.0174 0
-7.17753e-16 1.0174 0
-4.42394e-15 1.01622 0
-4.50158e-15 1.01622 0
-7.17753e-16 1.0174 0
2.15863e-15 1.0174 0
-3.12778e-15 1.01502 0
-4.6825e-15 1.01502 0
5.88381e-15 1.01622 0
5.15532e-15 1.01622 0
-4.6825e-15 1.01502 0
-3.5234e-15 1.01502 0
5.15532e-15 1.01622 0
3.51814e-15 1.01622 0
-4.50158e-15 1.01622 0
-6.5403e-15 1.01622 0
2.15863e-15 1.0174 0
3.15951e-15 1.0174 0
-6.5403e-15 1.01622 0
-2.94372e-15 1.01622 0
3.15951e-15 1.0174 0
2.18365e-15 1.0174 0
-2.75667e-15 1.0174 0
-5.92365e-15 1.0174 0
9.79908e-16 1.01841 0
2.54351e-16 1.01841 0
-5.92365e-15 1.0174 0
-5.89333e-15 1.0174 0
2.54351e-16 1.01841 0
3.32732e-15 1.01841 0
-3.87957e-15 1.01841 0
-4.49306e-15 1.01841 0
-2.15277e-15 1.01878 0
3.97404e-15 1.01878 0
-4.49306e-15 1.01841 0
-4.72967e-15 1.01841 0
3.97404e-15 1.01878 0
2.5945e-15 1.01878 0
-5.89333e-15 1.0174 0
-2.68877e-15 1.0174 0
3.32732e-15 1.01841 0
1.65322e-15 1.01841 0
-2.68877e-15 1.0174 0
-2.34647e-15 1.0174 0
1.65322e-15 1.01841 0
3.60332e-15 1.01841 0
-4.72967e-15 1.01841 0
-2.7703e-15 1.01841 0
2.5945e-15 1.01878 0
2.77871e-15 1.01878 0
-2.7703e-15 1.01841 0
-1.52639e-15 1.01841 0
2.77871e-15 1.01878 0
-3.77373e-15 1.01878 0
-5.42518e-15 1.01036 0
-3.10742e-15 1.01036 0
6.13043e-15 1.01152 0
6.49632e-15 1.01152 0
-3.10742e-15 1.01036 0
-1.00772e-14 1.01036 0
6.49632e-15 1.01152 0
9.71667e-15 1.01152 0
-8.83154e-15 1.01152 0
-9.12983e-15 1.01152 0
1.0714e-14 1.01267 0
1.48614e-14 1.01267 0
-9.12983e-15 1.01152 0
9.13747e-16 1.01152 0
1.48614e-14 1.01267 0
1.58858e-15 1.01267 0
-1.00772e-14 1.01036 0
-4.09324e-15 1.01036 0
9.71667e-15 1.01152 0
3.15382e-15 1.01152 0
-4.09324e-15 1.01036 0
-4.73597e-15 1.01036 0
3.15382e-15 1.01152 0
9.53618e-15 1.01152 0
9.13747e-16 1.01152 0
-3.88929e-15 1.01152 0
1.58858e-15 1.01267 0
8.24575e-15 1.01267 0
-3.88929e-15 1.01152 0
-6.01345e-15 1.01152 0
8.24575e-15 1.01267 0
7.64736e-15 1.01267 0
-9.12932e-15 1.01267 0
-1.08628e-14 1.01267 0
1.04093e-14 1.01383 0
9.80354e-15 1.01383 0
-1.08628e-14 1.01267 0
-6.33737e-15 1.01267 0
9.80354e-15 1.01383 0
6.98277e-15 1.01383 0
-8.80387e-15 1.01383 0
-5.74531e-15 1.01383 0
7.89075e-15 1.01502 0
6.47318e-15 1.01502 0
-5.74531e-15 1.01383 0
-1.27438e-15 1.01383 0
6.47318e-15 1.01502 0
3.34878e-15 1.01502 0
-6.33737e-15 1.01267 0
-8.05921e-15 1.01267 0
6.98277e-15 1.01383 0
8.57263e-15 1.01383 0
-8.05921e-15 1.01267 0
-3.76536e-15 1.01267 0
8.57263e-15 1.01383 0
5.72104e-15 1.01383 0
-1.27438e-15 1.01383 0
-2.86711e-15 1.01383 0
3.34878e-15 1.01502 0
5.87898e-15 1.01502 0
-2.86711e-15 1.01383 0
-1.88083e-15 1.01383 0
5.87898e-15 1.01502 0
4.38464e-15 1.01502 0
-4.73597e-15 1.01036 0
-4.83039e-15 1.01036 0
9.53618e-15 1.01152 0
7.84794e-15 1.01152 0
-4.83039e-15 1.01036 0
-3.40196e-15 1.01036 0
7.84794e-15 1.01152 0
9.78345e-15 1.01152 0
-6.01345e-15 1.01152 0
-2.94408e-15 1.01152 0
7.64736e-15 1.01267 0
4.31544e-15 1.01267 0
-2.94408e-15 1.01152 0
9.46882e-16 1.01152 0
4.31544e-15 1.01267 0
1.6664e-15 1.01267 0
-3.40196e-15 1.01036 0
-1.19933e-15 1.01036 0
9.78345e-15 1.01152 0
4.6837e-15 1.01152 0
-1.19933e-15 1.01036 0
3.86051e-15 1.01036 0
4.6837e-15 1.01152 0
-1.59303e-15 1.01152 0
9.46882e-16 1.01152 0
-2.84871e-15 1.01152 0
1.6664e-15 1.01267 0
4.19367e-15 1.01267 0
-2.84871e-15 1.01152 0
-5.00195e-15 1.01152 0
4.19367e-15 1.01267 0
1.12639e-14 1.01267 0
-3.76536e-15 1.01267 0
-2.84519e-15 1.01267 0
5.72104e-15 1.01383 0
5.07052e-15 1.01383 0
-2.84519e-15 1.01267 0
5.87994e-16 1.01267 0
5.07052e-15 1.01383 0
2.68635e-15 1.01383 0
-1.88083e-15 1.01383 0
-4.5313e-15 1.01383 0
4.38464e-15 1.01502 0
7.10289e-15 1.01502 0
-4.5313e-15 1.01383 0
-9.61447e-15 1.01383 0
7.10289e-15 1.01502 0
1.09239e-14 1.01502 0
5.87994e-16 1.01267 0
-9.42093e-17 1.01267 0
2.68635e-15 1.01383 0
1.65842e-15 1.01383 0
-9.42093e-17 1.01267 0
-9.00342e-15 1.01267 0
1.65842e-15 1.01383 0
6.3251e-15 1.01383 0
-9.61447e-15 1.01383 0
-1.43197e-15 1.01383 0
1.09239e-14 1.01502 0
3.09002e-15 1.01502 0
-1.43197e-15 1.01383 0
4.19876e-16 1.01383 0
3.09002e-15 1.01502 0
2.82208e-15 1.01502 0
-3.5234e-15 1.01502 0
-5.40873e-15 1.01502 0
3.51814e-15 1.01622 0
5.40715e-15 1.01622 0
-5.40873e-15 1.01502 0
-2.75531e-15 1.01502 0
5.40715e-15 1.01622 0
2.15121e-15 1.01622 0
-2.94372e-15 1.01622 0
-3.5852e-15 1.01622 0
2.18365e-15 1.0174 0
2.15925e-15 1.0174 0
-3.5852e-15 1.01622 0
-3.02508e-15 1.01622 0
2.15925e-15 1.0174 0
4.17243e-15 1.0174 0
-2.75531e-15 1.01502 0
-3.40096e-15 1.01502 0
2.15121e-15 1.01622 0
1.0764e-15 1.01622 0
-3.40096e-15 1.01502 0