# vtk DataFile Version 3.0
#This file was generated by the deal.II library on 2018/10/12 at 1:29:55
ASCII
DATASET UNSTRUCTURED_GRID

POINTS 5120 double
0 0 0
0.392699 0 0
0 0.593367 0
0.392699 0.593367 0
0.392699 0 0
0.785398 0 0
0.392699 0.593367 0
0.785398 0.593367 0
0 0.593367 0
0.392699 0.593367 0
0 1.22062 0
0.392699 1.22062 0
0.392699 0.593367 0
0.785398 0.593367 0
0.392699 1.22062 0
0.785398 1.22062 0
0.785398 0 0
1.1781 0 0
0.785398 0.593367 0
1.1781 0.593367 0
1.1781 0 0
1.5708 0 0
1.1781 0.593367 0
1.5708 0.593367 0
0.785398 0.593367 0
1.1781 0.593367 0
0.785398 1.22062 0
1.1781 1.22062 0
1.1781 0.593367 0
1.5708 0.593367 0
1.1781 1.22062 0
1.5708 1.22062 0
0 1.22062 0
0.392699 1.22062 0
0 1.84678 0
0.392699 1.84678 0
0.392699 1.22062 0
0.785398 1.22062 0
0.392699 1.84678 0
0.785398 1.84678 0
0 1.84678 0
0.392699 1.84678 0
0 2.47412 0
0.392699 2.47412 0
0.392699 1.84678 0
0.785398 1.84678 0
0.392699 2.47412 0
0.785398 2.47412 0
0.785398 1.22062 0
1.1781 1.22062 0
0.785398 1.84678 0
1.1781 1.84678 0
1.1781 1.22062 0
1.5708 1.22062 0
1.1781 1.84678 0
1.5708 1.84678 0
0.785398 1.84678 0
1.1781 1.84678 0
0.785398 2.47412 0
1.1781 2.47412 0
1.1781 1.84678 0
1.5708 1.84678 0
1.1781 2.47412 0
1.5708 2.47412 0
1.5708 0 0
1.9635 0 0
1.5708 0.593367 0
1.9635 0.593367 0
1.9635 0 0
2.35619 0 0
1.9635 0.593367 0
2.35619 0.593367 0
1.5708 0.593367 0
1.9635 0.593367 0
1.5708 1.22062 0
1.9635 1.22062 0
1.9635 0.593367 0
2.35619 0.593367 0
1.9635 1.22062 0
2.35619 1.22062 0
2.35619 0 0
2.74889 0 0
2.35619 0.593367 0
2.74889 0.593367 0
2.74889 0 0
3.14159 0 0
2.74889 0.593367 0
3.14159 0.593367 0
2.35619 0.593367 0
2.74889 0.593367 0
2.35619 1.22062 0
2.74889 1.22062 0
2.74889 0.593367 0
3.14159 0.593367 0
2.74889 1.22062 0
3.14159 1.22062 0
1.5708 1.22062 0
1.9635 1.22062 0
1.5708 1.84678 0
1.9635 1.84678 0
1.9635 1.22062 0
2.35619 1.22062 0
1.9635 1.84678 0
2.35619 1.84678 0
1.5708 1.84678 0
1.9635 1.84678 0
1.5708 2.47412 0
1.9635 2.47412 0
1.9635 1.84678 0
2.35619 1.84678 0
1.9635 2.47412 0
2.35619 2.47412 0
2.35619 1.22062 0
2.74889 1.22062 0
2.35619 1.84678 0
2.74889 1.84678 0
2.74889 1.22062 0
3.14159 1.22062 0
2.74889 1.84678 0
3.14159 1.84678 0
2.35619 1.84678 0
2.74889 1.84678 0
2.35619 2.47412 0
2.74889 2.47412 0
2.74889 1.84678 0
3.14159 1.84678 0
2.74889 2.47412 0
3.14159 2.47412 0
0 2.47412 0
0.392699 2.47412 0
0 3.10114 0
0.392699 3.10114 0
0.392699 2.47412 0
0.785398 2.47412 0
0.392699 3.10114 0
0.785398 3.10114 0
0 3.10114 0
0.392699 3.10114 0
0 3.72819 0
0.392699 3.72819 0
0.392699 3.10114 0
0.785398 3.10114 0
0.392699 3.72819 0
0.785398 3.72819 0
0.785398 2.47412 0
1.1781 2.47412 0
0.785398 3.10114 0
1.1781 3.10114 0
1.1781 2.47412 0
1.5708 2.47412 0
1.1781 3.10114 0
1.5708 3.10114 0
0.785398 3.10114 0
1.1781 3.10114 0
0.785398 3.72819 0
1.1781 3.72819 0
1.1781 3.10114 0
1.5708 3.10114 0
1.1781 3.72819 0
1.5708 3.72819 0
0 3.72819 0
0.392699 3.72819 0
0 4.35514 0
0.392699 4.35514 0
0.392699 3.72819 0
0.785398 3.72819 0
0.392699 4.35514 0
0.785398 4.35514 0
0 4.35514 0
0.392699 4.35514 0
0 4.982 0
0.392699 4.982 0
0.392699 4.35514 0
0.785398 4.35514 0
0.392699 4.982 0
0.785398 4.982 0
0.785398 3.72819 0
1.1781 3.72819 0
0.785398 4.35514 0
1.1781 4.35514 0
1.1781 3.72819 0
1.5708 3.72819 0
1.1781 4.35514 0
1.5708 4.35514 0
0.785398 4.35514 0
1.1781 4.35514 0
0.785398 4.982 0
1.1781 4.982 0
1.1781 4.35514 0
1.5708 4.35514 0
1.1781 4.982 0
1.5708 4.982 0
1.5708 2.47412 0
1.9635 2.47412 0
1.5708 3.10114 0
1.9635 3.10114 0
1.9635 2.47412 0
2.35619 2.47412 0
1.9635 3.10114 0
2.35619 3.10114 0
1.5708 3.10114 0
1.9635 3.10114 0
1.5708 3.72819 0
1.9635 3.72819 0
1.9635 3.10114 0
2.35619 3.10114 0
1.9635 3.72819 0
2.35619 3.72819 0
2.35619 2.47412 0
2.74889 2.47412 0
2.35619 3.10114 0
2.74889 3.10114 0
2.74889 2.47412 0
3.14159 2.47412 0
2.74889 3.10114 0
3.14159 3.10114 0
2.35619 3.10114 0
2.74889 3.10114 0
2.35619 3.72819 0
2.74889 3.72819 0
2.74889 3.10114 0
3.14159 3.10114 0
2.74889 3.72819 0
3.14159 3.72819 0
1.5708 3.72819 0
1.9635 3.72819 0
1.5708 4.35514 0
1.9635 4.35514 0
1.9635 3.72819 0
2.35619 3.72819 0
1.9635 4.35514 0
2.35619 4.35514 0
1.5708 4.35514 0
1.9635 4.35514 0
1.5708 4.982 0
1.9635 4.982 0
1.9635 4.35514 0
2.35619 4.35514 0
1.9635 4.982 0
2.35619 4.982 0
2.35619 3.72819 0
2.74889 3.72819 0
2.35619 4.35514 0
2.74889 4.35514 0
2.74889 3.72819 0
3.14159 3.72819 0
2.74889 4.35514 0
3.14159 4.35514 0
2.35619 4.35514 0
2.74889 4.35514 0
2.35619 4.982 0
2.74889 4.982 0
2.74889 4.35514 0
3.14159 4.35514 0
2.74889 4.982 0
3.14159 4.982 0
3.14159 0 0
3.53429 0 0
3.14159 0.593367 0
3.53429 0.593367 0
3.53429 0 0
3.92699 0 0
3.53429 0.593367 0
3.92699 0.593367 0
3.14159 0.593367 0
3.53429 0.593367 0
3.14159 1.22062 0
3.53429 1.22062 0
3.53429 0.593367 0
3.92699 0.593367 0
3.53429 1.22062 0
3.92699 1.22062 0
3.92699 0 0
4.31969 0 0
3.92699 0.593367 0
4.31969 0.593367 0
4.31969 0 0
4.71239 0 0
4.31969 0.593367 0
4.71239 0.593367 0
3.92699 0.593367 0
4.31969 0.593367 0
3.92699 1.22062 0
4.31969 1.22062 0
4.31969 0.593367 0
4.71239 0.593367 0
4.31969 1.22062 0
4.71239 1.22062 0
3.14159 1.22062 0
3.53429 1.22062 0
3.14159 1.84678 0
3.53429 1.84678 0
3.53429 1.22062 0
3.92699 1.22062 0
3.53429 1.84678 0
3.92699 1.84678 0
3.14159 1.84678 0
3.53429 1.84678 0
3.14159 2.47412 0
3.53429 2.47412 0
3.53429 1.84678 0
3.92699 1.84678 0
3.53429 2.47412 0
3.92699 2.47412 0
3.92699 1.22062 0
4.31969 1.22062 0
3.92699 1.84678 0
4.31969 1.84678 0
4.31969 1.22062 0
4.71239 1.22062 0
4.31969 1.84678 0
4.71239 1.84678 0
3.92699 1.84678 0
4.31969 1.84678 0
3.92699 2.47412 0
4.31969 2.47412 0
4.31969 1.84678 0
4.71239 1.84678 0
4.31969 2.47412 0
4.71239 2.47412 0
4.71239 0 0
5.10509 0 0
4.71239 0.593367 0
5.10509 0.593367 0
5.10509 0 0
5.49779 0 0
5.10509 0.593367 0
5.49779 0.593367 0
4.71239 0.593367 0
5.10509 0.593367 0
4.71239 1.22062 0
5.10509 1.22062 0
5.10509 0.593367 0
5.49779 0.593367 0
5.10509 1.22062 0
5.49779 1.22062 0
5.49779 0 0
5.89049 0 0
5.49779 0.593367 0
5.89049 0.593367 0
5.89049 0 0
6.28319 0 0
5.89049 0.593367 0
6.28319 0.593367 0
5.49779 0.593367 0
5.89049 0.593367 0
5.49779 1.22062 0
5.89049 1.22062 0
5.89049 0.593367 0
6.28319 0.593367 0
5.89049 1.22062 0
6.28319 1.22062 0
4.71239 1.22062 0
5.10509 1.22062 0
4.71239 1.84678 0
5.10509 1.84678 0
5.10509 1.22062 0
5.49779 1.22062 0
5.10509 1.84678 0
5.49779 1.84678 0
4.71239 1.84678 0
5.10509 1.84678 0
4.71239 2.47412 0
5.10509 2.47412 0
5.10509 1.84678 0
5.49779 1.84678 0
5.10509 2.47412 0
5.49779 2.47412 0
5.49779 1.22062 0
5.89049 1.22062 0
5.49779 1.84678 0
5.89049 1.84678 0
5.89049 1.22062 0
6.28319 1.22062 0
5.89049 1.84678 0
6.28319 1.84678 0
5.49779 1.84678 0
5.89049 1.84678 0
5.49779 2.47412 0
5.89049 2.47412 0
5.89049 1.84678 0
6.28319 1.84678 0
5.89049 2.47412 0
6.28319 2.47412 0
3.14159 2.47412 0
3.53429 2.47412 0
3.14159 3.10114 0
3.53429 3.10114 0
3.53429 2.47412 0
3.92699 2.47412 0
3.53429 3.10114 0
3.92699 3.10114 0
3.14159 3.10114 0
3.53429 3.10114 0
3.14159 3.72819 0
3.53429 3.72819 0
3.53429 3.10114 0
3.92699 3.10114 0
3.53429 3.72819 0
3.92699 3.72819 0
3.92699 2.47412 0
4.31969 2.47412 0
3.92699 3.10114 0
4.31969 3.10114 0
4.31969 2.47412 0
4.71239 2.47412 0
4.31969 3.10114 0
4.71239 3.10114 0
3.92699 3.10114 0
4.31969 3.10114 0
3.92699 3.72819 0
4.31969 3.72819 0
4.31969 3.10114 0
4.71239 3.10114 0
4.31969 3.72819 0
4.71239 3.72819 0
3.14159 3.72819 0
3.53429 3.72819 0
3.14159 4.35514 0
3.53429 4.35514 0
3.53429 3.72819 0
3.92699 3.72819 0
3.53429 4.35514 0
3.92699 4.35514 0
3.14159 4.35514 0
3.53429 4.35514 0
3.14159 4.982 0
3.53429 4.982 0
3.53429 4.35514 0
3.92699 4.35514 0
3.53429 4.982 0
3.92699 4.982 0
3.92699 3.72819 0
4.31969 3.72819 0
3.92699 4.35514 0
4.31969 4.35514 0
4.31969 3.72819 0
4.71239 3.72819 0
4.31969 4.35514 0
4.71239 4.35514 0
3.92699 4.35514 0
4.31969 4.35514 0
3.92699 4.982 0
4.31969 4.982 0
4.31969 4.35514 0
4.71239 4.35514 0
4.31969 4.982 0
4.71239 4.982 0
4.71239 2.47412 0
5.10509 2.47412 0
4.71239 3.10114 0
5.10509 3.10114 0
5.10509 2.47412 0
5.49779 2.47412 0
5.10509 3.10114 0
5.49779 3.10114 0
4.71239 3.10114 0
5.10509 3.10114 0
4.71239 3.72819 0
5.10509 3.72819 0
5.10509 3.10114 0
5.49779 3.10114 0
5.10509 3.72819 0
5.49779 3.72819 0
5.49779 2.47412 0
5.89049 2.47412 0
5.49779 3.10114 0
5.89049 3.10114 0
5.89049 2.47412 0
6.28319 2.47412 0
5.89049 3.10114 0
6.28319 3.10114 0
5.49779 3.10114 0
5.89049 3.10114 0
5.49779 3.72819 0
5.89049 3.72819 0
5.89049 3.10114 0
6.28319 3.10114 0
5.89049 3.72819 0
6.28319 3.72819 0
4.71239 3.72819 0
5.10509 3.72819 0
4.71239 4.35514 0
5.10509 4.35514 0
5.10509 3.72819 0
5.49779 3.72819 0
5.10509 4.35514 0
5.49779 4.35514 0
4.71239 4.35514 0
5.10509 4.35514 0
4.71239 4.982 0
5.10509 4.982 0
5.10509 4.35514 0
5.49779 4.35514 0
5.10509 4.982 0
5.49779 4.982 0
5.49779 3.72819 0
5.89049 3.72819 0
5.49779 4.35514 0
5.89049 4.35514 0
5.89049 3.72819 0
6.28319 3.72819 0
5.89049 4.35514 0
6.28319 4.35514 0
5.49779 4.35514 0
5.89049 4.35514 0
5.49779 4.982 0
5.89049 4.982 0
5.89049 4.35514 0
6.28319 4.35514 0
5.89049 4.982 0
6.28319 4.982 0
0 4.982 0
0.392699 4.982 0
0 5.60878 0
0.392699 5.60878 0
0.392699 4.982 0
0.785398 4.982 0
0.392699 5.60878 0
0.785398 5.60878 0
0 5.60878 0
0.392699 5.60878 0
0 6.23545 0
0.392699 6.23545 0
0.392699 5.60878 0
0.785398 5.60878 0
0.392699 6.23545 0
0.785398 6.23545 0
0.785398 4.982 0
1.1781 4.982 0
0.785398 5.60878 0
1.1781 5.60878 0
1.1781 4.982 0
1.5708 4.982 0
1.1781 5.60878 0
1.5708 5.60878 0
0.785398 5.60878 0
1.1781 5.60878 0
0.785398 6.23545 0
1.1781 6.23545 0
1.1781 5.60878 0
1.5708 5.60878 0
1.1781 6.23545 0
1.5708 6.23545 0
0 6.23545 0
0.392699 6.23545 0
0 6.86206 0
0.392699 6.86206 0
0.392699 6.23545 0
0.785398 6.23545 0
0.392699 6.86206 0
0.785398 6.86206 0
0 6.86206 0
0.392699 6.86206 0
0 7.48868 0
0.392699 7.48868 0
0.392699 6.86206 0
0.785398 6.86206 0
0.392699 7.48868 0
0.785398 7.48868 0
0.785398 6.23545 0
1.1781 6.23545 0
0.785398 6.86206 0
1.1781 6.86206 0
1.1781 6.23545 0
1.5708 6.23545 0
1.1781 6.86206 0
[...]
POINT_DATA 5120
VECTORS uf double
0 1 0
-1.63016e-13 1 0
0 1.00256 0
-1.62071e-13 1.00256 0
-1.63016e-13 1 0
9.17157e-15 1 0
-1.62071e-13 1.00256 0
8.07019e-15 1.00256 0
0 1.00256 0
1.42909e-13 1.00256 0
0 1.00387 0
1.27043e-13 1.00387 0
1.42909e-13 1.00256 0
-3.98154e-14 1.00256 0
1.27043e-13 1.00387 0
-4.42054e-14 1.00387 0
9.17157e-15 1 0
2.53212e-13 1 0
8.07019e-15 1.00256 0
2.5315e-13 1.00256 0
2.53212e-13 1 0
4.32311e-14 1 0
2.5315e-13 1.00256 0
4.73583e-14 1.00256 0
-3.98154e-14 1.00256 0
-2.56095e-13 1.00256 0
-4.42054e-14 1.00387 0
-2.38701e-13 1.00387 0
-2.56095e-13 1.00256 0
-4.62946e-14 1.00256 0
-2.38701e-13 1.00387 0
-3.88322e-14 1.00387 0
0 1.00387 0
-1.32435e-14 1.00387 0
0 1.00546 0
-8.10438e-15 1.00546 0
-1.32435e-14 1.00387 0
9.97667e-14 1.00387 0
-8.10438e-15 1.00546 0
1.0025e-13 1.00546 0
0 1.00546 0
3.92096e-14 1.00546 0
0 1.00694 0
4.00273e-14 1.00694 0
3.92096e-14 1.00546 0
-3.27452e-14 1.00546 0
4.00273e-14 1.00694 0
-3.72277e-14 1.00694 0
9.97667e-14 1.00387 0
-5.79906e-15 1.00387 0
1.0025e-13 1.00546 0
9.96393e-15 1.00546 0
-5.79906e-15 1.00387 0
-9.28342e-15 1.00387 0
9.96393e-15 1.00546 0
8.03876e-15 1.00546 0
-3.27452e-14 1.00546 0
4.49197e-14 1.00546 0
-3.72277e-14 1.00694 0
4.25399e-14 1.00694 0
4.49197e-14 1.00546 0
-3.73379e-14 1.00546 0
4.25399e-14 1.00694 0
-2.78888e-14 1.00694 0
4.32311e-14 1 0
-3.34555e-14 1 0
4.73583e-14 1.00256 0
-2.039e-14 1.00256 0
-3.34555e-14 1 0
-8.64408e-15 1 0
-2.039e-14 1.00256 0
9.96855e-15 1.00256 0
-4.62946e-14 1.00256 0
2.72472e-14 1.00256 0
-3.88322e-14 1.00387 0
2.5343e-14 1.00387 0
2.72472e-14 1.00256 0
-9.40937e-15 1.00256 0
2.5343e-14 1.00387 0
8.56981e-15 1.00387 0
-8.64408e-15 1 0
2.04561e-16 1 0
9.96855e-15 1.00256 0
5.01711e-15 1.00256 0
2.04561e-16 1 0
-1.37473e-15 1 0
5.01711e-15 1.00256 0
8.9941e-15 1.00256 0
-9.40937e-15 1.00256 0
-1.21295e-14 1.00256 0
8.56981e-15 1.00387 0
8.95911e-15 1.00387 0
-1.21295e-14 1.00256 0
-1.24048e-14 1.00256 0
8.95911e-15 1.00387 0
1.35438e-14 1.00387 0
-9.28342e-15 1.00387 0
3.26641e-14 1.00387 0
8.03876e-15 1.00546 0
4.08093e-14 1.00546 0
3.26641e-14 1.00387 0
-5.42875e-16 1.00387 0
4.08093e-14 1.00546 0
-4.86952e-16 1.00546 0
-3.73379e-14 1.00546 0
-9.7125e-15 1.00546 0
-2.78888e-14 1.00694 0
-9.90807e-15 1.00694 0
-9.7125e-15 1.00546 0
2.94726e-15 1.00546 0
-9.90807e-15 1.00694 0
-5.86737e-16 1.00694 0
-5.42875e-16 1.00387 0
-1.01575e-14 1.00387 0
-4.86952e-16 1.00546 0
1.11652e-14 1.00546 0
-1.01575e-14 1.00387 0
-1.07347e-14 1.00387 0
1.11652e-14 1.00546 0
1.13317e-14 1.00546 0
2.94726e-15 1.00546 0
-1.24997e-15 1.00546 0
-5.86737e-16 1.00694 0
-1.00933e-15 1.00694 0
-1.24997e-15 1.00546 0
-4.404e-15 1.00546 0
-1.00933e-15 1.00694 0
-2.79353e-15 1.00694 0
0 1.00694 0
-9.04483e-14 1.00694 0
0 1.00841 0
-8.745e-14 1.00841 0
-9.04483e-14 1.00694 0
-3.80393e-14 1.00694 0
-8.745e-14 1.00841 0
-4.07932e-14 1.00841 0
0 1.00841 0
9.18073e-14 1.00841 0
0 1.00985 0
8.33269e-14 1.00985 0
9.18073e-14 1.00841 0
8.83941e-14 1.00841 0
8.33269e-14 1.00985 0
8.29915e-14 1.00985 0
-3.80393e-14 1.00694 0
-6.18825e-14 1.00694 0
-4.07932e-14 1.00841 0
-5.32961e-14 1.00841 0
-6.18825e-14 1.00694 0
5.64832e-14 1.00694 0
-5.32961e-14 1.00841 0
4.35581e-14 1.00841 0
8.83941e-14 1.00841 0
6.89244e-14 1.00841 0
8.29915e-14 1.00985 0
6.24343e-14 1.00985 0
6.89244e-14 1.00841 0
-6.97167e-14 1.00841 0
6.24343e-14 1.00985 0
-6.6333e-14 1.00985 0
0 1.00985 0
1.75e-14 1.00985 0
0 1.01127 0
6.99206e-15 1.01127 0
1.75e-14 1.00985 0
-2.03047e-13 1.00985 0
6.99206e-15 1.01127 0
-1.99341e-13 1.01127 0
0 1.01127 0
5.6309e-15 1.01127 0
0 1.01266 0
-2.2406e-15 1.01266 0
5.6309e-15 1.01127 0
1.91097e-13 1.01127 0
-2.2406e-15 1.01266 0
1.91624e-13 1.01266 0
-2.03047e-13 1.00985 0
-5.23904e-14 1.00985 0
-1.99341e-13 1.01127 0
-5.42075e-14 1.01127 0
-5.23904e-14 1.00985 0
1.52602e-13 1.00985 0
-5.42075e-14 1.01127 0
1.43481e-13 1.01127 0
1.91097e-13 1.01127 0
3.28663e-14 1.01127 0
1.91624e-13 1.01266 0
2.49395e-14 1.01266 0
3.28663e-14 1.01127 0
-1.59137e-13 1.01127 0
2.49395e-14 1.01266 0
-1.48444e-13 1.01266 0
5.64832e-14 1.00694 0
9.41155e-15 1.00694 0
4.35581e-14 1.00841 0
1.51889e-14 1.00841 0
9.41155e-15 1.00694 0
-1.77264e-16 1.00694 0
1.51889e-14 1.00841 0
6.31072e-16 1.00841 0
-6.97167e-14 1.00841 0
-2.37893e-14 1.00841 0
-6.6333e-14 1.00985 0
-2.89429e-14 1.00985 0
-2.37893e-14 1.00841 0
-1.20977e-14 1.00841 0
-2.89429e-14 1.00985 0
-5.98411e-15 1.00985 0
-1.77264e-16 1.00694 0
1.9874e-15 1.00694 0
6.31072e-16 1.00841 0
-3.93176e-15 1.00841 0
1.9874e-15 1.00694 0
-1.64158e-15 1.00694 0
-3.93176e-15 1.00841 0
5.47851e-15 1.00841 0
-1.20977e-14 1.00841 0
-1.68503e-15 1.00841 0
-5.98411e-15 1.00985 0
2.29981e-15 1.00985 0
-1.68503e-15 1.00841 0
1.80697e-14 1.00841 0
2.29981e-15 1.00985 0
2.53554e-14 1.00985 0
1.52602e-13 1.00985 0
-1.42669e-14 1.00985 0
1.43481e-13 1.01127 0
-1.63548e-14 1.01127 0
-1.42669e-14 1.00985 0
8.06216e-15 1.00985 0
-1.63548e-14 1.01127 0
1.13585e-14 1.01127 0
-1.59137e-13 1.01127 0
-4.27634e-14 1.01127 0
-1.48444e-13 1.01266 0
-3.47818e-14 1.01266 0
-4.27634e-14 1.01127 0
-2.91883e-15 1.01127 0
-3.47818e-14 1.01266 0
3.0758e-15 1.01266 0
8.06216e-15 1.00985 0
1.30184e-15 1.00985 0
1.13585e-14 1.01127 0
6.6268e-16 1.01127 0
1.30184e-15 1.00985 0
-2.10526e-14 1.00985 0
6.6268e-16 1.01127 0
-1.67595e-14 1.01127 0
-2.91883e-15 1.01127 0
8.30454e-15 1.01127 0
3.0758e-15 1.01266 0
1.56959e-14 1.01266 0
8.30454e-15 1.01127 0
-5.06809e-15 1.01127 0
1.56959e-14 1.01266 0
-4.52297e-15 1.01266 0
-1.37473e-15 1 0
-1.28301e-15 1 0
8.9941e-15 1.00256 0
1.21851e-14 1.00256 0
-1.28301e-15 1 0
3.18985e-15 1 0
1.21851e-14 1.00256 0
6.89981e-15 1.00256 0
-1.24048e-14 1.00256 0
-4.32978e-15 1.00256 0
1.35438e-14 1.00387 0
5.79472e-15 1.00387 0
-4.32978e-15 1.00256 0
-4.92951e-15 1.00256 0
5.79472e-15 1.00387 0
2.13893e-15 1.00387 0
3.18985e-15 1 0
5.54455e-15 1 0
6.89981e-15 1.00256 0
7.36043e-15 1.00256 0
5.54455e-15 1 0
-2.99346e-17 1 0
7.36043e-15 1.00256 0
1.30887e-14 1.00256 0
-4.92951e-15 1.00256 0
-8.14512e-15 1.00256 0
2.13893e-15 1.00387 0
7.29473e-15 1.00387 0
-8.14512e-15 1.00256 0
-1.37095e-15 1.00256 0
7.29473e-15 1.00387 0
4.10553e-15 1.00387 0
-1.07347e-14 1.00387 0
-1.02807e-14 1.00387 0
1.13317e-14 1.00546 0
1.01846e-14 1.00546 0
-1.02807e-14 1.00387 0
-1.19447e-15 1.00387 0
1.01846e-14 1.00546 0
2.57383e-15 1.00546 0
-4.404e-15 1.00546 0
2.57776e-15 1.00546 0
-2.79353e-15 1.00694 0
8.34659e-15 1.00694 0
2.57776e-15 1.00546 0
1.11884e-14 1.00546 0
8.34659e-15 1.00694 0
3.39817e-15 1.00694 0
-1.19447e-15 1.00387 0
9.21617e-15 1.00387 0
2.57383e-15 1.00546 0
-3.10138e-15 1.00546 0
9.21617e-15 1.00387 0
-6.15604e-16 1.00387 0
-3.10138e-15 1.00546 0
4.74868e-15 1.00546 0
1.11884e-14 1.00546 0
-6.23019e-15 1.00546 0
3.39817e-15 1.00694 0
2.72778e-15 1.00694 0
-6.23019e-15 1.00546 0
3.56668e-15 1.00546 0
2.72778e-15 1.00694 0
6.22919e-15 1.00694 0
-2.99346e-17 1 0
8.06949e-16 1 0
1.30887e-14 1.00256 0
1.32376e-14 1.00256 0
8.06949e-16 1 0
3.47622e-15 1 0
1.32376e-14 1.00256 0
8.88018e-15 1.00256 0
-1.37095e-15 1.00256 0
-6.31755e-16 1.00256 0
4.10553e-15 1.00387 0
3.44877e-15 1.00387 0
-6.31755e-16 1.00256 0
-5.96086e-15 1.00256 0
3.44877e-15 1.00387 0
1.14114e-14 1.00387 0
3.47622e-15 1 0
2.06419e-15 1 0
8.88018e-15 1.00256 0
1.61359e-14 1.00256 0
2.06419e-15 1 0
7.3926e-15 1 0
1.61359e-14 1.00256 0
9.32831e-15 1.00256 0
-5.96086e-15 1.00256 0
-3.18771e-15 1.00256 0
1.14114e-14 1.00387 0
7.71873e-15 1.00387 0
-3.18771e-15 1.00256 0
-8.51639e-15 1.00256 0
7.71873e-15 1.00387 0
9.76802e-15 1.00387 0
-6.15604e-16 1.00387 0
-1.59875e-14 1.00387 0
4.74868e-15 1.00546 0
1.10505e-14 1.00546 0
-1.59875e-14 1.00387 0
1.92063e-15 1.00387 0
1.10505e-14 1.00546 0
2.54272e-15 1.00546 0
3.56668e-15 1.00546 0
3.03743e-15 1.00546 0
6.22919e-15 1.00694 0
4.46757e-15 1.00694 0
3.03743e-15 1.00546 0
1.49116e-15 1.00546 0
4.46757e-15 1.00694 0
-1.88195e-15 1.00694 0
1.92063e-15 1.00387 0
-1.29124e-14 1.00387 0
2.54272e-15 1.00546 0
1.046e-14 1.00546 0
-1.29124e-14 1.00387 0
-1.06244e-14 1.00387 0
1.046e-14 1.00546 0
7.21195e-15 1.00546 0
1.49116e-15 1.00546 0
1.53457e-15 1.00546 0
-1.88195e-15 1.00694 0
6.15492e-15 1.00694 0
1.53457e-15 1.00546 0
-7.46211e-16 1.00546 0
6.15492e-15 1.00694 0
1.50536e-15 1.00694 0
-1.64158e-15 1.00694 0
-5.85418e-15 1.00694 0
5.47851e-15 1.00841 0
5.05383e-16 1.00841 0
-5.85418e-15 1.00694 0
-9.92014e-15 1.00694 0
5.05383e-16 1.00841 0
-9.29673e-15 1.00841 0
1.80697e-14 1.00841 0
-1.06568e-14 1.00841 0
2.53554e-14 1.00985 0
1.627e-15 1.00985 0
-1.06568e-14 1.00841 0
1.08919e-14 1.00841 0
1.627e-15 1.00985 0
4.89822e-16 1.00985 0
-9.92014e-15 1.00694 0
6.87001e-15 1.00694 0
-9.29673e-15 1.00841 0
3.12793e-15 1.00841 0
6.87001e-15 1.00694 0
-5.07196e-15 1.00694 0
3.12793e-15 1.00841 0
6.09271e-15 1.00841 0
1.08919e-14 1.00841 0
3.02321e-15 1.00841 0
4.89822e-16 1.00985 0
-1.81474e-15 1.00985 0
3.02321e-15 1.00841 0
-4.01868e-15 1.00841 0
-1.81474e-15 1.00985 0
4.13785e-15 1.00985 0
-2.10526e-14 1.00985 0
1.20323e-14 1.00985 0
-1.67595e-14 1.01127 0
1.50075e-14 1.01127 0
1.20323e-14 1.00985 0
-3.28083e-15 1.00985 0
1.50075e-14 1.01127 0
6.01217e-15 1.01127 0
-5.06809e-15 1.01127 0
-1.01296e-14 1.01127 0
-4.52297e-15 1.01266 0
-3.14609e-15 1.01266 0
-1.01296e-14 1.01127 0
2.16631e-14 1.01127 0
-3.14609e-15 1.01266 0
3.19415e-14 1.01266 0
-3.28083e-15 1.00985 0
-1.88065e-15 1.00985 0
6.01217e-15 1.01127 0
3.03751e-15 1.01127 0
-1.88065e-15 1.00985 0
-5.66936e-15 1.00985 0
3.03751e-15 1.01127 0
8.34572e-15 1.01127 0
2.16631e-14 1.01127 0
7.35694e-15 1.01127 0
3.19415e-14 1.01266 0
-1.48832e-16 1.01266 0
7.35694e-15 1.01127 0
-4.58522e-15 1.01127 0
-1.48832e-16 1.01266 0
3.63563e-15 1.01266 0
-5.07196e-15 1.00694 0
-1.19599e-16 1.00694 0
6.09271e-15 1.00841 0
-2.79666e-15 1.00841 0
-1.19599e-16 1.00694 0
-2.04773e-16 1.00694 0
-2.79666e-15 1.00841 0
4.5614e-15 1.00841 0
-4.01868e-15 1.00841 0
1.5031e-15 1.00841 0
4.13785e-15 1.00985 0
-1.57017e-15 1.00985 0
1.5031e-15 1.00841 0
4.76616e-15 1.00841 0
-1.57017e-15 1.00985 0
-3.86354e-15 1.00985 0
-2.04773e-16 1.00694 0
5.61095e-16 1.00694 0
4.5614e-15 1.00841 0
7.30153e-16 1.00841 0
5.61095e-16 1.00694 0
6.86709e-15 1.00694 0
7.30153e-16 1.00841 0
-2.27086e-15 1.00841 0
4.76616e-15 1.00841 0
1.78931e-15 1.00841 0
-3.86354e-15 1.00985 0
4.22346e-15 1.00985 0
1.78931e-15 1.00841 0
-2.16802e-15 1.00841 0
4.22346e-15 1.00985 0
9.14273e-15 1.00985 0
-5.66936e-15 1.00985 0
2.67225e-15 1.00985 0
8.34572e-15 1.01127 0
-7.2537e-17 1.01127 0
2.67225e-15 1.00985 0
-6.85953e-15 1.00985 0
-7.2537e-17 1.01127 0
7.48129e-15 1.01127 0
-4.58522e-15 1.01127 0
1.17286e-15 1.01127 0
3.63563e-15 1.01266 0
1.34404e-15 1.01266 0
1.17286e-15 1.01127 0
2.4121e-16 1.01127 0
1.34404e-15 1.01266 0
6.67069e-16 1.01266 0
-6.85953e-15 1.00985 0
5.53356e-16 1.00985 0
7.48129e-15 1.01127 0
3.93881e-15 1.01127 0
5.53356e-16 1.00985 0
-6.03031e-15 1.00985 0
3.93881e-15 1.01127 0
6.69804e-15 1.01127 0
2.4121e-16 1.01127 0
-5.10549e-15 1.01127 0
6.67069e-16 1.01266 0
-1.08449e-16 1.01266 0
-5.10549e-15 1.01127 0
4.89439e-15 1.01127 0
-1.08449e-16 1.01266 0
-6.34582e-15 1.01266 0
0 1.01266 0
-4.64614e-14 1.01266 0
0 1.01404 0
-4.01969e-14 1.01404 0
-4.64614e-14 1.01266 0
-1.33366e-13 1.01266 0
-4.01969e-14 1.01404 0
-1.14949e-13 1.01404 0
0 1.01404 0
3.79815e-14 1.01404 0
0 1.01542 0
3.25489e-14 1.01542 0
3.79815e-14 1.01404 0
1.04338e-13 1.01404 0
3.25489e-14 1.01542 0
1.09831e-13 1.01542 0
-1.33366e-13 1.01266 0
4.2343e-14 1.01266 0
-1.14949e-13 1.01404 0
3.92086e-14 1.01404 0
4.2343e-14 1.01266 0
1.05353e-13 1.01266 0
3.92086e-14 1.01404 0
1.01674e-13 1.01404 0
1.04338e-13 1.01404 0
-1.25647e-13 1.01404 0
1.09831e-13 1.01542 0
-1.25728e-13 1.01542 0
-1.25647e-13 1.01404 0
-6.86408e-14 1.01404 0
-1.25728e-13 1.01542 0
-7.07178e-14 1.01542 0
0 1.01542 0
-4.99472e-14 1.01542 0
0 1.01679 0
-4.14788e-14 1.01679 0
-4.99472e-14 1.01542 0
-9.27875e-14 1.01542 0
-4.14788e-14 1.01679 0
-8.92805e-14 1.01679 0
0 1.01679 0
3.17743e-14 1.01679 0
0 1.01818 0
3.2099e-14 1.01818 0
3.17743e-14 1.01679 0
5.84715e-14 1.01679 0
3.2099e-14 1.01818 0
6.04852e-14 1.01818 0
-9.27875e-14 1.01542 0
7.11944e-14 1.01542 0
-8.92805e-14 1.01679 0
6.80276e-14 1.01679 0
7.11944e-14 1.01542 0
3.54783e-14 1.01542 0
6.80276e-14 1.01679 0
3.70616e-14 1.01679 0
5.84715e-14 1.01679 0
-1.78031e-14 1.01679 0
6.04852e-14 1.01818 0
-1.6809e-14 1.01818 0
-1.78031e-14 1.01679 0
6.15189e-16 1.01679 0
-1.6809e-14 1.01818 0
-5.05941e-15 1.01818 0
1.05353e-13 1.01266 0
4.6032e-14 1.01266 0
1.01674e-13 1.01404 0
5.49001e-14 1.01404 0
4.6032e-14 1.01266 0
-2.03742e-15 1.01266 0
5.49001e-14 1.01404 0
6.9979e-15 1.01404 0
-6.86408e-14 1.01404 0
-3.77215e-15 1.01404 0
-7.07178e-14 1.01542 0
-1.83585e-15 1.01542 0
-3.77215e-15 1.01404 0
-8.37554e-15 1.01404 0
-1.83585e-15 1.01542 0
3.52992e-15 1.01542 0
-2.03742e-15 1.01266 0
-9.99505e-15 1.01266 0
6.9979e-15 1.01404 0
-7.64516e-15 1.01404 0
-9.99505e-15 1.01266 0
1.36114e-14 1.01266 0
-7.64516e-15 1.01404 0
6.75975e-15 1.01404 0
-8.37554e-15 1.01404 0
7.77098e-16 1.01404 0
3.52992e-15 1.01542 0
6.38922e-15 1.01542 0
7.77098e-16 1.01404 0
-1.6862e-15 1.01404 0
6.38922e-15 1.01542 0
-2.26875e-15 1.01542 0
3.54783e-14 1.01542 0
-7.21997e-15 1.01542 0
3.70616e-14 1.01679 0
-3.75037e-15 1.01679 0
-7.21997e-15 1.01542 0
9.69664e-16 1.01542 0
-3.75037e-15 1.01679 0
4.21671e-15 1.01679 0
6.15189e-16 1.01679 0
3.49253e-15 1.01679 0
-5.05941e-15 1.01818 0
5.10329e-15 1.01818 0
3.49253e-15 1.01679 0
-1.02505e-15 1.01679 0
5.10329e-15 1.01818 0
-1.43156e-15 1.01818 0
9.69664e-16 1.01542 0
-1.99341e-15 1.01542 0
4.21671e-15 1.01679 0
3.81601e-15 1.01679 0
-1.99341e-15 1.01542 0
-5.60852e-15 1.01542 0
3.81601e-15 1.01679 0
4.02489e-15 1.01679 0
-1.02505e-15 1.01679 0
-2.39603e-15 1.01679 0
-1.43156e-15 1.01818 0
1.74503e-15 1.01818 0
-2.39603e-15 1.01679 0
-2.48836e-15 1.01679 0
1.74503e-15 1.01818 0
1.41147e-15 1.01818 0
0 1.01818 0
3.67772e-14 1.01818 0
0 1.01958 0
3.37164e-14 1.01958 0
3.67772e-14 1.01818 0
-3.13673e-14 1.01818 0
3.37164e-14 1.01958 0
-2.89181e-14 1.01958 0
0 1.01958 0
-4.06576e-14 1.01958 0
0 1.02094 0
-3.57059e-14 1.02094 0
-4.06576e-14 1.01958 0
3.83073e-14 1.01958 0
-3.57059e-14 1.02094 0
3.76355e-14 1.02094 0
-3.13673e-14 1.01818 0
6.01459e-15 1.01818 0
-2.89181e-14 1.01958 0
5.28662e-15 1.01958 0
6.01459e-15 1.01818 0
-1.2901e-14 1.01818 0
5.28662e-15 1.01958 0
-1.03532e-14 1.01958 0
3.83073e-14 1.01958 0
-2.17156e-15 1.01958 0
3.76355e-14 1.02094 0
9.9727e-16 1.02094 0
-2.17156e-15 1.01958 0
-2.03362e-15 1.01958 0
9.9727e-16 1.02094 0
3.06352e-15 1.02094 0
0 1.02094 0
1.01398e-14 1.02094 0
0 1.02213 0
4.7132e-15 1.02213 0
1.01398e-14 1.02094 0
-3.04261e-14 1.02094 0
4.7132e-15 1.02213 0
-3.26014e-14 1.02213 0
0 1.02213 0
1.79267e-15 1.02213 0
0 1.02267 0
-4.79761e-15 1.02267 0
1.79267e-15 1.02213 0
-5.62628e-15 1.02213 0
-4.79761e-15 1.02267 0
1.04606e-14 1.02267 0
-3.04261e-14 1.02094 0
4.86202e-16 1.02094 0
-3.26014e-14 1.02213 0
-1.28142e-15 1.02213 0
4.86202e-16 1.02094 0
1.97399e-15 1.02094 0
-1.28142e-15 1.02213 0
7.87872e-16 1.02213 0
-5.62628e-15 1.02213 0
-5.37313e-15 1.02213 0
1.04606e-14 1.02267 0
-1.56815e-14 1.02267 0
-5.37313e-15 1.02213 0
-1.80493e-15 1.02213 0
-1.56815e-14 1.02267 0
1.89576e-14 1.02267 0
-1.2901e-14 1.01818 0
-1.49184e-14 1.01818 0
-1.03532e-14 1.01958 0
-2.73597e-15 1.01958 0
-1.49184e-14 1.01818 0
2.08376e-16 1.01818 0
-2.73597e-15 1.01958 0
1.32856e-15 1.01958 0
-2.03362e-15 1.01958 0
4.31451e-15 1.01958 0
3.06352e-15 1.02094 0
6.44542e-15 1.02094 0
4.31451e-15 1.01958 0
-2.39833e-15 1.01958 0
6.44542e-15 1.02094 0
9.85333e-16 1.02094 0
2.08376e-16 1.01818 0
2.62104e-16 1.01818 0
1.32856e-15 1.01958 0
-6.83662e-16 1.01958 0
2.62104e-16 1.01818 0
-2.10432e-15 1.01818 0
-6.83662e-16 1.01958 0
2.05543e-15 1.01958 0
-2.39833e-15 1.01958 0
-3.67278e-15 1.01958 0
9.85333e-16 1.02094 0
-2.33355e-17 1.02094 0
-3.67278e-15 1.01958 0
-2.18712e-15 1.01958 0
-2.33355e-17 1.02094 0
3.91616e-16 1.02094 0
1.97399e-15 1.02094 0
-9.45588e-15 1.02094 0
7.87872e-16 1.02213 0
-6.66235e-15 1.02213 0
-9.45588e-15 1.02094 0
-2.75292e-15 1.02094 0
-6.66235e-15 1.02213 0
1.98512e-15 1.02213 0
-1.80493e-15 1.02213 0
-2.60785e-15 1.02213 0
1.89576e-14 1.02267 0
1.49545e-15 1.02267 0
-2.60785e-15 1.02213 0
-1.8331e-15 1.02213 0
1.49545e-15 1.02267 0
-1.58265e-15 1.02267 0
-2.75292e-15 1.02094 0
-2.28359e-15 1.02094 0
1.98512e-15 1.02213 0
1.47642e-15 1.02213 0
-2.28359e-15 1.02094 0
4.90258e-16 1.02094 0
1.47642e-15 1.02213 0
8.46799e-16 1.02213 0
-1.8331e-15 1.02213 0
-6.55416e-16 1.02213 0
-1.58265e-15 1.02267 0
8.42232e-15 1.02267 0
-6.55416e-16 1.02213 0
1.13615e-15 1.02213 0
8.42232e-15 1.02267 0
-2.06624e-14 1.02267 0
1.36114e-14 1.01266 0
5.23006e-15 1.01266 0
6.75975e-15 1.01404 0
9.28165e-15 1.01404 0
5.23006e-15 1.01266 0
-2.65925e-14 1.01266 0
9.28165e-15 1.01404 0
-1.98044e-14 1.01404 0
-1.6862e-15 1.01404 0
7.99185e-17 1.01404 0
-2.26875e-15 1.01542 0
1.13928e-15 1.01542 0
7.99185e-17 1.01404 0
8.23057e-16 1.01404 0
1.13928e-15 1.01542 0
4.58899e-16 1.01542 0
-2.65925e-14 1.01266 0
-1.84517e-15 1.01266 0
-1.98044e-14 1.01404 0
1.41188e-15 1.01404 0
-1.84517e-15 1.01266 0
-9.14466e-16 1.01266 0
1.41188e-15 1.01404 0
7.08176e-15 1.01404 0
8.23057e-16 1.01404 0
-9.68713e-16 1.01404 0
4.58899e-16 1.01542 0
5.78398e-15 1.01542 0
-9.68713e-16 1.01404 0
-3.28408e-15 1.01404 0
5.78398e-15 1.01542 0
5.74747e-15 1.01542 0
-5.60852e-15 1.01542 0
-3.54608e-16 1.01542 0
4.02489e-15 1.01679 0
2.82713e-15 1.01679 0
-3.54608e-16 1.01542 0
-2.95341e-15 1.01542 0
2.82713e-15 1.01679 0
5.14392e-15 1.01679 0
-2.48836e-15 1.01679 0
-1.48378e-15 1.01679 0
1.41147e-15 1.01818 0
1.06236e-16 1.01818 0
-1.48378e-15 1.01679 0
-7.7291e-16 1.01679 0
1.06236e-16 1.01818 0
-1.14368e-17 1.01818 0
-2.95341e-15 1.01542 0
-2.47007e-15 1.01542 0
5.14392e-15 1.01679 0
3.83243e-15 1.01679 0
-2.47007e-15 1.01542 0
-4.5999e-15 1.01542 0
3.83243e-15 1.01679 0
3.84354e-15 1.01679 0
-7.7291e-16 1.01679 0
-5.49538e-15 1.01679 0
-1.14368e-17 1.01818 0
2.36311e-15 1.01818 0
-5.49538e-15 1.01679 0
3.64951e-15 1.01679 0
2.36311e-15 1.01818 0
-1.49367e-15 1.01818 0
-9.14466e-16 1.01266 0
3.09155e-15 1.01266 0
7.08176e-15 1.01404 0
-2.62552e-15 1.01404 0
3.09155e-15 1.01266 0
1.26995e-15 1.01266 0
-2.62552e-15 1.01404 0
3.20442e-15 1.01404 0
-3.28408e-15 1.01404 0
-7.53984e-17 1.01404 0
5.74747e-15 1.01542 0
4.23372e-15 1.01542 0
-7.53984e-17 1.01404 0
3.53937e-17 1.01404 0
4.23372e-15 1.01542 0
3.75079e-15 1.01542 0
1.26995e-15 1.01266 0
-6.2846e-15 1.01266 0
3.20442e-15 1.01404 0
3.12973e-15 1.01404 0
-6.2846e-15 1.01266 0
5.86573e-15 1.01266 0
3.12973e-15 1.01404 0
-3.45389e-15 1.01404 0
3.53937e-17 1.01404 0
5.95568e-16 1.01404 0
3.75079e-15 1.01542 0
3.39952e-15 1.01542 0
5.95568e-16 1.01404 0
-8.04213e-16 1.01404 0
3.39952e-15 1.01542 0
4.37792e-15 1.01542 0
-4.5999e-15 1.01542 0
-3.72833e-15 1.01542 0
3.84354e-15 1.01679 0
1.76911e-15 1.01679 0
-3.72833e-15 1.01542 0
-1.13552e-15 1.01542 0
1.76911e-15 1.01679 0
-5.54032e-17 1.01679 0
3.64951e-15 1.01679 0
-2.43677e-15 1.01679 0
-1.49367e-15 1.01818 0
4.49156e-15 1.01818 0
-2.43677e-15 1.01679 0
-4.51268e-15 1.01679 0
4.49156e-15 1.01818 0
5.02014e-15 1.01818 0
-1.13552e-15 1.01542 0
-9.8831e-16 1.01542 0
-5.54032e-17 1.01679 0
3.97202e-15 1.01679 0
-9.8831e-16 1.01542 0
-3.34516e-15 1.01542 0
3.97202e-15 1.01679 0
5.99474e-15 1.01679 0
-4.51268e-15 1.01679 0
-1.2817e-15 1.01679 0
5.02014e-15 1.01818 0
-2.15633e-15 1.01818 0
-1.2817e-15 1.01679 0
4.94956e-15 1.01679 0
-2.15633e-15 1.01818 0
-3.25744e-15 1.01818 0
-2.10432e-15 1.01818 0
-5.44825e-15 1.01818 0
2.05543e-15 1.01958 0
-1.5025e-16 1.01958 0
-5.44825e-15 1.01818 0
-4.29303e-15 1.01818 0
-1.5025e-16 1.01958 0
-3.86454e-17 1.01958 0
-2.18712e-15 1.01958 0
-1.57413e-15 1.01958 0
3.91616e-16 1.02094 0
2.7495e-15 1.02094 0
-1.57413e-15 1.01958 0
-1.88694e-15 1.01958 0
2.7495e-15 1.02094 0
5.68073e-16 1.02094 0
-4.29303e-15 1.01818 0
-2.70485e-16 1.01818 0
-3.86454e-17 1.01958 0
3.10762e-15 1.01958 0