# vtk DataFile Version 3.0
#This file was generated by the deal.II library on 2018/10/12 at 1:13:47
ASCII
DATASET UNSTRUCTURED_GRID

POINTS 5120 double
0 0 0
0.392699 0 0
0 0.598046 0
0.392699 0.598046 0
0.392699 0 0
0.785398 0 0
0.392699 0.598046 0
0.785398 0.598046 0
0 0.598046 0
0.392699 0.598046 0
0 1.225 0
0.392699 1.225 0
0.392699 0.598046 0
0.785398 0.598046 0
0.392699 1.225 0
0.785398 1.225 0
0.785398 0 0
1.1781 0 0
0.785398 0.598046 0
1.1781 0.598046 0
1.1781 0 0
1.5708 0 0
1.1781 0.598046 0
1.5708 0.598046 0
0.785398 0.598046 0
1.1781 0.598046 0
0.785398 1.225 0
1.1781 1.225 0
1.1781 0.598046 0
1.5708 0.598046 0
1.1781 1.225 0
1.5708 1.225 0
0 1.225 0
0.392699 1.225 0
0 1.85098 0
0.392699 1.85098 0
0.392699 1.225 0
0.785398 1.225 0
0.392699 1.85098 0
0.785398 1.85098 0
0 1.85098 0
0.392699 1.85098 0
0 2.47795 0
0.392699 2.47795 0
0.392699 1.85098 0
0.785398 1.85098 0
0.392699 2.47795 0
0.785398 2.47795 0
0.785398 1.225 0
1.1781 1.225 0
0.785398 1.85098 0
1.1781 1.85098 0
1.1781 1.225 0
1.5708 1.225 0
1.1781 1.85098 0
1.5708 1.85098 0
0.785398 1.85098 0
1.1781 1.85098 0
0.785398 2.47795 0
1.1781 2.47795 0
1.1781 1.85098 0
1.5708 1.85098 0
1.1781 2.47795 0
1.5708 2.47795 0
1.5708 0 0
1.9635 0 0
1.5708 0.598046 0
1.9635 0.598046 0
1.9635 0 0
2.35619 0 0
1.9635 0.598046 0
2.35619 0.598046 0
1.5708 0.598046 0
1.9635 0.598046 0
1.5708 1.225 0
1.9635 1.225 0
1.9635 0.598046 0
2.35619 0.598046 0
1.9635 1.225 0
2.35619 1.225 0
2.35619 0 0
2.74889 0 0
2.35619 0.598046 0
2.74889 0.598046 0
2.74889 0 0
3.14159 0 0
2.74889 0.598046 0
3.14159 0.598046 0
2.35619 0.598046 0
2.74889 0.598046 0
2.35619 1.225 0
2.74889 1.225 0
2.74889 0.598046 0
3.14159 0.598046 0
2.74889 1.225 0
3.14159 1.225 0
1.5708 1.225 0
1.9635 1.225 0
1.5708 1.85098 0
1.9635 1.85098 0
1.9635 1.225 0
2.35619 1.225 0
1.9635 1.85098 0
2.35619 1.85098 0
1.5708 1.85098 0
1.9635 1.85098 0
1.5708 2.47795 0
1.9635 2.47795 0
1.9635 1.85098 0
2.35619 1.85098 0
1.9635 2.47795 0
2.35619 2.47795 0
2.35619 1.225 0
2.74889 1.225 0
2.35619 1.85098 0
2.74889 1.85098 0
2.74889 1.225 0
3.14159 1.225 0
2.74889 1.85098 0
3.14159 1.85098 0
2.35619 1.85098 0
2.74889 1.85098 0
2.35619 2.47795 0
2.74889 2.47795 0
2.74889 1.85098 0
3.14159 1.85098 0
2.74889 2.47795 0
3.14159 2.47795 0
0 2.47795 0
0.392699 2.47795 0
0 3.10465 0
0.392699 3.10465 0
0.392699 2.47795 0
0.785398 2.47795 0
0.392699 3.10465 0
0.785398 3.10465 0
0 3.10465 0
0.392699 3.10465 0
0 3.73137 0
0.392699 3.73137 0
0.392699 3.10465 0
0.785398 3.10465 0
0.392699 3.73137 0
0.785398 3.73137 0
0.785398 2.47795 0
1.1781 2.47795 0
0.785398 3.10465 0
1.1781 3.10465 0
1.1781 2.47795 0
1.5708 2.47795 0
1.1781 3.10465 0
1.5708 3.10465 0
0.785398 3.10465 0
1.1781 3.10465 0
0.785398 3.73137 0
1.1781 3.73137 0
1.1781 3.10465 0
1.5708 3.10465 0
1.1781 3.73137 0
1.5708 3.73137 0
0 3.73137 0
0.392699 3.73137 0
0 4.35801 0
0.392699 4.35801 0
0.392699 3.73137 0
0.785398 3.73137 0
0.392699 4.35801 0
0.785398 4.35801 0
0 4.35801 0
0.392699 4.35801 0
0 4.98458 0
0.392699 4.98458 0
0.392699 4.35801 0
0.785398 4.35801 0
0.392699 4.98458 0
0.785398 4.98458 0
0.785398 3.73137 0
1.1781 3.73137 0
0.785398 4.35801 0
1.1781 4.35801 0
1.1781 3.73137 0
1.5708 3.73137 0
1.1781 4.35801 0
1.5708 4.35801 0
0.785398 4.35801 0
1.1781 4.35801 0
0.785398 4.98458 0
1.1781 4.98458 0
1.1781 4.35801 0
1.5708 4.35801 0
1.1781 4.98458 0
1.5708 4.98458 0
1.5708 2.47795 0
1.9635 2.47795 0
1.5708 3.10465 0
1.9635 3.10465 0
1.9635 2.47795 0
2.35619 2.47795 0
1.9635 3.10465 0
2.35619 3.10465 0
1.5708 3.10465 0
1.9635 3.10465 0
1.5708 3.73137 0
1.9635 3.73137 0
1.9635 3.10465 0
2.35619 3.10465 0
1.9635 3.73137 0
2.35619 3.73137 0
2.35619 2.47795 0
2.74889 2.47795 0
2.35619 3.10465 0
2.74889 3.10465 0
2.74889 2.47795 0
3.14159 2.47795 0
2.74889 3.10465 0
3.14159 3.10465 0
2.35619 3.10465 0
2.74889 3.10465 0
2.35619 3.73137 0
2.74889 3.73137 0
2.74889 3.10465 0
3.14159 3.10465 0
2.74889 3.73137 0
3.14159 3.73137 0
1.5708 3.73137 0
1.9635 3.73137 0
1.5708 4.35801 0
1.9635 4.35801 0
1.9635 3.73137 0
2.35619 3.73137 0
1.9635 4.35801 0
2.35619 4.35801 0
1.5708 4.35801 0
1.9635 4.35801 0
1.5708 4.98458 0
1.9635 4.98458 0
1.9635 4.35801 0
2.35619 4.35801 0
1.9635 4.98458 0
2.35619 4.98458 0
2.35619 3.73137 0
2.74889 3.73137 0
2.35619 4.35801 0
2.74889 4.35801 0
2.74889 3.73137 0
3.14159 3.73137 0
2.74889 4.35801 0
3.14159 4.35801 0
2.35619 4.35801 0
2.74889 4.35801 0
2.35619 4.98458 0
2.74889 4.98458 0
2.74889 4.35801 0
3.14159 4.35801 0
2.74889 4.98458 0
3.14159 4.98458 0
3.14159 0 0
3.53429 0 0
3.14159 0.598046 0
3.53429 0.598046 0
3.53429 0 0
3.92699 0 0
3.53429 0.598046 0
3.92699 0.598046 0
3.14159 0.598046 0
3.53429 0.598046 0
3.14159 1.225 0
3.53429 1.225 0
3.53429 0.598046 0
3.92699 0.598046 0
3.53429 1.225 0
3.92699 1.225 0
3.92699 0 0
4.31969 0 0
3.92699 0.598046 0
4.31969 0.598046 0
4.31969 0 0
4.71239 0 0
4.31969 0.598046 0
4.71239 0.598046 0
3.92699 0.598046 0
4.31969 0.598046 0
3.92699 1.225 0
4.31969 1.225 0
4.31969 0.598046 0
4.71239 0.598046 0
4.31969 1.225 0
4.71239 1.225 0
3.14159 1.225 0
3.53429 1.225 0
3.14159 1.85098 0
3.53429 1.85098 0
3.53429 1.225 0
3.92699 1.225 0
3.53429 1.85098 0
3.92699 1.85098 0
3.14159 1.85098 0
3.53429 1.85098 0
3.14159 2.47795 0
3.53429 2.47795 0
3.53429 1.85098 0
3.92699 1.85098 0
3.53429 2.47795 0
3.92699 2.47795 0
3.92699 1.225 0
4.31969 1.225 0
3.92699 1.85098 0
4.31969 1.85098 0
4.31969 1.225 0
4.71239 1.225 0
4.31969 1.85098 0
4.71239 1.85098 0
3.92699 1.85098 0
4.31969 1.85098 0
3.92699 2.47795 0
4.31969 2.47795 0
4.31969 1.85098 0
4.71239 1.85098 0
4.31969 2.47795 0
4.71239 2.47795 0
4.71239 0 0
5.10509 0 0
4.71239 0.598046 0
5.10509 0.598046 0
5.10509 0 0
5.49779 0 0
5.10509 0.598046 0
5.49779 0.598046 0
4.71239 0.598046 0
5.10509 0.598046 0
4.71239 1.225 0
5.10509 1.225 0
5.10509 0.598046 0
5.49779 0.598046 0
5.10509 1.225 0
5.49779 1.225 0
5.49779 0 0
5.89049 0 0
5.49779 0.598046 0
5.89049 0.598046 0
5.89049 0 0
6.28319 0 0
5.89049 0.598046 0
6.28319 0.598046 0
5.49779 0.598046 0
5.89049 0.598046 0
5.49779 1.225 0
5.89049 1.225 0
5.89049 0.598046 0
6.28319 0.598046 0
5.89049 1.225 0
6.28319 1.225 0
4.71239 1.225 0
5.10509 1.225 0
4.71239 1.85098 0
5.10509 1.85098 0
5.10509 1.225 0
5.49779 1.225 0
5.10509 1.85098 0
5.49779 1.85098 0
4.71239 1.85098 0
5.10509 1.85098 0
4.71239 2.47795 0
5.10509 2.47795 0
5.10509 1.85098 0
5.49779 1.85098 0
5.10509 2.47795 0
5.49779 2.47795 0
5.49779 1.225 0
5.89049 1.225 0
5.49779 1.85098 0
5.89049 1.85098 0
5.89049 1.225 0
6.28319 1.225 0
5.89049 1.85098 0
6.28319 1.85098 0
5.49779 1.85098 0
5.89049 1.85098 0
5.49779 2.47795 0
5.89049 2.47795 0
5.89049 1.85098 0
6.28319 1.85098 0
5.89049 2.47795 0
6.28319 2.47795 0
3.14159 2.47795 0
3.53429 2.47795 0
3.14159 3.10465 0
3.53429 3.10465 0
3.53429 2.47795 0
3.92699 2.47795 0
3.53429 3.10465 0
3.92699 3.10465 0
3.14159 3.10465 0
3.53429 3.10465 0
3.14159 3.73137 0
3.53429 3.73137 0
3.53429 3.10465 0
3.92699 3.10465 0
3.53429 3.73137 0
3.92699 3.73137 0
3.92699 2.47795 0
4.31969 2.47795 0
3.92699 3.10465 0
4.31969 3.10465 0
4.31969 2.47795 0
4.71239 2.47795 0
4.31969 3.10465 0
4.71239 3.10465 0
3.92699 3.10465 0
4.31969 3.10465 0
3.92699 3.73137 0
4.31969 3.73137 0
4.31969 3.10465 0
4.71239 3.10465 0
4.31969 3.73137 0
4.71239 3.73137 0
3.14159 3.73137 0
3.53429 3.73137 0
3.14159 4.35801 0
3.53429 4.35801 0
3.53429 3.73137 0
3.92699 3.73137 0
3.53429 4.35801 0
3.92699 4.35801 0
3.14159 4.35801 0
3.53429 4.35801 0
3.14159 4.98458 0
3.53429 4.98458 0
3.53429 4.35801 0
3.92699 4.35801 0
3.53429 4.98458 0
3.92699 4.98458 0
3.92699 3.73137 0
4.31969 3.73137 0
3.92699 4.35801 0
4.31969 4.35801 0
4.31969 3.73137 0
4.71239 3.73137 0
4.31969 4.35801 0
4.71239 4.35801 0
3.92699 4.35801 0
4.31969 4.35801 0
3.92699 4.98458 0
4.31969 4.98458 0
4.31969 4.35801 0
4.71239 4.35801 0
4.31969 4.98458 0
4.71239 4.98458 0
4.71239 2.47795 0
5.10509 2.47795 0
4.71239 3.10465 0
5.10509 3.10465 0
5.10509 2.47795 0
5.49779 2.47795 0
5.10509 3.10465 0
5.49779 3.10465 0
4.71239 3.10465 0
5.10509 3.10465 0
4.71239 3.73137 0
5.10509 3.73137 0
5.10509 3.10465 0
5.49779 3.10465 0
5.10509 3.73137 0
5.49779 3.73137 0
5.49779 2.47795 0
5.89049 2.47795 0
5.49779 3.10465 0
5.89049 3.10465 0
5.89049 2.47795 0
6.28319 2.47795 0
5.89049 3.10465 0
6.28319 3.10465 0
5.49779 3.10465 0
5.89049 3.10465 0
5.49779 3.73137 0
5.89049 3.73137 0
5.89049 3.10465 0
6.28319 3.10465 0
5.89049 3.73137 0
6.28319 3.73137 0
4.71239 3.73137 0
5.10509 3.73137 0
4.71239 4.35801 0
5.10509 4.35801 0
5.10509 3.73137 0
5.49779 3.73137 0
5.10509 4.35801 0
5.49779 4.35801 0
4.71239 4.35801 0
5.10509 4.35801 0
4.71239 4.98458 0
5.10509 4.98458 0
5.10509 4.35801 0
5.49779 4.35801 0
5.10509 4.98458 0
5.49779 4.98458 0
5.49779 3.73137 0
5.89049 3.73137 0
5.49779 4.35801 0
5.89049 4.35801 0
5.89049 3.73137 0
6.28319 3.73137 0
5.89049 4.35801 0
6.28319 4.35801 0
5.49779 4.35801 0
5.89049 4.35801 0
5.49779 4.98458 0
5.89049 4.98458 0
5.89049 4.35801 0
6.28319 4.35801 0
5.89049 4.98458 0
6.28319 4.98458 0
0 4.98458 0
0.392699 4.98458 0
0 5.61106 0
0.392699 5.61106 0
0.392699 4.98458 0
0.785398 4.98458 0
0.392699 5.61106 0
0.785398 5.61106 0
0 5.61106 0
0.392699 5.61106 0
0 6.23746 0
0.392699 6.23746 0
0.392699 5.61106 0
0.785398 5.61106 0
0.392699 6.23746 0
0.785398 6.23746 0
0.785398 4.98458 0
1.1781 4.98458 0
0.785398 5.61106 0
1.1781 5.61106 0
1.1781 4.98458 0
1.5708 4.98458 0
1.1781 5.61106 0
1.5708 5.61106 0
0.785398 5.61106 0
1.1781 5.61106 0
0.785398 6.23746 0
1.1781 6.23746 0
1.1781 5.61106 0
1.5708 5.61106 0
1.1781 6.23746 0
1.5708 6.23746 0
0 6.23746 0
0.392699 6.23746 0
0 6.86381 0
0.392699 6.86381 0
0.392699 6.23746 0
0.785398 6.23746 0
0.392699 6.86381 0
0.785398 6.86381 0
0 6.86381 0
0.392699 6.86381 0
0 7.49016 0
0.392699 7.49016 0
0.392699 6.86381 0
0.785398 6.86381 0
0.392699 7.49016 0
0.785398 7.49016 0
0.785398 6.23746 0
1.1781 6.23746 0
0.785398 6.86381 0
1.1781 6.86381 0
1.1781 6.23746 0
1.5708 6.23746 0
1.1781 6.86381 0
1.5708 6.86381 0
0.785398 6.86381 0
1.1781 6.86381 0
[...]
POINT_DATA 5120
VECTORS uf double
0 1 0
-1.31831e-13 1 0
0 1.0025 0
-1.17829e-13 1.0025 0
-1.31831e-13 1 0
-3.86326e-15 1 0
-1.17829e-13 1.0025 0
-8.47699e-15 1.0025 0
0 1.0025 0
9.30081e-14 1.0025 0
0 1.00378 0
7.897e-14 1.00378 0
9.30081e-14 1.0025 0
-6.65029e-15 1.0025 0
7.897e-14 1.00378 0
-1.29404e-14 1.00378 0
-3.86326e-15 1 0
2.07461e-13 1 0
-8.47699e-15 1.0025 0
2.10673e-13 1.0025 0
2.07461e-13 1 0
4.03668e-14 1 0
2.10673e-13 1.0025 0
5.31502e-14 1.0025 0
-6.65029e-15 1.0025 0
-2.19214e-13 1.0025 0
-1.29404e-14 1.00378 0
-1.99766e-13 1.00378 0
-2.19214e-13 1.0025 0
-4.65758e-14 1.0025 0
-1.99766e-13 1.00378 0
-4.26194e-14 1.00378 0
0 1.00378 0
6.4938e-15 1.00378 0
0 1.00534 0
2.58795e-15 1.00534 0
6.4938e-15 1.00378 0
5.71821e-14 1.00378 0
2.58795e-15 1.00534 0
5.77513e-14 1.00534 0
0 1.00534 0
4.36872e-14 1.00534 0
0 1.00678 0
3.82998e-14 1.00678 0
4.36872e-14 1.00534 0
6.57913e-15 1.00534 0
3.82998e-14 1.00678 0
9.53774e-15 1.00678 0
5.71821e-14 1.00378 0
1.86971e-15 1.00378 0
5.77513e-14 1.00534 0
5.34235e-15 1.00534 0
1.86971e-15 1.00378 0
-4.57108e-15 1.00378 0
5.34235e-15 1.00534 0
1.6843e-15 1.00534 0
6.57913e-15 1.00534 0
2.85398e-14 1.00534 0
9.53774e-15 1.00678 0
1.55434e-14 1.00678 0
2.85398e-14 1.00534 0
-3.80489e-14 1.00534 0
1.55434e-14 1.00678 0
-3.10628e-14 1.00678 0
4.03668e-14 1 0
-3.30843e-14 1 0
5.31502e-14 1.0025 0
-1.33179e-14 1.0025 0
-3.30843e-14 1 0
-3.00401e-15 1 0
-1.33179e-14 1.0025 0
7.77211e-16 1.0025 0
-4.65758e-14 1.0025 0
2.34805e-14 1.0025 0
-4.26194e-14 1.00378 0
2.40643e-14 1.00378 0
2.34805e-14 1.0025 0
-3.08826e-15 1.0025 0
2.40643e-14 1.00378 0
5.91391e-15 1.00378 0
-3.00401e-15 1 0
-5.48272e-16 1 0
7.77211e-16 1.0025 0
-1.55129e-15 1.0025 0
-5.48272e-16 1 0
-5.14921e-15 1 0
-1.55129e-15 1.0025 0
2.92877e-15 1.0025 0
-3.08826e-15 1.0025 0
-4.65724e-15 1.0025 0
5.91391e-15 1.00378 0
6.33598e-15 1.00378 0
-4.65724e-15 1.0025 0
-2.14181e-15 1.0025 0
6.33598e-15 1.00378 0
4.70477e-15 1.00378 0
-4.57108e-15 1.00378 0
2.75287e-14 1.00378 0
1.6843e-15 1.00534 0
2.79671e-14 1.00534 0
2.75287e-14 1.00378 0
5.83643e-16 1.00378 0
2.79671e-14 1.00534 0
3.30039e-15 1.00534 0
-3.80489e-14 1.00534 0
7.28089e-16 1.00534 0
-3.10628e-14 1.00678 0
-1.01489e-14 1.00678 0
7.28089e-16 1.00534 0
-5.83804e-15 1.00534 0
-1.01489e-14 1.00678 0
2.87589e-15 1.00678 0
5.83643e-16 1.00378 0
-2.5791e-15 1.00378 0
3.30039e-15 1.00534 0
3.91431e-15 1.00534 0
-2.5791e-15 1.00378 0
1.34021e-16 1.00378 0
3.91431e-15 1.00534 0
4.87401e-15 1.00534 0
-5.83804e-15 1.00534 0
1.82643e-15 1.00534 0
2.87589e-15 1.00678 0
-6.42298e-15 1.00678 0
1.82643e-15 1.00534 0
-2.6473e-15 1.00534 0
-6.42298e-15 1.00678 0
-1.2375e-15 1.00678 0
0 1.00678 0
-6.75888e-14 1.00678 0
0 1.00822 0
-7.65292e-14 1.00822 0
-6.75888e-14 1.00678 0
-6.29334e-14 1.00678 0
-7.65292e-14 1.00822 0
-6.1313e-14 1.00822 0
0 1.00822 0
6.34861e-14 1.00822 0
0 1.00962 0
5.85762e-14 1.00962 0
6.34861e-14 1.00822 0
8.73886e-14 1.00822 0
5.85762e-14 1.00962 0
8.92823e-14 1.00962 0
-6.29334e-14 1.00678 0
-3.83204e-14 1.00678 0
-6.1313e-14 1.00822 0
-3.40312e-14 1.00822 0
-3.83204e-14 1.00678 0
5.99923e-14 1.00678 0
-3.40312e-14 1.00822 0
5.23987e-14 1.00822 0
8.73886e-14 1.00822 0
5.56924e-14 1.00822 0
8.92823e-14 1.00962 0
4.72829e-14 1.00962 0
5.56924e-14 1.00822 0
-7.07943e-14 1.00822 0
4.72829e-14 1.00962 0
-5.83154e-14 1.00962 0
0 1.00962 0
1.70286e-14 1.00962 0
0 1.01101 0
2.81572e-14 1.01101 0
1.70286e-14 1.00962 0
-1.87552e-13 1.00962 0
2.81572e-14 1.01101 0
-1.81915e-13 1.01101 0
0 1.01101 0
-8.48004e-15 1.01101 0
0 1.01237 0
-5.87708e-15 1.01237 0
-8.48004e-15 1.01101 0
1.77513e-13 1.01101 0
-5.87708e-15 1.01237 0
1.72912e-13 1.01237 0
-1.87552e-13 1.00962 0
-3.59423e-14 1.00962 0
-1.81915e-13 1.01101 0
-2.45362e-14 1.01101 0
-3.59423e-14 1.00962 0
1.47355e-13 1.00962 0
-2.45362e-14 1.01101 0
1.4419e-13 1.01101 0
1.77513e-13 1.01101 0
2.23616e-14 1.01101 0
1.72912e-13 1.01237 0
2.85851e-14 1.01237 0
2.23616e-14 1.01101 0
-1.66719e-13 1.01101 0
2.85851e-14 1.01237 0
-1.55515e-13 1.01237 0
5.99923e-14 1.00678 0
3.63542e-16 1.00678 0
5.23987e-14 1.00822 0
4.26619e-15 1.00822 0
3.63542e-16 1.00678 0
-1.77693e-15 1.00678 0
4.26619e-15 1.00822 0
-1.19119e-15 1.00822 0
-7.07943e-14 1.00822 0
-7.63266e-15 1.00822 0
-5.83154e-14 1.00962 0
-1.12727e-14 1.00962 0
-7.63266e-15 1.00822 0
1.92078e-16 1.00822 0
-1.12727e-14 1.00962 0
-3.28659e-15 1.00962 0
-1.77693e-15 1.00678 0
7.41534e-16 1.00678 0
-1.19119e-15 1.00822 0
4.74532e-15 1.00822 0
7.41534e-16 1.00678 0
-6.60406e-15 1.00678 0
4.74532e-15 1.00822 0
8.83474e-15 1.00822 0
1.92078e-16 1.00822 0
-5.03534e-15 1.00822 0
-3.28659e-15 1.00962 0
8.04315e-15 1.00962 0
-5.03534e-15 1.00822 0
1.79336e-14 1.00822 0
8.04315e-15 1.00962 0
1.2938e-14 1.00962 0
1.47355e-13 1.00962 0
-2.19193e-14 1.00962 0
1.4419e-13 1.01101 0
-1.75314e-14 1.01101 0
-2.19193e-14 1.00962 0
-2.39355e-17 1.00962 0
-1.75314e-14 1.01101 0
2.10881e-15 1.01101 0
-1.66719e-13 1.01101 0
-3.39081e-14 1.01101 0
-1.55515e-13 1.01237 0
-2.60829e-14 1.01237 0
-3.39081e-14 1.01101 0
2.73676e-15 1.01101 0
-2.60829e-14 1.01237 0
4.00532e-15 1.01237 0
-2.39355e-17 1.00962 0
-4.85675e-16 1.00962 0
2.10881e-15 1.01101 0
-1.56588e-15 1.01101 0
-4.85675e-16 1.00962 0
-1.08972e-14 1.00962 0
-1.56588e-15 1.01101 0
-6.0747e-15 1.01101 0
2.73676e-15 1.01101 0
8.07854e-15 1.01101 0
4.00532e-15 1.01237 0
9.66797e-15 1.01237 0
8.07854e-15 1.01101 0
-9.84215e-15 1.01101 0
9.66797e-15 1.01237 0
2.53356e-16 1.01237 0
-5.14921e-15 1 0
-5.97182e-15 1 0
2.92877e-15 1.0025 0
7.50805e-15 1.0025 0
-5.97182e-15 1 0
-1.55277e-15 1 0
7.50805e-15 1.0025 0
5.47667e-15 1.0025 0
-2.14181e-15 1.0025 0
3.88761e-15 1.0025 0
4.70477e-15 1.00378 0
5.45943e-17 1.00378 0
3.88761e-15 1.0025 0
-2.6613e-15 1.0025 0
5.45943e-17 1.00378 0
2.21527e-15 1.00378 0
-1.55277e-15 1 0
-1.14848e-15 1 0
5.47667e-15 1.0025 0
7.44531e-15 1.0025 0
-1.14848e-15 1 0
2.89661e-15 1 0
7.44531e-15 1.0025 0
1.99307e-15 1.0025 0
-2.6613e-15 1.0025 0
-8.21432e-15 1.0025 0
2.21527e-15 1.00378 0
7.67802e-15 1.00378 0
-8.21432e-15 1.0025 0
1.12923e-15 1.0025 0
7.67802e-15 1.00378 0
3.13277e-15 1.00378 0
1.34021e-16 1.00378 0
-4.38918e-16 1.00378 0
4.87401e-15 1.00534 0
3.49334e-15 1.00534 0
-4.38918e-16 1.00378 0
-2.12259e-18 1.00378 0
3.49334e-15 1.00534 0
2.03335e-15 1.00534 0
-2.6473e-15 1.00534 0
1.21746e-15 1.00534 0
-1.2375e-15 1.00678 0
3.85033e-15 1.00678 0
1.21746e-15 1.00534 0
8.31983e-15 1.00534 0
3.85033e-15 1.00678 0
2.88645e-15 1.00678 0
-2.12259e-18 1.00378 0
1.12588e-14 1.00378 0
2.03335e-15 1.00534 0
-3.4349e-15 1.00534 0
1.12588e-14 1.00378 0
4.06567e-15 1.00378 0
-3.4349e-15 1.00534 0
-1.2661e-15 1.00534 0
8.31983e-15 1.00534 0
-2.5168e-15 1.00534 0
2.88645e-15 1.00678 0
1.00871e-15 1.00678 0
-2.5168e-15 1.00534 0
1.15388e-14 1.00534 0
1.00871e-15 1.00678 0
4.087e-15 1.00678 0
2.89661e-15 1 0
9.30762e-17 1 0
1.99307e-15 1.0025 0
8.03249e-15 1.0025 0
9.30762e-17 1 0
2.78325e-16 1 0
8.03249e-15 1.0025 0
7.13577e-15 1.0025 0
1.12923e-15 1.0025 0
9.3231e-16 1.0025 0
3.13277e-15 1.00378 0
3.73679e-15 1.00378 0
9.3231e-16 1.0025 0
-2.92015e-15 1.0025 0
3.73679e-15 1.00378 0
9.33557e-15 1.00378 0
2.78325e-16 1 0
3.23439e-15 1 0
7.13577e-15 1.0025 0
1.57303e-15 1.0025 0
3.23439e-15 1 0
-1.43336e-15 1 0
1.57303e-15 1.0025 0
1.022e-14 1.0025 0
-2.92015e-15 1.0025 0
7.66389e-15 1.0025 0
9.33557e-15 1.00378 0
6.33921e-16 1.00378 0
7.66389e-15 1.0025 0
-7.42677e-17 1.0025 0
6.33921e-16 1.00378 0
1.28847e-15 1.00378 0
4.06567e-15 1.00378 0
-9.9603e-15 1.00378 0
-1.2661e-15 1.00534 0
9.20696e-15 1.00534 0
-9.9603e-15 1.00378 0
4.41643e-15 1.00378 0
9.20696e-15 1.00534 0
-1.68523e-15 1.00534 0
1.15388e-14 1.00534 0
1.4073e-15 1.00534 0
4.087e-15 1.00678 0
6.28924e-15 1.00678 0
1.4073e-15 1.00534 0
5.36973e-15 1.00534 0
6.28924e-15 1.00678 0
-5.15729e-15 1.00678 0
4.41643e-15 1.00378 0
-2.18218e-15 1.00378 0
-1.68523e-15 1.00534 0
3.85684e-15 1.00534 0
-2.18218e-15 1.00378 0
-4.51815e-15 1.00378 0
3.85684e-15 1.00534 0
7.28263e-15 1.00534 0
5.36973e-15 1.00534 0
6.45814e-15 1.00534 0
-5.15729e-15 1.00678 0
4.90298e-15 1.00678 0
6.45814e-15 1.00534 0
-1.6414e-16 1.00534 0
4.90298e-15 1.00678 0
1.68214e-15 1.00678 0
-6.60406e-15 1.00678 0
1.67637e-15 1.00678 0
8.83474e-15 1.00822 0
5.59068e-15 1.00822 0
1.67637e-15 1.00678 0
-1.17998e-14 1.00678 0
5.59068e-15 1.00822 0
5.14217e-15 1.00822 0
1.79336e-14 1.00822 0
-1.50268e-14 1.00822 0
1.2938e-14 1.00962 0
4.19081e-15 1.00962 0
-1.50268e-14 1.00822 0
-1.90043e-15 1.00822 0
4.19081e-15 1.00962 0
3.45037e-15 1.00962 0
-1.17998e-14 1.00678 0
7.6122e-15 1.00678 0
5.14217e-15 1.00822 0
1.09385e-16 1.00822 0
7.6122e-15 1.00678 0
-1.11723e-14 1.00678 0
1.09385e-16 1.00822 0
9.69313e-15 1.00822 0
-1.90043e-15 1.00822 0
-2.80693e-15 1.00822 0
3.45037e-15 1.00962 0
3.2985e-15 1.00962 0
-2.80693e-15 1.00822 0
-2.61647e-15 1.00822 0
3.2985e-15 1.00962 0
3.33976e-15 1.00962 0
-1.08972e-14 1.00962 0
4.44621e-15 1.00962 0
-6.0747e-15 1.01101 0
1.16394e-14 1.01101 0
4.44621e-15 1.00962 0
-4.23128e-15 1.00962 0
1.16394e-14 1.01101 0
5.84135e-15 1.01101 0
-9.84215e-15 1.01101 0
-4.6279e-15 1.01101 0
2.53356e-16 1.01237 0
5.47841e-15 1.01237 0
-4.6279e-15 1.01101 0
1.56505e-14 1.01101 0
5.47841e-15 1.01237 0
2.56727e-14 1.01237 0
-4.23128e-15 1.00962 0
-3.39391e-15 1.00962 0
5.84135e-15 1.01101 0
7.57111e-15 1.01101 0
-3.39391e-15 1.00962 0
-4.43653e-15 1.00962 0
7.57111e-15 1.01101 0
7.23591e-15 1.01101 0
1.56505e-14 1.01101 0
3.03947e-15 1.01101 0
2.56727e-14 1.01237 0
6.77908e-16 1.01237 0
3.03947e-15 1.01101 0
-6.37875e-15 1.01101 0
6.77908e-16 1.01237 0
7.10865e-15 1.01237 0
-1.11723e-14 1.00678 0
-6.38631e-16 1.00678 0
9.69313e-15 1.00822 0
-6.94309e-16 1.00822 0
-6.38631e-16 1.00678 0
6.26673e-15 1.00678 0
-6.94309e-16 1.00822 0
1.51604e-15 1.00822 0
-2.61647e-15 1.00822 0
-7.4291e-16 1.00822 0
3.33976e-15 1.00962 0
4.27255e-15 1.00962 0
-7.4291e-16 1.00822 0
4.47222e-15 1.00822 0
4.27255e-15 1.00962 0
-8.20748e-16 1.00962 0
6.26673e-15 1.00678 0
4.57698e-15 1.00678 0
1.51604e-15 1.00822 0
3.68316e-15 1.00822 0
4.57698e-15 1.00678 0
6.06296e-15 1.00678 0
3.68316e-15 1.00822 0
3.90097e-15 1.00822 0
4.47222e-15 1.00822 0
-1.93572e-15 1.00822 0
-8.20748e-16 1.00962 0
1.92659e-15 1.00962 0
-1.93572e-15 1.00822 0
-2.73401e-15 1.00822 0
1.92659e-15 1.00962 0
7.52384e-15 1.00962 0
-4.43653e-15 1.00962 0
-4.01997e-16 1.00962 0
7.23591e-15 1.01101 0
7.68026e-16 1.01101 0
-4.01997e-16 1.00962 0
-9.27922e-15 1.00962 0
7.68026e-16 1.01101 0
8.59937e-15 1.01101 0
-6.37875e-15 1.01101 0
1.67588e-15 1.01101 0
7.10865e-15 1.01237 0
4.74808e-15 1.01237 0
1.67588e-15 1.01101 0
-1.05651e-15 1.01101 0
4.74808e-15 1.01237 0
5.71172e-15 1.01237 0
-9.27922e-15 1.00962 0
2.30755e-15 1.00962 0
8.59937e-15 1.01101 0
1.79496e-15 1.01101 0
2.30755e-15 1.00962 0
-6.74317e-15 1.00962 0
1.79496e-15 1.01101 0
6.40809e-15 1.01101 0
-1.05651e-15 1.01101 0
3.05757e-16 1.01101 0
5.71172e-15 1.01237 0
-4.64905e-15 1.01237 0
3.05757e-16 1.01101 0
7.13896e-15 1.01101 0
-4.64905e-15 1.01237 0
-5.72403e-15 1.01237 0
0 1.01237 0
-2.66691e-14 1.01237 0
0 1.01372 0
-2.29628e-14 1.01372 0
-2.66691e-14 1.01237 0
-1.202e-13 1.01237 0
-2.29628e-14 1.01372 0
-1.13735e-13 1.01372 0
0 1.01372 0
2.02514e-14 1.01372 0
0 1.01507 0
1.77588e-14 1.01507 0
2.02514e-14 1.01372 0
1.08364e-13 1.01372 0
1.77588e-14 1.01507 0
1.08185e-13 1.01507 0
-1.202e-13 1.01237 0
3.14573e-14 1.01237 0
-1.13735e-13 1.01372 0
3.40013e-14 1.01372 0
3.14573e-14 1.01237 0
1.15841e-13 1.01237 0
3.40013e-14 1.01372 0
1.12425e-13 1.01372 0
1.08364e-13 1.01372 0
-8.47089e-14 1.01372 0
1.08185e-13 1.01507 0
-7.70039e-14 1.01507 0
-8.47089e-14 1.01372 0
-5.70229e-14 1.01372 0
-7.70039e-14 1.01507 0
-5.64168e-14 1.01507 0
0 1.01507 0
-3.74535e-14 1.01507 0
0 1.01642 0
-3.11001e-14 1.01642 0
-3.74535e-14 1.01507 0
-9.15185e-14 1.01507 0
-3.11001e-14 1.01642 0
-9.37001e-14 1.01642 0
0 1.01642 0
1.67625e-14 1.01642 0
0 1.01778 0
1.24079e-14 1.01778 0
1.67625e-14 1.01642 0
4.2258e-14 1.01642 0
1.24079e-14 1.01778 0
4.43071e-14 1.01778 0
-9.15185e-14 1.01507 0
2.8929e-14 1.01507 0
-9.37001e-14 1.01642 0
2.93064e-14 1.01642 0
2.8929e-14 1.01507 0
1.89743e-14 1.01507 0
2.93064e-14 1.01642 0
1.44387e-14 1.01642 0
4.2258e-14 1.01642 0
-1.56282e-14 1.01642 0
4.43071e-14 1.01778 0
-6.3618e-15 1.01778 0
-1.56282e-14 1.01642 0
-1.09195e-17 1.01642 0
-6.3618e-15 1.01778 0
-6.89337e-15 1.01778 0
1.15841e-13 1.01237 0
2.8916e-14 1.01237 0
1.12425e-13 1.01372 0
3.90783e-14 1.01372 0
2.8916e-14 1.01237 0
3.04489e-17 1.01237 0
3.90783e-14 1.01372 0
2.80441e-15 1.01372 0
-5.70229e-14 1.01372 0
9.47713e-15 1.01372 0
-5.64168e-14 1.01507 0
1.69842e-14 1.01507 0
9.47713e-15 1.01372 0
-5.77031e-15 1.01372 0
1.69842e-14 1.01507 0
1.68886e-15 1.01507 0
3.04489e-17 1.01237 0
-6.27602e-15 1.01237 0
2.80441e-15 1.01372 0
-3.24702e-15 1.01372 0
-6.27602e-15 1.01237 0
1.16155e-14 1.01237 0
-3.24702e-15 1.01372 0
1.22963e-14 1.01372 0
-5.77031e-15 1.01372 0
-1.37576e-15 1.01372 0
1.68886e-15 1.01507 0
5.09406e-15 1.01507 0
-1.37576e-15 1.01372 0
-8.07121e-15 1.01372 0
5.09406e-15 1.01507 0
-8.09244e-16 1.01507 0
1.89743e-14 1.01507 0
-1.56975e-14 1.01507 0
1.44387e-14 1.01642 0
-1.44284e-14 1.01642 0
-1.56975e-14 1.01507 0
5.19834e-16 1.01507 0
-1.44284e-14 1.01642 0
4.32711e-15 1.01642 0
-1.09195e-17 1.01642 0
2.29933e-15 1.01642 0
-6.89337e-15 1.01778 0
3.68944e-15 1.01778 0
2.29933e-15 1.01642 0
-6.35082e-16 1.01642 0
3.68944e-15 1.01778 0
1.83085e-15 1.01778 0
5.19834e-16 1.01507 0
-1.98718e-15 1.01507 0
4.32711e-15 1.01642 0
3.99626e-15 1.01642 0
-1.98718e-15 1.01507 0
-4.969e-15 1.01507 0
3.99626e-15 1.01642 0
5.07598e-15 1.01642 0
-6.35082e-16 1.01642 0
-3.04445e-15 1.01642 0
1.83085e-15 1.01778 0
1.68762e-15 1.01778 0
-3.04445e-15 1.01642 0
-6.92965e-15 1.01642 0
1.68762e-15 1.01778 0
6.88088e-15 1.01778 0
0 1.01778 0
3.97457e-14 1.01778 0
0 1.01916 0
3.71397e-14 1.01916 0
3.97457e-14 1.01778 0
-2.4325e-14 1.01778 0
3.71397e-14 1.01916 0
-1.98061e-14 1.01916 0
0 1.01916 0
-3.57639e-14 1.01916 0
0 1.0205 0
-2.9746e-14 1.0205 0
-3.57639e-14 1.01916 0
4.17297e-14 1.01916 0
-2.9746e-14 1.0205 0
3.8631e-14 1.0205 0
-2.4325e-14 1.01778 0
2.34472e-15 1.01778 0
-1.98061e-14 1.01916 0
5.9011e-15 1.01916 0
2.34472e-15 1.01778 0
-1.0939e-14 1.01778 0
5.9011e-15 1.01916 0
-7.99286e-15 1.01916 0
4.17297e-14 1.01916 0
-2.90472e-15 1.01916 0
3.8631e-14 1.0205 0
4.0921e-15 1.0205 0
-2.90472e-15 1.01916 0
-1.90033e-15 1.01916 0
4.0921e-15 1.0205 0
3.32375e-15 1.0205 0
0 1.0205 0
1.37088e-14 1.0205 0
0 1.02167 0
9.63469e-15 1.02167 0
1.37088e-14 1.0205 0
-2.56486e-14 1.0205 0
9.63469e-15 1.02167 0
-2.68108e-14 1.02167 0
0 1.02167 0
-7.02775e-16 1.02167 0
0 1.02218 0
-1.24254e-14 1.02218 0
-7.02775e-16 1.02167 0
-5.17215e-15 1.02167 0
-1.24254e-14 1.02218 0
1.11282e-14 1.02218 0
-2.56486e-14 1.0205 0
-1.01147e-16 1.0205 0
-2.68108e-14 1.02167 0
-4.31259e-16 1.02167 0
-1.01147e-16 1.0205 0
1.93532e-15 1.0205 0
-4.31259e-16 1.02167 0
1.99115e-15 1.02167 0
-5.17215e-15 1.02167 0
-2.53228e-15 1.02167 0
1.11282e-14 1.02218 0
-1.87661e-14 1.02218 0
-2.53228e-15 1.02167 0
-1.96167e-16 1.02167 0
-1.87661e-14 1.02218 0
1.92766e-14 1.02218 0
-1.0939e-14 1.01778 0
-8.51076e-15 1.01778 0
-7.99286e-15 1.01916 0
6.36229e-16 1.01916 0
-8.51076e-15 1.01778 0
-9.07117e-16 1.01778 0
6.36229e-16 1.01916 0
1.6849e-15 1.01916 0
-1.90033e-15 1.01916 0
-8.93563e-16 1.01916 0
3.32375e-15 1.0205 0
2.86306e-15 1.0205 0
-8.93563e-16 1.01916 0
-1.11914e-15 1.01916 0
2.86306e-15 1.0205 0
1.99487e-15 1.0205 0
-9.07117e-16 1.01778 0
1.13507e-15 1.01778 0
1.6849e-15 1.01916 0
2.98026e-15 1.01916 0
1.13507e-15 1.01778 0
-2.98086e-16 1.01778 0
2.98026e-15 1.01916 0
6.75287e-16 1.01916 0
-1.11914e-15 1.01916 0
-4.93754e-15 1.01916 0
1.99487e-15 1.0205 0
2.26966e-15 1.0205 0
-4.93754e-15 1.01916 0
-1.57899e-15 1.01916 0
2.26966e-15 1.0205 0
1.86869e-15 1.0205 0
1.93532e-15 1.0205 0
-3.03755e-15 1.0205 0
1.99115e-15 1.02167 0
1.25799e-15 1.02167 0
-3.03755e-15 1.0205 0
-2.15351e-15 1.0205 0
1.25799e-15 1.02167 0
1.53384e-15 1.02167 0
-1.96167e-16 1.02167 0
-4.33868e-15 1.02167 0
1.92766e-14 1.02218 0
1.77651e-15 1.02218 0
-4.33868e-15 1.02167 0
-6.75865e-16 1.02167 0
1.77651e-15 1.02218 0
-6.54174e-16 1.02218 0
-2.15351e-15 1.0205 0
-2.87215e-15 1.0205 0
1.53384e-15 1.02167 0
2.21918e-15 1.02167 0
-2.87215e-15 1.0205 0
-9.1594e-16 1.0205 0
2.21918e-15 1.02167 0
8.82539e-16 1.02167 0
-6.75865e-16 1.02167 0
-9.99656e-16 1.02167 0
-6.54174e-16 1.02218 0
6.6306e-15 1.02218 0
-9.99656e-16 1.02167 0
1.00794e-15 1.02167 0
6.6306e-15 1.02218 0
-1.7828e-14 1.02218 0
1.16155e-14 1.01237 0
3.0404e-15 1.01237 0
1.22963e-14 1.01372 0
1.14814e-14 1.01372 0
3.0404e-15 1.01237 0
-1.73191e-14 1.01237 0
1.14814e-14 1.01372 0
-1.65602e-14 1.01372 0
-8.07121e-15 1.01372 0
-8.62509e-15 1.01372 0
-8.09244e-16 1.01507 0
8.32654e-15 1.01507 0
-8.62509e-15 1.01372 0
1.64049e-16 1.01372 0
8.32654e-15 1.01507 0
1.28784e-15 1.01507 0
-1.73191e-14 1.01237 0
-2.48253e-15 1.01237 0
-1.65602e-14 1.01372 0
1.90919e-15 1.01372 0
-2.48253e-15 1.01237 0
-3.31412e-15 1.01237 0
1.90919e-15 1.01372 0
4.90621e-15 1.01372 0
1.64049e-16 1.01372 0
-1.86693e-16 1.01372 0
1.28784e-15 1.01507 0
2.48411e-15 1.01507 0
-1.86693e-16 1.01372 0
-6.32894e-16 1.01372 0
2.48411e-15 1.01507 0
1.86355e-15 1.01507 0
-4.969e-15 1.01507 0
-4.40479e-15 1.01507 0
5.07598e-15 1.01642 0
3.4179e-15 1.01642 0
-4.40479e-15 1.01507 0
-4.64686e-15 1.01507 0
3.4179e-15 1.01642 0
3.94232e-15 1.01642 0
-6.92965e-15 1.01642 0
-3.10321e-15 1.01642 0
6.88088e-15 1.01778 0
2.54975e-15 1.01778 0
-3.10321e-15 1.01642 0
-1.93253e-16 1.01642 0
2.54975e-15 1.01778 0
-1.29408e-15 1.01778 0
-4.64686e-15 1.01507 0
2.0595e-16 1.01507 0
3.94232e-15 1.01642 0
1.66292e-15 1.01642 0
2.0595e-16 1.01507 0
-3.36704e-16 1.01507 0
1.66292e-15 1.01642 0
2.8565e-15 1.01642 0
-1.93253e-16 1.01642 0
-5.30084e-15 1.01642 0
-1.29408e-15 1.01778 0
2.9504e-15 1.01778 0
-5.30084e-15 1.01642 0
-8.72447e-16 1.01642 0
2.9504e-15 1.01778 0
2.12388e-15 1.01778 0
-3.31412e-15 1.01237 0
-4.90526e-15 1.01237 0
4.90621e-15 1.01372 0
3.23799e-15 1.01372 0
-4.90526e-15 1.01237 0
-1.73669e-15 1.01237 0
3.23799e-15 1.01372 0
6.98164e-15 1.01372 0
-6.32894e-16 1.01372 0
-1.43773e-15 1.01372 0
1.86355e-15 1.01507 0
3.95875e-15 1.01507 0
-1.43773e-15 1.01372 0
-5.5379e-15 1.01372 0
3.95875e-15 1.01507 0
4.77823e-15 1.01507 0
-1.73669e-15 1.01237 0
-1.52065e-15 1.01237 0
6.98164e-15 1.01372 0
3.81664e-15 1.01372 0
-1.52065e-15 1.01237 0
5.43075e-15 1.01237 0
3.81664e-15 1.01372 0
8.51823e-17 1.01372 0
-5.5379e-15 1.01372 0
1.76716e-15 1.01372 0
4.77823e-15 1.01507 0
2.04174e-16 1.01507 0
1.76716e-15 1.01372 0
-5.03846e-15 1.01372 0
2.04174e-16 1.01507 0
6.0489e-15 1.01507 0
-3.36704e-16 1.01507 0
-2.86933e-15 1.01507 0
2.8565e-15 1.01642 0
8.68051e-16 1.01642 0
-2.86933e-15 1.01507 0
6.30951e-16 1.01507 0
8.68051e-16 1.01642 0
3.39753e-15 1.01642 0
-8.72447e-16 1.01642 0
1.10623e-16 1.01642 0
2.12388e-15 1.01778 0
4.14169e-15 1.01778 0
1.10623e-16 1.01642 0
-5.28168e-15 1.01642 0
4.14169e-15 1.01778 0
4.29405e-15 1.01778 0
6.30951e-16 1.01507 0
2.60792e-15 1.01507 0
3.39753e-15 1.01642 0
6.96808e-16 1.01642 0
2.60792e-15 1.01507 0
-2.833e-15 1.01507 0
6.96808e-16 1.01642 0
3.2403e-15 1.01642 0
-5.28168e-15 1.01642 0
-6.16093e-16 1.01642 0
4.29405e-15 1.01778 0
-9.87731e-17 1.01778 0
-6.16093e-16 1.01642 0
1.03213e-14 1.01642 0
-9.87731e-17 1.01778 0
-5.48087e-15 1.01778 0
-2.98086e-16 1.01778 0
-4.81123e-15 1.01778 0
6.75287e-16 1.01916 0
2.61804e-15 1.01916 0
-4.81123e-15 1.01778 0
-2.17656e-15 1.01778 0
2.61804e-15 1.01916 0
2.20569e-15 1.01916 0
-1.57899e-15 1.01916 0
-1.96397e-15 1.01916 0
1.86869e-15 1.0205 0
1.75804e-15 1.0205 0
-1.96397e-15 1.01916 0
-2.1344e-15 1.01916 0
1.75804e-15 1.0205 0
2.54735e-15 1.0205 0
-2.17656e-15 1.01778 0
3.76629e-15 1.01778 0
2.20569e-15 1.01916 0
1.36062e-15 1.01916 0
3.76629e-15 1.01778 0
-4.22417e-15 1.01778 0
1.36062e-15 1.01916 0
3.06228e-15 1.01916 0
-2.1344e-15 1.01916 0
-3.43765e-15 1.01916 0