# vtk DataFile Version 3.0
#This file was generated by the deal.II library on 2018/10/11 at 23:25:43
ASCII
DATASET UNSTRUCTURED_GRID

POINTS 5120 double
0 0 0
0.392699 0 0
0 0.625 0
0.392699 0.625 0
0.392699 0 0
0.785398 0 0
0.392699 0.625 0
0.785398 0.625 0
0 0.625 0
0.392699 0.625 0
0 1.25 0
0.392699 1.25 0
0.392699 0.625 0
0.785398 0.625 0
0.392699 1.25 0
0.785398 1.25 0
0.785398 0 0
1.1781 0 0
0.785398 0.625 0
1.1781 0.625 0
1.1781 0 0
1.5708 0 0
1.1781 0.625 0
1.5708 0.625 0
0.785398 0.625 0
1.1781 0.625 0
0.785398 1.25 0
1.1781 1.25 0
1.1781 0.625 0
1.5708 0.625 0
1.1781 1.25 0
1.5708 1.25 0
0 1.25 0
0.392699 1.25 0
0 1.875 0
0.392699 1.875 0
0.392699 1.25 0
0.785398 1.25 0
0.392699 1.875 0
0.785398 1.875 0
0 1.875 0
0.392699 1.875 0
0 2.5 0
0.392699 2.5 0
0.392699 1.875 0
0.785398 1.875 0
0.392699 2.5 0
0.785398 2.5 0
0.785398 1.25 0
1.1781 1.25 0
0.785398 1.875 0
1.1781 1.875 0
1.1781 1.25 0
1.5708 1.25 0
1.1781 1.875 0
1.5708 1.875 0
0.785398 1.875 0
1.1781 1.875 0
0.785398 2.5 0
1.1781 2.5 0
1.1781 1.875 0
1.5708 1.875 0
1.1781 2.5 0
1.5708 2.5 0
1.5708 0 0
1.9635 0 0
1.5708 0.625 0
1.9635 0.625 0
1.9635 0 0
2.35619 0 0
1.9635 0.625 0
2.35619 0.625 0
1.5708 0.625 0
1.9635 0.625 0
1.5708 1.25 0
1.9635 1.25 0
1.9635 0.625 0
2.35619 0.625 0
1.9635 1.25 0
2.35619 1.25 0
2.35619 0 0
2.74889 0 0
2.35619 0.625 0
2.74889 0.625 0
2.74889 0 0
3.14159 0 0
2.74889 0.625 0
3.14159 0.625 0
2.35619 0.625 0
2.74889 0.625 0
2.35619 1.25 0
2.74889 1.25 0
2.74889 0.625 0
3.14159 0.625 0
2.74889 1.25 0
3.14159 1.25 0
1.5708 1.25 0
1.9635 1.25 0
1.5708 1.875 0
1.9635 1.875 0
1.9635 1.25 0
2.35619 1.25 0
1.9635 1.875 0
2.35619 1.875 0
1.5708 1.875 0
1.9635 1.875 0
1.5708 2.5 0
1.9635 2.5 0
1.9635 1.875 0
2.35619 1.875 0
1.9635 2.5 0
2.35619 2.5 0
2.35619 1.25 0
2.74889 1.25 0
2.35619 1.875 0
2.74889 1.875 0
2.74889 1.25 0
3.14159 1.25 0
2.74889 1.875 0
3.14159 1.875 0
2.35619 1.875 0
2.74889 1.875 0
2.35619 2.5 0
2.74889 2.5 0
2.74889 1.875 0
3.14159 1.875 0
2.74889 2.5 0
3.14159 2.5 0
0 2.5 0
0.392699 2.5 0
0 3.125 0
0.392699 3.125 0
0.392699 2.5 0
0.785398 2.5 0
0.392699 3.125 0
0.785398 3.125 0
0 3.125 0
0.392699 3.125 0
0 3.75 0
0.392699 3.75 0
0.392699 3.125 0
0.785398 3.125 0
0.392699 3.75 0
0.785398 3.75 0
0.785398 2.5 0
1.1781 2.5 0
0.785398 3.125 0
1.1781 3.125 0
1.1781 2.5 0
1.5708 2.5 0
1.1781 3.125 0
1.5708 3.125 0
0.785398 3.125 0
1.1781 3.125 0
0.785398 3.75 0
1.1781 3.75 0
1.1781 3.125 0
1.5708 3.125 0
1.1781 3.75 0
1.5708 3.75 0
0 3.75 0
0.392699 3.75 0
0 4.375 0
0.392699 4.375 0
0.392699 3.75 0
0.785398 3.75 0
0.392699 4.375 0
0.785398 4.375 0
0 4.375 0
0.392699 4.375 0
0 5 0
0.392699 5 0
0.392699 4.375 0
0.785398 4.375 0
0.392699 5 0
0.785398 5 0
0.785398 3.75 0
1.1781 3.75 0
0.785398 4.375 0
1.1781 4.375 0
1.1781 3.75 0
1.5708 3.75 0
1.1781 4.375 0
1.5708 4.375 0
0.785398 4.375 0
1.1781 4.375 0
0.785398 5 0
1.1781 5 0
1.1781 4.375 0
1.5708 4.375 0
1.1781 5 0
1.5708 5 0
1.5708 2.5 0
1.9635 2.5 0
1.5708 3.125 0
1.9635 3.125 0
1.9635 2.5 0
2.35619 2.5 0
1.9635 3.125 0
2.35619 3.125 0
1.5708 3.125 0
1.9635 3.125 0
1.5708 3.75 0
1.9635 3.75 0
1.9635 3.125 0
2.35619 3.125 0
1.9635 3.75 0
2.35619 3.75 0
2.35619 2.5 0
2.74889 2.5 0
2.35619 3.125 0
2.74889 3.125 0
2.74889 2.5 0
3.14159 2.5 0
2.74889 3.125 0
3.14159 3.125 0
2.35619 3.125 0
2.74889 3.125 0
2.35619 3.75 0
2.74889 3.75 0
2.74889 3.125 0
3.14159 3.125 0
2.74889 3.75 0
3.14159 3.75 0
1.5708 3.75 0
1.9635 3.75 0
1.5708 4.375 0
1.9635 4.375 0
1.9635 3.75 0
2.35619 3.75 0
1.9635 4.375 0
2.35619 4.375 0
1.5708 4.375 0
1.9635 4.375 0
1.5708 5 0
1.9635 5 0
1.9635 4.375 0
2.35619 4.375 0
1.9635 5 0
2.35619 5 0
2.35619 3.75 0
2.74889 3.75 0
2.35619 4.375 0
2.74889 4.375 0
2.74889 3.75 0
3.14159 3.75 0
2.74889 4.375 0
3.14159 4.375 0
2.35619 4.375 0
2.74889 4.375 0
2.35619 5 0
2.74889 5 0
2.74889 4.375 0
3.14159 4.375 0
2.74889 5 0
3.14159 5 0
3.14159 0 0
3.53429 0 0
3.14159 0.625 0
3.53429 0.625 0
3.53429 0 0
3.92699 0 0
3.53429 0.625 0
3.92699 0.625 0
3.14159 0.625 0
3.53429 0.625 0
3.14159 1.25 0
3.53429 1.25 0
3.53429 0.625 0
3.92699 0.625 0
3.53429 1.25 0
3.92699 1.25 0
3.92699 0 0
4.31969 0 0
3.92699 0.625 0
4.31969 0.625 0
4.31969 0 0
4.71239 0 0
4.31969 0.625 0
4.71239 0.625 0
3.92699 0.625 0
4.31969 0.625 0
3.92699 1.25 0
4.31969 1.25 0
4.31969 0.625 0
4.71239 0.625 0
4.31969 1.25 0
4.71239 1.25 0
3.14159 1.25 0
3.53429 1.25 0
3.14159 1.875 0
3.53429 1.875 0
3.53429 1.25 0
3.92699 1.25 0
3.53429 1.875 0
3.92699 1.875 0
3.14159 1.875 0
3.53429 1.875 0
3.14159 2.5 0
3.53429 2.5 0
3.53429 1.875 0
3.92699 1.875 0
3.53429 2.5 0
3.92699 2.5 0
3.92699 1.25 0
4.31969 1.25 0
3.92699 1.875 0
4.31969 1.875 0
4.31969 1.25 0
4.71239 1.25 0
4.31969 1.875 0
4.71239 1.875 0
3.92699 1.875 0
4.31969 1.875 0
3.92699 2.5 0
4.31969 2.5 0
4.31969 1.875 0
4.71239 1.875 0
4.31969 2.5 0
4.71239 2.5 0
4.71239 0 0
5.10509 0 0
4.71239 0.625 0
5.10509 0.625 0
5.10509 0 0
5.49779 0 0
5.10509 0.625 0
5.49779 0.625 0
4.71239 0.625 0
5.10509 0.625 0
4.71239 1.25 0
5.10509 1.25 0
5.10509 0.625 0
5.49779 0.625 0
5.10509 1.25 0
5.49779 1.25 0
5.49779 0 0
5.89049 0 0
5.49779 0.625 0
5.89049 0.625 0
5.89049 0 0
6.28319 0 0
5.89049 0.625 0
6.28319 0.625 0
5.49779 0.625 0
5.89049 0.625 0
5.49779 1.25 0
5.89049 1.25 0
5.89049 0.625 0
6.28319 0.625 0
5.89049 1.25 0
6.28319 1.25 0
4.71239 1.25 0
5.10509 1.25 0
4.71239 1.875 0
5.10509 1.875 0
5.10509 1.25 0
5.49779 1.25 0
5.10509 1.875 0
5.49779 1.875 0
4.71239 1.875 0
5.10509 1.875 0
4.71239 2.5 0
5.10509 2.5 0
5.10509 1.875 0
5.49779 1.875 0
5.10509 2.5 0
5.49779 2.5 0
5.49779 1.25 0
5.89049 1.25 0
5.49779 1.875 0
5.89049 1.875 0
5.89049 1.25 0
6.28319 1.25 0
5.89049 1.875 0
6.28319 1.875 0
5.49779 1.875 0
5.89049 1.875 0
5.49779 2.5 0
5.89049 2.5 0
5.89049 1.875 0
6.28319 1.875 0
5.89049 2.5 0
6.28319 2.5 0
3.14159 2.5 0
3.53429 2.5 0
3.14159 3.125 0
3.53429 3.125 0
3.53429 2.5 0
3.92699 2.5 0
3.53429 3.125 0
3.92699 3.125 0
3.14159 3.125 0
3.53429 3.125 0
3.14159 3.75 0
3.53429 3.75 0
3.53429 3.125 0
3.92699 3.125 0
3.53429 3.75 0
3.92699 3.75 0
3.92699 2.5 0
4.31969 2.5 0
3.92699 3.125 0
4.31969 3.125 0
4.31969 2.5 0
4.71239 2.5 0
4.31969 3.125 0
4.71239 3.125 0
3.92699 3.125 0
4.31969 3.125 0
3.92699 3.75 0
4.31969 3.75 0
4.31969 3.125 0
4.71239 3.125 0
4.31969 3.75 0
4.71239 3.75 0
3.14159 3.75 0
3.53429 3.75 0
3.14159 4.375 0
3.53429 4.375 0
3.53429 3.75 0
3.92699 3.75 0
3.53429 4.375 0
3.92699 4.375 0
3.14159 4.375 0
3.53429 4.375 0
3.14159 5 0
3.53429 5 0
3.53429 4.375 0
3.92699 4.375 0
3.53429 5 0
3.92699 5 0
3.92699 3.75 0
4.31969 3.75 0
3.92699 4.375 0
4.31969 4.375 0
4.31969 3.75 0
4.71239 3.75 0
4.31969 4.375 0
4.71239 4.375 0
3.92699 4.375 0
4.31969 4.375 0
3.92699 5 0
4.31969 5 0
4.31969 4.375 0
4.71239 4.375 0
4.31969 5 0
4.71239 5 0
4.71239 2.5 0
5.10509 2.5 0
4.71239 3.125 0
5.10509 3.125 0
5.10509 2.5 0
5.49779 2.5 0
5.10509 3.125 0
5.49779 3.125 0
4.71239 3.125 0
5.10509 3.125 0
4.71239 3.75 0
5.10509 3.75 0
5.10509 3.125 0
5.49779 3.125 0
5.10509 3.75 0
5.49779 3.75 0
5.49779 2.5 0
5.89049 2.5 0
5.49779 3.125 0
5.89049 3.125 0
5.89049 2.5 0
6.28319 2.5 0
5.89049 3.125 0
6.28319 3.125 0
5.49779 3.125 0
5.89049 3.125 0
5.49779 3.75 0
5.89049 3.75 0
5.89049 3.125 0
6.28319 3.125 0
5.89049 3.75 0
6.28319 3.75 0
4.71239 3.75 0
5.10509 3.75 0
4.71239 4.375 0
5.10509 4.375 0
5.10509 3.75 0
5.49779 3.75 0
5.10509 4.375 0
5.49779 4.375 0
4.71239 4.375 0
5.10509 4.375 0
4.71239 5 0
5.10509 5 0
5.10509 4.375 0
5.49779 4.375 0
5.10509 5 0
5.49779 5 0
5.49779 3.75 0
5.89049 3.75 0
5.49779 4.375 0
5.89049 4.375 0
5.89049 3.75 0
6.28319 3.75 0
5.89049 4.375 0
6.28319 4.375 0
5.49779 4.375 0
5.89049 4.375 0
5.49779 5 0
5.89049 5 0
5.89049 4.375 0
6.28319 4.375 0
5.89049 5 0
6.28319 5 0
0 5 0
0.392699 5 0
0 5.625 0
0.392699 5.625 0
0.392699 5 0
0.785398 5 0
0.392699 5.625 0
0.785398 5.625 0
0 5.625 0
0.392699 5.625 0
0 6.25 0
0.392699 6.25 0
0.392699 5.625 0
0.785398 5.625 0
0.392699 6.25 0
0.785398 6.25 0
0.785398 5 0
1.1781 5 0
0.785398 5.625 0
1.1781 5.625 0
1.1781 5 0
1.5708 5 0
1.1781 5.625 0
1.5708 5.625 0
0.785398 5.625 0
1.1781 5.625 0
0.785398 6.25 0
1.1781 6.25 0
1.1781 5.625 0
1.5708 5.625 0
1.1781 6.25 0
1.5708 6.25 0
0 6.25 0
0.392699 6.25 0
0 6.875 0
0.392699 6.875 0
0.392699 6.25 0
0.785398 6.25 0
0.392699 6.875 0
0.785398 6.875 0
0 6.875 0
0.392699 6.875 0
0 7.5 0
0.392699 7.5 0
0.392699 6.875 0
0.785398 6.875 0
0.392699 7.5 0
0.785398 7.5 0
0.785398 6.25 0
1.1781 6.25 0
0.785398 6.875 0
1.1781 6.875 0
1.1781 6.25 0
1.5708 6.25 0
1.1781 6.875 0
1.5708 6.875 0
0.785398 6.875 0
1.1781 6.875 0
0.785398 7.5 0
1.1781 7.5 0
1.1781 6.875 0
1.5708 6.875 0
1.1781 7.5 0
1.5708 7.5 0
1.5708 5 0
1.9635 5 0
1.5708 5.625 0
1.9635 5.625 0
1.9635 5 0
2.35619 5 0
1.9635 5.625 0
2.35619 5.625 0
1.5708 5.625 0
1.9635 5.625 0
1.5708 6.25 0
1.9635 6.25 0
1.9635 5.625 0
2.35619 5.625 0
1.9635 6.25 0
2.35619 6.25 0
2.35619 5 0
2.74889 5 0
2.35619 5.625 0
2.74889 5.625 0
2.74889 5 0
3.14159 5 0
2.74889 5.625 0
3.14159 5.625 0
2.35619 5.625 0
2.74889 5.625 0
2.35619 6.25 0
2.74889 6.25 0
2.74889 5.625 0
3.14159 5.625 0
2.74889 6.25 0
3.14159 6.25 0
1.5708 6.25 0
1.9635 6.25 0
1.5708 6.875 0
1.9635 6.875 0
1.9635 6.25 0
2.35619 6.25 0
1.9635 6.875 0
2.35619 6.875 0
1.5708 6.875 0
1.9635 6.875 0
1.5708 7.5 0
1.9635 7.5 0
1.9635 6.875 0
2.35619 6.875 0
1.9635 7.5 0
2.35619 7.5 0
2.35619 6.25 0
2.74889 6.25 0
2.35619 6.875 0
2.74889 6.875 0
2.74889 6.25 0
3.14159 6.25 0
2.74889 6.875 0
3.14159 6.875 0
2.35619 6.875 0
2.74889 6.875 0
2.35619 7.5 0
2.74889 7.5 0
2.74889 6.875 0
3.14159 6.875 0
2.74889 7.5 0
3.14159 7.5 0
0 7.5 0
0.392699 7.5 0
0 8.125 0
0.392699 8.125 0
0.392699 7.5 0
0.785398 7.5 0
0.392699 8.125 0
0.785398 8.125 0
0 8.125 0
0.392699 8.125 0
0 8.75 0
0.392699 8.75 0
0.392699 8.125 0
0.785398 8.125 0
0.392699 8.75 0
0.785398 8.75 0
0.785398 7.5 0
1.1781 7.5 0
0.785398 8.125 0
1.1781 8.125 0
1.1781 7.5 0
1.5708 7.5 0
1.1781 8.125 0
1.5708 8.125 0
0.785398 8.125 0
1.1781 8.125 0
0.785398 8.75 0
1.1781 8.75 0
1.1781 8.125 0
[...]
POINT_DATA 5120
VECTORS velocity double
0 0 0
0 0 0
0 7.89726e-16 0
-1.34853e-15 9.54705e-16 0
0 0 0
0 0 0
-1.34853e-15 9.54705e-16 0
-2.38615e-15 9.77864e-16 0
0 7.89726e-16 0
-1.34853e-15 9.54705e-16 0
0 3.54945e-15 0
-1.80519e-15 3.54307e-15 0
-1.34853e-15 9.54705e-16 0
-2.38615e-15 9.77864e-16 0
-1.80519e-15 3.54307e-15 0
-3.09653e-15 3.34327e-15 0
0 0 0
0 0 0
-2.38615e-15 9.77864e-16 0
-3.74605e-15 4.27725e-16 0
0 0 0
0 0 0
-3.74605e-15 4.27725e-16 0
-4.34665e-15 5.09471e-17 0
-2.38615e-15 9.77864e-16 0
-3.74605e-15 4.27725e-16 0
-3.09653e-15 3.34327e-15 0
-4.6415e-15 2.34953e-15 0
-3.74605e-15 4.27725e-16 0
-4.34665e-15 5.09471e-17 0
-4.6415e-15 2.34953e-15 0
-5.72822e-15 1.62549e-15 0
0 3.54945e-15 0
-1.80519e-15 3.54307e-15 0
0 6.12182e-15 0
-1.38236e-15 5.99943e-15 0
-1.80519e-15 3.54307e-15 0
-3.09653e-15 3.34327e-15 0
-1.38236e-15 5.99943e-15 0
-2.50077e-15 5.50927e-15 0
0 6.12182e-15 0
-1.38236e-15 5.99943e-15 0
0 7.65491e-15 0
-9.19742e-16 7.54539e-15 0
-1.38236e-15 5.99943e-15 0
-2.50077e-15 5.50927e-15 0
-9.19742e-16 7.54539e-15 0
-1.75888e-15 7.20309e-15 0
-3.09653e-15 3.34327e-15 0
-4.6415e-15 2.34953e-15 0
-2.50077e-15 5.50927e-15 0
-3.63622e-15 4.56971e-15 0
-4.6415e-15 2.34953e-15 0
-5.72822e-15 1.62549e-15 0
-3.63622e-15 4.56971e-15 0
-5.0835e-15 3.94574e-15 0
-2.50077e-15 5.50927e-15 0
-3.63622e-15 4.56971e-15 0
-1.75888e-15 7.20309e-15 0
-2.65275e-15 6.32963e-15 0
-3.63622e-15 4.56971e-15 0
-5.0835e-15 3.94574e-15 0
-2.65275e-15 6.32963e-15 0
-3.86717e-15 5.67586e-15 0
0 0 0
0 0 0
-4.34665e-15 5.09471e-17 0
-4.83115e-15 -2.18271e-16 0
0 0 0
0 0 0
-4.83115e-15 -2.18271e-16 0
-5.60724e-15 -3.36473e-16 0
-4.34665e-15 5.09471e-17 0
-4.83115e-15 -2.18271e-16 0
-5.72822e-15 1.62549e-15 0
-6.73195e-15 1.06756e-15 0
-4.83115e-15 -2.18271e-16 0
-5.60724e-15 -3.36473e-16 0
-6.73195e-15 1.06756e-15 0
-7.76971e-15 7.98458e-16 0
0 0 0
0 0 0
-5.60724e-15 -3.36473e-16 0
-5.8875e-15 -3.95962e-16 0
0 0 0
0 0 0
-5.8875e-15 -3.95962e-16 0
-6.29134e-15 -3.13096e-16 0
-5.60724e-15 -3.36473e-16 0
-5.8875e-15 -3.95962e-16 0
-7.76971e-15 7.98458e-16 0
-8.64859e-15 7.47573e-16 0
-5.8875e-15 -3.95962e-16 0
-6.29134e-15 -3.13096e-16 0
-8.64859e-15 7.47573e-16 0
-9.66234e-15 7.7676e-16 0
-5.72822e-15 1.62549e-15 0
-6.73195e-15 1.06756e-15 0
-5.0835e-15 3.94574e-15 0
-6.22401e-15 2.98531e-15 0
-6.73195e-15 1.06756e-15 0
-7.76971e-15 7.98458e-16 0
-6.22401e-15 2.98531e-15 0
-7.81266e-15 2.48602e-15 0
-5.0835e-15 3.94574e-15 0
-6.22401e-15 2.98531e-15 0
-3.86717e-15 5.67586e-15 0
-4.86092e-15 5.32645e-15 0
-6.22401e-15 2.98531e-15 0
-7.81266e-15 2.48602e-15 0
-4.86092e-15 5.32645e-15 0
-6.38551e-15 4.92335e-15 0
-7.76971e-15 7.98458e-16 0
-8.64859e-15 7.47573e-16 0
-7.81266e-15 2.48602e-15 0
-9.06221e-15 2.38024e-15 0
-8.64859e-15 7.47573e-16 0
-9.66234e-15 7.7676e-16 0
-9.06221e-15 2.38024e-15 0
-1.03261e-14 2.36075e-15 0
-7.81266e-15 2.48602e-15 0
-9.06221e-15 2.38024e-15 0
-6.38551e-15 4.92335e-15 0
-7.86616e-15 4.69145e-15 0
-9.06221e-15 2.38024e-15 0
-1.03261e-14 2.36075e-15 0
-7.86616e-15 4.69145e-15 0
-9.36811e-15 4.67037e-15 0
0 7.65491e-15 0
-9.19742e-16 7.54539e-15 0
0 8.82023e-15 0
-5.50498e-16 8.70072e-15 0
-9.19742e-16 7.54539e-15 0
-1.75888e-15 7.20309e-15 0
-5.50498e-16 8.70072e-15 0
-1.19024e-15 8.46905e-15 0
0 8.82023e-15 0
-5.50498e-16 8.70072e-15 0
0 9.6123e-15 0
-4.92196e-16 9.60912e-15 0
-5.50498e-16 8.70072e-15 0
-1.19024e-15 8.46905e-15 0
-4.92196e-16 9.60912e-15 0
-1.074e-15 9.59402e-15 0
-1.75888e-15 7.20309e-15 0
-2.65275e-15 6.32963e-15 0
-1.19024e-15 8.46905e-15 0
-2.03415e-15 7.94216e-15 0
-2.65275e-15 6.32963e-15 0
-3.86717e-15 5.67586e-15 0
-2.03415e-15 7.94216e-15 0
-3.05235e-15 7.51464e-15 0
-1.19024e-15 8.46905e-15 0
-2.03415e-15 7.94216e-15 0
-1.074e-15 9.59402e-15 0
-1.79103e-15 9.29011e-15 0
-2.03415e-15 7.94216e-15 0
-3.05235e-15 7.51464e-15 0
-1.79103e-15 9.29011e-15 0
-2.74505e-15 9.12932e-15 0
0 9.6123e-15 0
-4.92196e-16 9.60912e-15 0
0 1.04541e-14 0
-5.17829e-16 1.04668e-14 0
-4.92196e-16 9.60912e-15 0
-1.074e-15 9.59402e-15 0
-5.17829e-16 1.04668e-14 0
-9.88414e-16 1.06014e-14 0
0 1.04541e-14 0
-5.17829e-16 1.04668e-14 0
0 1.12724e-14 0
-4.71562e-16 1.12544e-14 0
-5.17829e-16 1.04668e-14 0
-9.88414e-16 1.06014e-14 0
-4.71562e-16 1.12544e-14 0
-9.42851e-16 1.14462e-14 0
-1.074e-15 9.59402e-15 0
-1.79103e-15 9.29011e-15 0
-9.88414e-16 1.06014e-14 0
-1.69152e-15 1.05392e-14 0
-1.79103e-15 9.29011e-15 0
-2.74505e-15 9.12932e-15 0
-1.69152e-15 1.05392e-14 0
-2.58987e-15 1.06463e-14 0
-9.88414e-16 1.06014e-14 0
-1.69152e-15 1.05392e-14 0
-9.42851e-16 1.14462e-14 0
-1.57007e-15 1.16885e-14 0
-1.69152e-15 1.05392e-14 0
-2.58987e-15 1.06463e-14 0
-1.57007e-15 1.16885e-14 0
-2.37189e-15 1.20997e-14 0
-3.86717e-15 5.67586e-15 0
-4.86092e-15 5.32645e-15 0
-3.05235e-15 7.51464e-15 0
-3.923e-15 7.33874e-15 0
-4.86092e-15 5.32645e-15 0
-6.38551e-15 4.92335e-15 0
-3.923e-15 7.33874e-15 0
-5.29846e-15 7.17215e-15 0
-3.05235e-15 7.51464e-15 0
-3.923e-15 7.33874e-15 0
-2.74505e-15 9.12932e-15 0
-3.5912e-15 9.18592e-15 0
-3.923e-15 7.33874e-15 0
-5.29846e-15 7.17215e-15 0
-3.5912e-15 9.18592e-15 0
-4.86295e-15 9.18585e-15 0
-6.38551e-15 4.92335e-15 0
-7.86616e-15 4.69145e-15 0
-5.29846e-15 7.17215e-15 0
-6.77781e-15 7.04171e-15 0
-7.86616e-15 4.69145e-15 0
-9.36811e-15 4.67037e-15 0
-6.77781e-15 7.04171e-15 0
-8.23241e-15 7.00327e-15 0
-5.29846e-15 7.17215e-15 0
-6.77781e-15 7.04171e-15 0
-4.86295e-15 9.18585e-15 0
-6.12001e-15 9.30003e-15 0
-6.77781e-15 7.04171e-15 0
-8.23241e-15 7.00327e-15 0
-6.12001e-15 9.30003e-15 0
-7.47651e-15 9.43035e-15 0
-2.74505e-15 9.12932e-15 0
-3.5912e-15 9.18592e-15 0
-2.58987e-15 1.06463e-14 0
-3.38312e-15 1.08653e-14 0
-3.5912e-15 9.18592e-15 0
-4.86295e-15 9.18585e-15 0
-3.38312e-15 1.08653e-14 0
-4.50037e-15 1.10657e-14 0
-2.58987e-15 1.06463e-14 0
-3.38312e-15 1.08653e-14 0
-2.37189e-15 1.20997e-14 0
-3.18351e-15 1.24859e-14 0
-3.38312e-15 1.08653e-14 0
-4.50037e-15 1.10657e-14 0
-3.18351e-15 1.24859e-14 0
-4.36491e-15 1.28943e-14 0
-4.86295e-15 9.18585e-15 0
-6.12001e-15 9.30003e-15 0
-4.50037e-15 1.10657e-14 0
-5.82288e-15 1.13594e-14 0
-6.12001e-15 9.30003e-15 0
-7.47651e-15 9.43035e-15 0
-5.82288e-15 1.13594e-14 0
-7.12327e-15 1.17188e-14 0
-4.50037e-15 1.10657e-14 0
-5.82288e-15 1.13594e-14 0
-4.36491e-15 1.28943e-14 0
-5.51934e-15 1.33899e-14 0
-5.82288e-15 1.13594e-14 0
-7.12327e-15 1.17188e-14 0
-5.51934e-15 1.33899e-14 0
-6.74368e-15 1.39128e-14 0
0 0 0
0 0 0
-6.29134e-15 -3.13096e-16 0
-6.57739e-15 -2.39057e-16 0
0 0 0
0 0 0
-6.57739e-15 -2.39057e-16 0
-7.11884e-15 -2.6193e-16 0
-6.29134e-15 -3.13096e-16 0
-6.57739e-15 -2.39057e-16 0
-9.66234e-15 7.7676e-16 0
-1.04056e-14 8.5411e-16 0
-6.57739e-15 -2.39057e-16 0
-7.11884e-15 -2.6193e-16 0
-1.04056e-14 8.5411e-16 0
-1.12247e-14 9.81175e-16 0
0 0 0
0 0 0
-7.11884e-15 -2.6193e-16 0
-7.47484e-15 -1.86547e-16 0
0 0 0
0 0 0
-7.47484e-15 -1.86547e-16 0
-8.07829e-15 4.46147e-17 0
-7.11884e-15 -2.6193e-16 0
-7.47484e-15 -1.86547e-16 0
-1.12247e-14 9.81175e-16 0
-1.22661e-14 1.29451e-15 0
-7.47484e-15 -1.86547e-16 0
-8.07829e-15 4.46147e-17 0
-1.22661e-14 1.29451e-15 0
-1.34947e-14 1.44168e-15 0
-9.66234e-15 7.7676e-16 0
-1.04056e-14 8.5411e-16 0
-1.03261e-14 2.36075e-15 0
-1.14305e-14 2.46296e-15 0
-1.04056e-14 8.5411e-16 0
-1.12247e-14 9.81175e-16 0
-1.14305e-14 2.46296e-15 0
-1.27793e-14 2.67683e-15 0
-1.03261e-14 2.36075e-15 0
-1.14305e-14 2.46296e-15 0
-9.36811e-15 4.67037e-15 0
-1.08337e-14 4.77818e-15 0
-1.14305e-14 2.46296e-15 0
-1.27793e-14 2.67683e-15 0
-1.08337e-14 4.77818e-15 0
-1.23295e-14 5.11685e-15 0
-1.12247e-14 9.81175e-16 0
-1.22661e-14 1.29451e-15 0
-1.27793e-14 2.67683e-15 0
-1.39894e-14 3.06089e-15 0
-1.22661e-14 1.29451e-15 0
-1.34947e-14 1.44168e-15 0
-1.39894e-14 3.06089e-15 0
-1.53862e-14 3.3917e-15 0
-1.27793e-14 2.67683e-15 0
-1.39894e-14 3.06089e-15 0
-1.23295e-14 5.11685e-15 0
-1.38499e-14 5.40126e-15 0
-1.39894e-14 3.06089e-15 0
-1.53862e-14 3.3917e-15 0
-1.38499e-14 5.40126e-15 0
-1.53121e-14 6.07388e-15 0
0 0 0
0 0 0
-8.07829e-15 4.46147e-17 0
-8.44433e-15 -1.95814e-16 0
0 0 0
0 0 0
-8.44433e-15 -1.95814e-16 0
-8.813e-15 -5.1432e-16 0
-8.07829e-15 4.46147e-17 0
-8.44433e-15 -1.95814e-16 0
-1.34947e-14 1.44168e-15 0
-1.42641e-14 8.71466e-16 0
-8.44433e-15 -1.95814e-16 0
-8.813e-15 -5.1432e-16 0
-1.42641e-14 8.71466e-16 0
-1.49774e-14 2.26487e-16 0
0 0 0
0 0 0
-8.813e-15 -5.1432e-16 0
-8.93634e-15 -2.06561e-16 0
0 0 0
0 0 0
-8.93634e-15 -2.06561e-16 0
-9.83628e-15 6.05414e-16 0
-8.813e-15 -5.1432e-16 0
-8.93634e-15 -2.06561e-16 0
-1.49774e-14 2.26487e-16 0
-1.5722e-14 9.41415e-16 0
-8.93634e-15 -2.06561e-16 0
-9.83628e-15 6.05414e-16 0
-1.5722e-14 9.41415e-16 0
-1.68499e-14 3.39205e-15 0
-1.34947e-14 1.44168e-15 0
-1.42641e-14 8.71466e-16 0
-1.53862e-14 3.3917e-15 0
-1.72799e-14 2.87859e-15 0
-1.42641e-14 8.71466e-16 0
-1.49774e-14 2.26487e-16 0
-1.72799e-14 2.87859e-15 0
-1.88729e-14 1.50901e-15 0
-1.53862e-14 3.3917e-15 0
-1.72799e-14 2.87859e-15 0
-1.53121e-14 6.07388e-15 0
-1.66564e-14 1.05804e-14 0
-1.72799e-14 2.87859e-15 0
-1.88729e-14 1.50901e-15 0
-1.66564e-14 1.05804e-14 0
-1.81794e-14 -1.2944e-15 0
-1.49774e-14 2.26487e-16 0
-1.5722e-14 9.41415e-16 0
-1.88729e-14 1.50901e-15 0
-1.87498e-14 2.25098e-15 0
-1.5722e-14 9.41415e-16 0
-1.68499e-14 3.39205e-15 0
-1.87498e-14 2.25098e-15 0
-2.0102e-14 5.26797e-15 0
-1.88729e-14 1.50901e-15 0
-1.87498e-14 2.25098e-15 0
-1.81794e-14 -1.2944e-15 0
-2.12814e-14 -5.44413e-15 0
-1.87498e-14 2.25098e-15 0
-2.0102e-14 5.26797e-15 0
-2.12814e-14 -5.44413e-15 0
-2.24513e-14 1.72119e-14 0
-9.36811e-15 4.67037e-15 0
-1.08337e-14 4.77818e-15 0
-8.23241e-15 7.00327e-15 0
-9.86798e-15 7.2659e-15 0
-1.08337e-14 4.77818e-15 0
-1.23295e-14 5.11685e-15 0
-9.86798e-15 7.2659e-15 0
-1.14668e-14 7.57887e-15 0
-8.23241e-15 7.00327e-15 0
-9.86798e-15 7.2659e-15 0
-7.47651e-15 9.43035e-15 0
-9.00139e-15 9.8167e-15 0
-9.86798e-15 7.2659e-15 0
-1.14668e-14 7.57887e-15 0
-9.00139e-15 9.8167e-15 0
-1.05814e-14 1.03145e-14 0
-1.23295e-14 5.11685e-15 0
-1.38499e-14 5.40126e-15 0
-1.14668e-14 7.57887e-15 0
-1.32028e-14 7.93383e-15 0
-1.38499e-14 5.40126e-15 0
-1.53121e-14 6.07388e-15 0
-1.32028e-14 7.93383e-15 0
-1.47582e-14 7.92254e-15 0
-1.14668e-14 7.57887e-15 0
-1.32028e-14 7.93383e-15 0
-1.05814e-14 1.03145e-14 0
-1.23001e-14 1.06782e-14 0
-1.32028e-14 7.93383e-15 0
-1.47582e-14 7.92254e-15 0
-1.23001e-14 1.06782e-14 0
-1.40613e-14 1.09715e-14 0
-7.47651e-15 9.43035e-15 0
-9.00139e-15 9.8167e-15 0
-7.12327e-15 1.17188e-14 0
-8.53777e-15 1.2214e-14 0
-9.00139e-15 9.8167e-15 0
-1.05814e-14 1.03145e-14 0
-8.53777e-15 1.2214e-14 0
-9.94057e-15 1.27771e-14 0
-7.12327e-15 1.17188e-14 0
-8.53777e-15 1.2214e-14 0
-6.74368e-15 1.39128e-14 0
-8.09357e-15 1.44397e-14 0
-8.53777e-15 1.2214e-14 0
-9.94057e-15 1.27771e-14 0
-8.09357e-15 1.44397e-14 0
-9.51316e-15 1.5086e-14 0
-1.05814e-14 1.03145e-14 0
-1.23001e-14 1.06782e-14 0
-9.94057e-15 1.27771e-14 0
-1.1557e-14 1.33951e-14 0
-1.23001e-14 1.06782e-14 0
-1.40613e-14 1.09715e-14 0
-1.1557e-14 1.33951e-14 0
-1.31447e-14 1.42549e-14 0
-9.94057e-15 1.27771e-14 0
-1.1557e-14 1.33951e-14 0
-9.51316e-15 1.5086e-14 0
-1.0932e-14 1.5744e-14 0
-1.1557e-14 1.33951e-14 0
-1.31447e-14 1.42549e-14 0
-1.0932e-14 1.5744e-14 0
-1.21497e-14 1.62719e-14 0
-1.53121e-14 6.07388e-15 0
-1.66564e-14 1.05804e-14 0
-1.47582e-14 7.92254e-15 0
-1.6018e-14 3.47123e-15 0
-1.66564e-14 1.05804e-14 0
-1.81794e-14 -1.2944e-15 0
-1.6018e-14 3.47123e-15 0
-1.76764e-14 1.26851e-14 0
-1.47582e-14 7.92254e-15 0
-1.6018e-14 3.47123e-15 0
-1.40613e-14 1.09715e-14 0
-1.68885e-14 1.07637e-14 0
-1.6018e-14 3.47123e-15 0
-1.76764e-14 1.26851e-14 0
-1.68885e-14 1.07637e-14 0
-1.84551e-14 1.00769e-14 0
-1.81794e-14 -1.2944e-15 0
-2.12814e-14 -5.44413e-15 0
-1.76764e-14 1.26851e-14 0
-2.09747e-14 1.70751e-14 0
-2.12814e-14 -5.44413e-15 0
-2.24513e-14 1.72119e-14 0
-2.09747e-14 1.70751e-14 0
-2.22172e-14 -7.56255e-16 0
-1.76764e-14 1.26851e-14 0
-2.09747e-14 1.70751e-14 0
-1.84551e-14 1.00769e-14 0
-1.72992e-14 9.99712e-15 0
-2.09747e-14 1.70751e-14 0
-2.22172e-14 -7.56255e-16 0
-1.72992e-14 9.99712e-15 0
-1.86593e-14 1.07281e-14 0
-1.40613e-14 1.09715e-14 0
-1.68885e-14 1.07637e-14 0
-1.31447e-14 1.42549e-14 0
-1.50621e-14 1.77292e-14 0
-1.68885e-14 1.07637e-14 0
-1.84551e-14 1.00769e-14 0
-1.50621e-14 1.77292e-14 0
-1.63437e-14 7.60984e-15 0
-1.31447e-14 1.42549e-14 0
-1.50621e-14 1.77292e-14 0
-1.21497e-14 1.62719e-14 0
-1.28966e-14 1.61589e-14 0
-1.50621e-14 1.77292e-14 0
-1.63437e-14 7.60984e-15 0
-1.28966e-14 1.61589e-14 0
-1.44752e-14 1.47485e-14 0
-1.84551e-14 1.00769e-14 0
-1.72992e-14 9.99712e-15 0
-1.63437e-14 7.60984e-15 0
-1.78074e-14 3.70406e-15 0
-1.72992e-14 9.99712e-15 0
-1.86593e-14 1.07281e-14 0
-1.78074e-14 3.70406e-15 0
-1.92005e-14 2.14525e-14 0
-1.63437e-14 7.60984e-15 0
-1.78074e-14 3.70406e-15 0
-1.44752e-14 1.47485e-14 0
-1.85513e-14 1.44539e-14 0
-1.78074e-14 3.70406e-15 0
-1.92005e-14 2.14525e-14 0
-1.85513e-14 1.44539e-14 0
-1.97722e-14 1.58963e-14 0
0 1.12724e-14 0
-4.71562e-16 1.12544e-14 0
0 1.20927e-14 0
-4.83552e-16 1.21273e-14 0
-4.71562e-16 1.12544e-14 0
-9.42851e-16 1.14462e-14 0
-4.83552e-16 1.21273e-14 0
-1.04848e-15 1.24001e-14 0
0 1.20927e-14 0
-4.83552e-16 1.21273e-14 0
0 1.28855e-14 0
-5.20253e-16 1.30162e-14 0
-4.83552e-16 1.21273e-14 0
-1.04848e-15 1.24001e-14 0
-5.20253e-16 1.30162e-14 0
-1.04134e-15 1.33909e-14 0
-9.42851e-16 1.14462e-14 0
-1.57007e-15 1.16885e-14 0
-1.04848e-15 1.24001e-14 0
-1.71363e-15 1.27519e-14 0
-1.57007e-15 1.16885e-14 0
-2.37189e-15 1.20997e-14 0
-1.71363e-15 1.27519e-14 0
-2.39307e-15 1.32899e-14 0
-1.04848e-15 1.24001e-14 0
-1.71363e-15 1.27519e-14 0
-1.04134e-15 1.33909e-14 0
-1.70808e-15 1.37869e-14 0
-1.71363e-15 1.27519e-14 0
-2.39307e-15 1.32899e-14 0
-1.70808e-15 1.37869e-14 0
-2.42395e-15 1.44449e-14 0
0 1.28855e-14 0
-5.20253e-16 1.30162e-14 0
0 1.37869e-14 0
-5.40662e-16 1.39086e-14 0
-5.20253e-16 1.30162e-14 0
-1.04134e-15 1.33909e-14 0
-5.40662e-16 1.39086e-14 0
-1.12456e-15 1.43088e-14 0
0 1.37869e-14 0
-5.40662e-16 1.39086e-14 0
0 1.47919e-14 0
-7.30382e-16 1.49663e-14 0
-5.40662e-16 1.39086e-14 0
-1.12456e-15 1.43088e-14 0
-7.30382e-16 1.49663e-14 0
-1.42662e-15 1.53761e-14 0
-1.04134e-15 1.33909e-14 0
-1.70808e-15 1.37869e-14 0
-1.12456e-15 1.43088e-14 0
-1.76639e-15 1.48316e-14 0
-1.70808e-15 1.37869e-14 0
-2.42395e-15 1.44449e-14 0
-1.76639e-15 1.48316e-14 0
-2.49002e-15 1.55937e-14 0
-1.12456e-15 1.43088e-14 0
-1.76639e-15 1.48316e-14 0
-1.42662e-15 1.53761e-14 0
-2.11668e-15 1.59649e-14 0
-1.76639e-15 1.48316e-14 0
-2.49002e-15 1.55937e-14 0
-2.11668e-15 1.59649e-14 0
-2.79709e-15 1.67454e-14 0
-2.37189e-15 1.20997e-14 0
-3.18351e-15 1.24859e-14 0
-2.39307e-15 1.32899e-14 0
-3.00605e-15 1.39514e-14 0
-3.18351e-15 1.24859e-14 0
-4.36491e-15 1.28943e-14 0
-3.00605e-15 1.39514e-14 0
-4.01584e-15 1.46373e-14 0
-2.39307e-15 1.32899e-14 0
-3.00605e-15 1.39514e-14 0
-2.42395e-15 1.44449e-14 0
-3.04072e-15 1.52833e-14 0
-3.00605e-15 1.39514e-14 0
-4.01584e-15 1.46373e-14 0
-3.04072e-15 1.52833e-14 0
-3.98207e-15 1.61005e-14 0
-4.36491e-15 1.28943e-14 0
-5.51934e-15 1.33899e-14 0
-4.01584e-15 1.46373e-14 0
-5.1202e-15 1.52528e-14 0
-5.51934e-15 1.33899e-14 0
-6.74368e-15 1.39128e-14 0
-5.1202e-15 1.52528e-14 0
-6.22816e-15 1.58658e-14 0
-4.01584e-15 1.46373e-14 0
-5.1202e-15 1.52528e-14 0
-3.98207e-15 1.61005e-14 0
-4.895e-15 1.69448e-14 0
-5.1202e-15 1.52528e-14 0
-6.22816e-15 1.58658e-14 0
-4.895e-15 1.69448e-14 0
-5.85451e-15 1.76894e-14 0
-2.42395e-15 1.44449e-14 0
-3.04072e-15 1.52833e-14 0
-2.49002e-15 1.55937e-14 0
-3.14224e-15 1.65526e-14 0
-3.04072e-15 1.52833e-14 0
-3.98207e-15 1.61005e-14 0
-3.14224e-15 1.65526e-14 0
-3.99699e-15 1.74932e-14 0
-2.49002e-15 1.55937e-14 0
-3.14224e-15 1.65526e-14 0
-2.79709e-15 1.67454e-14 0
-3.47926e-15 1.77776e-14 0
-3.14224e-15 1.65526e-14 0
-3.99699e-15 1.74932e-14 0
-3.47926e-15 1.77776e-14 0
-4.31428e-15 1.88639e-14 0
-3.98207e-15 1.61005e-14 0
-4.895e-15 1.69448e-14 0
-3.99699e-15 1.74932e-14 0
-4.86242e-15 1.83737e-14 0
-4.895e-15 1.69448e-14 0
-5.85451e-15 1.76894e-14 0
-4.86242e-15 1.83737e-14 0
-5.74603e-15 1.92182e-14 0
-3.99699e-15 1.74932e-14 0
-4.86242e-15 1.83737e-14 0
-4.31428e-15 1.88639e-14 0
-5.11252e-15 1.98246e-14 0
-4.86242e-15 1.83737e-14 0
-5.74603e-15 1.92182e-14 0
-5.11252e-15 1.98246e-14 0
-5.92225e-15 2.07326e-14 0
0 1.47919e-14 0
-7.30382e-16 1.49663e-14 0
0 1.61164e-14 0
-7.90509e-16 1.62267e-14 0
-7.30382e-16 1.49663e-14 0
-1.42662e-15 1.53761e-14 0
-7.90509e-16 1.62267e-14 0
-1.58664e-15 1.64889e-14 0
0 1.61164e-14 0
-7.90509e-16 1.62267e-14 0
0 1.75483e-14 0
-8.39974e-16 1.76237e-14 0
-7.90509e-16 1.62267e-14 0
-1.58664e-15 1.64889e-14 0
-8.39974e-16 1.76237e-14 0
-1.69072e-15 1.78402e-14 0
-1.42662e-15 1.53761e-14 0
-2.11668e-15 1.59649e-14 0
-1.58664e-15 1.64889e-14 0
-2.41504e-15 1.69939e-14 0
-2.11668e-15 1.59649e-14 0
-2.79709e-15 1.67454e-14 0
-2.41504e-15 1.69939e-14 0
-3.17066e-15 1.7909e-14 0
-1.58664e-15 1.64889e-14 0
-2.41504e-15 1.69939e-14 0
-1.69072e-15 1.78402e-14 0
-2.47743e-15 1.82624e-14 0
-2.41504e-15 1.69939e-14 0
-3.17066e-15 1.7909e-14 0
-2.47743e-15 1.82624e-14 0
-3.22134e-15 1.89773e-14 0
0 1.75483e-14 0
-8.39974e-16 1.76237e-14 0
0 1.89848e-14 0
-8.96134e-16 1.90312e-14 0
-8.39974e-16 1.76237e-14 0
-1.69072e-15 1.78402e-14 0
-8.96134e-16 1.90312e-14 0
-1.81988e-15 1.91638e-14 0
0 1.89848e-14 0
-8.96134e-16 1.90312e-14 0
0 2.05387e-14 0
-1.00901e-15 2.06152e-14 0
-8.96134e-16 1.90312e-14 0
-1.81988e-15 1.91638e-14 0
-1.00901e-15 2.06152e-14 0
-2.04515e-15 2.07004e-14 0
-1.69072e-15 1.78402e-14 0
-2.47743e-15 1.82624e-14 0
-1.81988e-15 1.91638e-14 0
-2.6483e-15 1.94876e-14 0
-2.47743e-15 1.82624e-14 0
-3.22134e-15 1.89773e-14 0
-2.6483e-15 1.94876e-14 0
-3.43905e-15 2.0152e-14 0
-1.81988e-15 1.91638e-14 0
-2.6483e-15 1.94876e-14 0
-2.04515e-15 2.07004e-14 0
-3.09503e-15 2.09747e-14 0
-2.6483e-15 1.94876e-14 0
-3.43905e-15 2.0152e-14 0
-3.09503e-15 2.09747e-14 0
-4.1391e-15 2.15054e-14 0
-2.79709e-15 1.67454e-14 0
-3.47926e-15 1.77776e-14 0
-3.17066e-15 1.7909e-14 0
-3.74878e-15 1.89373e-14 0
-3.47926e-15 1.77776e-14 0
-4.31428e-15 1.88639e-14 0
-3.74878e-15 1.89373e-14 0
-4.4479e-15 2.00107e-14 0
-3.17066e-15 1.7909e-14 0
-3.74878e-15 1.89373e-14 0
-3.22134e-15 1.89773e-14 0
-3.85534e-15 2.00224e-14 0
-3.74878e-15 1.89373e-14 0
-4.4479e-15 2.00107e-14 0
-3.85534e-15 2.00224e-14 0
-4.51062e-15 2.10716e-14 0
-4.31428e-15 1.88639e-14 0
-5.11252e-15 1.98246e-14 0
-4.4479e-15 2.00107e-14 0
-5.13614e-15 2.09749e-14 0
-5.11252e-15 1.98246e-14 0
-5.92225e-15 2.07326e-14 0
-5.13614e-15 2.09749e-14 0
-5.84894e-15 2.18968e-14 0
-4.4479e-15 2.00107e-14 0
-5.13614e-15 2.09749e-14 0
-4.51062e-15 2.10716e-14 0
-5.09471e-15 2.20861e-14 0
-5.13614e-15 2.09749e-14 0
-5.84894e-15 2.18968e-14 0
-5.09471e-15 2.20861e-14 0
-5.6998e-15 2.305e-14 0
-3.22134e-15 1.89773e-14 0
-3.85534e-15 2.00224e-14 0
-3.43905e-15 2.0152e-14 0
-4.14108e-15 2.10509e-14 0
-3.85534e-15 2.00224e-14 0
-4.51062e-15 2.10716e-14 0
-4.14108e-15 2.10509e-14 0
-4.81125e-15 2.20436e-14 0
-3.43905e-15 2.0152e-14 0
-4.14108e-15 2.10509e-14 0
-4.1391e-15 2.15054e-14 0
-4.96896e-15 2.22306e-14 0
-4.14108e-15 2.10509e-14 0
-4.81125e-15 2.20436e-14 0
-4.96896e-15 2.22306e-14 0
-5.66476e-15 2.30279e-14 0
-4.51062e-15 2.10716e-14 0
-5.09471e-15 2.20861e-14 0
-4.81125e-15 2.20436e-14 0
-5.36643e-15 2.29847e-14 0
-5.09471e-15 2.20861e-14 0
-5.6998e-15 2.305e-14 0
-5.36643e-15 2.29847e-14 0
-5.86275e-15 2.38377e-14 0
-4.81125e-15 2.20436e-14 0
-5.36643e-15 2.29847e-14 0
-5.66476e-15 2.30279e-14 0
-6.15658e-15 2.37744e-14 0
-5.36643e-15 2.29847e-14 0
-5.86275e-15 2.38377e-14 0
-6.15658e-15 2.37744e-14 0
-6.54409e-15 2.45262e-14 0
-6.74368e-15 1.39128e-14 0
-8.09357e-15 1.44397e-14 0
-6.22816e-15 1.58658e-14 0
-7.47809e-15 1.66021e-14 0
-8.09357e-15 1.44397e-14 0
-9.51316e-15 1.5086e-14 0
-7.47809e-15 1.66021e-14 0
-8.67616e-15 1.72754e-14 0
-6.22816e-15 1.58658e-14 0
-7.47809e-15 1.66021e-14 0
-5.85451e-15 1.76894e-14 0