# vtk DataFile Version 3.0
#This file was generated by the deal.II library on 2018/10/11 at 23:43:18
ASCII
DATASET UNSTRUCTURED_GRID

POINTS 5120 double
0 0 0
0.392699 0 0
0 0.621297 0
0.392699 0.621297 0
0.392699 0 0
0.785398 0 0
0.392699 0.621297 0
0.785398 0.621297 0
0 0.621297 0
0.392699 0.621297 0
0 1.24655 0
0.392699 1.24655 0
0.392699 0.621297 0
0.785398 0.621297 0
0.392699 1.24655 0
0.785398 1.24655 0
0.785398 0 0
1.1781 0 0
0.785398 0.621297 0
1.1781 0.621297 0
1.1781 0 0
1.5708 0 0
1.1781 0.621297 0
1.5708 0.621297 0
0.785398 0.621297 0
1.1781 0.621297 0
0.785398 1.24655 0
1.1781 1.24655 0
1.1781 0.621297 0
1.5708 0.621297 0
1.1781 1.24655 0
1.5708 1.24655 0
0 1.24655 0
0.392699 1.24655 0
0 1.87162 0
0.392699 1.87162 0
0.392699 1.24655 0
0.785398 1.24655 0
0.392699 1.87162 0
0.785398 1.87162 0
0 1.87162 0
0.392699 1.87162 0
0 2.49682 0
0.392699 2.49682 0
0.392699 1.87162 0
0.785398 1.87162 0
0.392699 2.49682 0
0.785398 2.49682 0
0.785398 1.24655 0
1.1781 1.24655 0
0.785398 1.87162 0
1.1781 1.87162 0
1.1781 1.24655 0
1.5708 1.24655 0
1.1781 1.87162 0
1.5708 1.87162 0
0.785398 1.87162 0
1.1781 1.87162 0
0.785398 2.49682 0
1.1781 2.49682 0
1.1781 1.87162 0
1.5708 1.87162 0
1.1781 2.49682 0
1.5708 2.49682 0
1.5708 0 0
1.9635 0 0
1.5708 0.621297 0
1.9635 0.621297 0
1.9635 0 0
2.35619 0 0
1.9635 0.621297 0
2.35619 0.621297 0
1.5708 0.621297 0
1.9635 0.621297 0
1.5708 1.24655 0
1.9635 1.24655 0
1.9635 0.621297 0
2.35619 0.621297 0
1.9635 1.24655 0
2.35619 1.24655 0
2.35619 0 0
2.74889 0 0
2.35619 0.621297 0
2.74889 0.621297 0
2.74889 0 0
3.14159 0 0
2.74889 0.621297 0
3.14159 0.621297 0
2.35619 0.621297 0
2.74889 0.621297 0
2.35619 1.24655 0
2.74889 1.24655 0
2.74889 0.621297 0
3.14159 0.621297 0
2.74889 1.24655 0
3.14159 1.24655 0
1.5708 1.24655 0
1.9635 1.24655 0
1.5708 1.87162 0
1.9635 1.87162 0
1.9635 1.24655 0
2.35619 1.24655 0
1.9635 1.87162 0
2.35619 1.87162 0
1.5708 1.87162 0
1.9635 1.87162 0
1.5708 2.49682 0
1.9635 2.49682 0
1.9635 1.87162 0
2.35619 1.87162 0
1.9635 2.49682 0
2.35619 2.49682 0
2.35619 1.24655 0
2.74889 1.24655 0
2.35619 1.87162 0
2.74889 1.87162 0
2.74889 1.24655 0
3.14159 1.24655 0
2.74889 1.87162 0
3.14159 1.87162 0
2.35619 1.87162 0
2.74889 1.87162 0
2.35619 2.49682 0
2.74889 2.49682 0
2.74889 1.87162 0
3.14159 1.87162 0
2.74889 2.49682 0
3.14159 2.49682 0
0 2.49682 0
0.392699 2.49682 0
0 3.12199 0
0.392699 3.12199 0
0.392699 2.49682 0
0.785398 2.49682 0
0.392699 3.12199 0
0.785398 3.12199 0
0 3.12199 0
0.392699 3.12199 0
0 3.74715 0
0.392699 3.74715 0
0.392699 3.12199 0
0.785398 3.12199 0
0.392699 3.74715 0
0.785398 3.74715 0
0.785398 2.49682 0
1.1781 2.49682 0
0.785398 3.12199 0
1.1781 3.12199 0
1.1781 2.49682 0
1.5708 2.49682 0
1.1781 3.12199 0
1.5708 3.12199 0
0.785398 3.12199 0
1.1781 3.12199 0
0.785398 3.74715 0
1.1781 3.74715 0
1.1781 3.12199 0
1.5708 3.12199 0
1.1781 3.74715 0
1.5708 3.74715 0
0 3.74715 0
0.392699 3.74715 0
0 4.3723 0
0.392699 4.3723 0
0.392699 3.74715 0
0.785398 3.74715 0
0.392699 4.3723 0
0.785398 4.3723 0
0 4.3723 0
0.392699 4.3723 0
0 4.99744 0
0.392699 4.99744 0
0.392699 4.3723 0
0.785398 4.3723 0
0.392699 4.99744 0
0.785398 4.99744 0
0.785398 3.74715 0
1.1781 3.74715 0
0.785398 4.3723 0
1.1781 4.3723 0
1.1781 3.74715 0
1.5708 3.74715 0
1.1781 4.3723 0
1.5708 4.3723 0
0.785398 4.3723 0
1.1781 4.3723 0
0.785398 4.99744 0
1.1781 4.99744 0
1.1781 4.3723 0
1.5708 4.3723 0
1.1781 4.99744 0
1.5708 4.99744 0
1.5708 2.49682 0
1.9635 2.49682 0
1.5708 3.12199 0
1.9635 3.12199 0
1.9635 2.49682 0
2.35619 2.49682 0
1.9635 3.12199 0
2.35619 3.12199 0
1.5708 3.12199 0
1.9635 3.12199 0
1.5708 3.74715 0
1.9635 3.74715 0
1.9635 3.12199 0
2.35619 3.12199 0
1.9635 3.74715 0
2.35619 3.74715 0
2.35619 2.49682 0
2.74889 2.49682 0
2.35619 3.12199 0
2.74889 3.12199 0
2.74889 2.49682 0
3.14159 2.49682 0
2.74889 3.12199 0
3.14159 3.12199 0
2.35619 3.12199 0
2.74889 3.12199 0
2.35619 3.74715 0
2.74889 3.74715 0
2.74889 3.12199 0
3.14159 3.12199 0
2.74889 3.74715 0
3.14159 3.74715 0
1.5708 3.74715 0
1.9635 3.74715 0
1.5708 4.3723 0
1.9635 4.3723 0
1.9635 3.74715 0
2.35619 3.74715 0
1.9635 4.3723 0
2.35619 4.3723 0
1.5708 4.3723 0
1.9635 4.3723 0
1.5708 4.99744 0
1.9635 4.99744 0
1.9635 4.3723 0
2.35619 4.3723 0
1.9635 4.99744 0
2.35619 4.99744 0
2.35619 3.74715 0
2.74889 3.74715 0
2.35619 4.3723 0
2.74889 4.3723 0
2.74889 3.74715 0
3.14159 3.74715 0
2.74889 4.3723 0
3.14159 4.3723 0
2.35619 4.3723 0
2.74889 4.3723 0
2.35619 4.99744 0
2.74889 4.99744 0
2.74889 4.3723 0
3.14159 4.3723 0
2.74889 4.99744 0
3.14159 4.99744 0
3.14159 0 0
3.53429 0 0
3.14159 0.621297 0
3.53429 0.621297 0
3.53429 0 0
3.92699 0 0
3.53429 0.621297 0
3.92699 0.621297 0
3.14159 0.621297 0
3.53429 0.621297 0
3.14159 1.24655 0
3.53429 1.24655 0
3.53429 0.621297 0
3.92699 0.621297 0
3.53429 1.24655 0
3.92699 1.24655 0
3.92699 0 0
4.31969 0 0
3.92699 0.621297 0
4.31969 0.621297 0
4.31969 0 0
4.71239 0 0
4.31969 0.621297 0
4.71239 0.621297 0
3.92699 0.621297 0
4.31969 0.621297 0
3.92699 1.24655 0
4.31969 1.24655 0
4.31969 0.621297 0
4.71239 0.621297 0
4.31969 1.24655 0
4.71239 1.24655 0
3.14159 1.24655 0
3.53429 1.24655 0
3.14159 1.87162 0
3.53429 1.87162 0
3.53429 1.24655 0
3.92699 1.24655 0
3.53429 1.87162 0
3.92699 1.87162 0
3.14159 1.87162 0
3.53429 1.87162 0
3.14159 2.49682 0
3.53429 2.49682 0
3.53429 1.87162 0
3.92699 1.87162 0
3.53429 2.49682 0
3.92699 2.49682 0
3.92699 1.24655 0
4.31969 1.24655 0
3.92699 1.87162 0
4.31969 1.87162 0
4.31969 1.24655 0
4.71239 1.24655 0
4.31969 1.87162 0
4.71239 1.87162 0
3.92699 1.87162 0
4.31969 1.87162 0
3.92699 2.49682 0
4.31969 2.49682 0
4.31969 1.87162 0
4.71239 1.87162 0
4.31969 2.49682 0
4.71239 2.49682 0
4.71239 0 0
5.10509 0 0
4.71239 0.621297 0
5.10509 0.621297 0
5.10509 0 0
5.49779 0 0
5.10509 0.621297 0
5.49779 0.621297 0
4.71239 0.621297 0
5.10509 0.621297 0
4.71239 1.24655 0
5.10509 1.24655 0
5.10509 0.621297 0
5.49779 0.621297 0
5.10509 1.24655 0
5.49779 1.24655 0
5.49779 0 0
5.89049 0 0
5.49779 0.621297 0
5.89049 0.621297 0
5.89049 0 0
6.28319 0 0
5.89049 0.621297 0
6.28319 0.621297 0
5.49779 0.621297 0
5.89049 0.621297 0
5.49779 1.24655 0
5.89049 1.24655 0
5.89049 0.621297 0
6.28319 0.621297 0
5.89049 1.24655 0
6.28319 1.24655 0
4.71239 1.24655 0
5.10509 1.24655 0
4.71239 1.87162 0
5.10509 1.87162 0
5.10509 1.24655 0
5.49779 1.24655 0
5.10509 1.87162 0
5.49779 1.87162 0
4.71239 1.87162 0
5.10509 1.87162 0
4.71239 2.49682 0
5.10509 2.49682 0
5.10509 1.87162 0
5.49779 1.87162 0
5.10509 2.49682 0
5.49779 2.49682 0
5.49779 1.24655 0
5.89049 1.24655 0
5.49779 1.87162 0
5.89049 1.87162 0
5.89049 1.24655 0
6.28319 1.24655 0
5.89049 1.87162 0
6.28319 1.87162 0
5.49779 1.87162 0
5.89049 1.87162 0
5.49779 2.49682 0
5.89049 2.49682 0
5.89049 1.87162 0
6.28319 1.87162 0
5.89049 2.49682 0
6.28319 2.49682 0
3.14159 2.49682 0
3.53429 2.49682 0
3.14159 3.12199 0
3.53429 3.12199 0
3.53429 2.49682 0
3.92699 2.49682 0
3.53429 3.12199 0
3.92699 3.12199 0
3.14159 3.12199 0
3.53429 3.12199 0
3.14159 3.74715 0
3.53429 3.74715 0
3.53429 3.12199 0
3.92699 3.12199 0
3.53429 3.74715 0
3.92699 3.74715 0
3.92699 2.49682 0
4.31969 2.49682 0
3.92699 3.12199 0
4.31969 3.12199 0
4.31969 2.49682 0
4.71239 2.49682 0
4.31969 3.12199 0
4.71239 3.12199 0
3.92699 3.12199 0
4.31969 3.12199 0
3.92699 3.74715 0
4.31969 3.74715 0
4.31969 3.12199 0
4.71239 3.12199 0
4.31969 3.74715 0
4.71239 3.74715 0
3.14159 3.74715 0
3.53429 3.74715 0
3.14159 4.3723 0
3.53429 4.3723 0
3.53429 3.74715 0
3.92699 3.74715 0
3.53429 4.3723 0
3.92699 4.3723 0
3.14159 4.3723 0
3.53429 4.3723 0
3.14159 4.99744 0
3.53429 4.99744 0
3.53429 4.3723 0
3.92699 4.3723 0
3.53429 4.99744 0
3.92699 4.99744 0
3.92699 3.74715 0
4.31969 3.74715 0
3.92699 4.3723 0
4.31969 4.3723 0
4.31969 3.74715 0
4.71239 3.74715 0
4.31969 4.3723 0
4.71239 4.3723 0
3.92699 4.3723 0
4.31969 4.3723 0
3.92699 4.99744 0
4.31969 4.99744 0
4.31969 4.3723 0
4.71239 4.3723 0
4.31969 4.99744 0
4.71239 4.99744 0
4.71239 2.49682 0
5.10509 2.49682 0
4.71239 3.12199 0
5.10509 3.12199 0
5.10509 2.49682 0
5.49779 2.49682 0
5.10509 3.12199 0
5.49779 3.12199 0
4.71239 3.12199 0
5.10509 3.12199 0
4.71239 3.74715 0
5.10509 3.74715 0
5.10509 3.12199 0
5.49779 3.12199 0
5.10509 3.74715 0
5.49779 3.74715 0
5.49779 2.49682 0
5.89049 2.49682 0
5.49779 3.12199 0
5.89049 3.12199 0
5.89049 2.49682 0
6.28319 2.49682 0
5.89049 3.12199 0
6.28319 3.12199 0
5.49779 3.12199 0
5.89049 3.12199 0
5.49779 3.74715 0
5.89049 3.74715 0
5.89049 3.12199 0
6.28319 3.12199 0
5.89049 3.74715 0
6.28319 3.74715 0
4.71239 3.74715 0
5.10509 3.74715 0
4.71239 4.3723 0
5.10509 4.3723 0
5.10509 3.74715 0
5.49779 3.74715 0
5.10509 4.3723 0
5.49779 4.3723 0
4.71239 4.3723 0
5.10509 4.3723 0
4.71239 4.99744 0
5.10509 4.99744 0
5.10509 4.3723 0
5.49779 4.3723 0
5.10509 4.99744 0
5.49779 4.99744 0
5.49779 3.74715 0
5.89049 3.74715 0
5.49779 4.3723 0
5.89049 4.3723 0
5.89049 3.74715 0
6.28319 3.74715 0
5.89049 4.3723 0
6.28319 4.3723 0
5.49779 4.3723 0
5.89049 4.3723 0
5.49779 4.99744 0
5.89049 4.99744 0
5.89049 4.3723 0
6.28319 4.3723 0
5.89049 4.99744 0
6.28319 4.99744 0
0 4.99744 0
0.392699 4.99744 0
0 5.62257 0
0.392699 5.62257 0
0.392699 4.99744 0
0.785398 4.99744 0
0.392699 5.62257 0
0.785398 5.62257 0
0 5.62257 0
0.392699 5.62257 0
0 6.24768 0
0.392699 6.24768 0
0.392699 5.62257 0
0.785398 5.62257 0
0.392699 6.24768 0
0.785398 6.24768 0
0.785398 4.99744 0
1.1781 4.99744 0
0.785398 5.62257 0
1.1781 5.62257 0
1.1781 4.99744 0
1.5708 4.99744 0
1.1781 5.62257 0
1.5708 5.62257 0
0.785398 5.62257 0
1.1781 5.62257 0
0.785398 6.24768 0
1.1781 6.24768 0
1.1781 5.62257 0
1.5708 5.62257 0
1.1781 6.24768 0
1.5708 6.24768 0
0 6.24768 0
0.392699 6.24768 0
0 6.87278 0
0.392699 6.87278 0
0.392699 6.24768 0
0.785398 6.24768 0
0.392699 6.87278 0
0.785398 6.87278 0
0 6.87278 0
0.392699 6.87278 0
0 7.49787 0
0.392699 7.49787 0
0.392699 6.87278 0
0.785398 6.87278 0
0.392699 7.49787 0
0.785398 7.49787 0
0.785398 6.24768 0
1.1781 6.24768 0
0.785398 6.87278 0
1.1781 6.87278 0
1.1781 6.24768 0
1.5708 6.24768 0
[...]
POINT_DATA 5120
VECTORS uf double
0 1 0
-1.13313e-14 1 0
0 1.00179 0
-5.71653e-15 1.00179 0
-1.13313e-14 1 0
-1.05061e-14 1 0
-5.71653e-15 1.00179 0
1.82831e-14 1.00179 0
0 1.00179 0
-5.13759e-16 1.00179 0
0 1.00272 0
1.61975e-14 1.00272 0
-5.13759e-16 1.00179 0
-7.92644e-15 1.00179 0
1.61975e-14 1.00272 0
-1.24774e-16 1.00272 0
-1.05061e-14 1 0
-9.92501e-15 1 0
1.82831e-14 1.00179 0
2.75612e-14 1.00179 0
-9.92501e-15 1 0
-2.17722e-14 1 0
2.75612e-14 1.00179 0
3.03707e-14 1.00179 0
-7.92644e-15 1.00179 0
-2.91677e-14 1.00179 0
-1.24774e-16 1.00272 0
1.65395e-14 1.00272 0
-2.91677e-14 1.00179 0
-2.27673e-14 1.00179 0
1.65395e-14 1.00272 0
2.17415e-14 1.00272 0
0 1.00272 0
-8.59705e-16 1.00272 0
0 1.00385 0
-4.38245e-15 1.00385 0
-8.59705e-16 1.00272 0
-8.31779e-15 1.00272 0
-4.38245e-15 1.00385 0
5.06916e-15 1.00385 0
0 1.00385 0
3.94258e-15 1.00385 0
0 1.00491 0
-7.94206e-15 1.00491 0
3.94258e-15 1.00385 0
-1.01443e-14 1.00385 0
-7.94206e-15 1.00491 0
2.08592e-14 1.00491 0
-8.31779e-15 1.00272 0
-2.13286e-14 1.00272 0
5.06916e-15 1.00385 0
1.71663e-14 1.00385 0
-2.13286e-14 1.00272 0
-2.45833e-14 1.00272 0
1.71663e-14 1.00385 0
2.4074e-14 1.00385 0
-1.01443e-14 1.00385 0
-2.73384e-15 1.00385 0
2.08592e-14 1.00491 0
4.92768e-15 1.00491 0
-2.73384e-15 1.00385 0
-1.96298e-14 1.00385 0
4.92768e-15 1.00491 0
8.7411e-15 1.00491 0
-2.17722e-14 1 0
-1.1329e-14 1 0
3.03707e-14 1.00179 0
1.52589e-14 1.00179 0
-1.1329e-14 1 0
-1.49715e-14 1 0
1.52589e-14 1.00179 0
1.57501e-14 1.00179 0
-2.27673e-14 1.00179 0
-1.61669e-14 1.00179 0
2.17415e-14 1.00272 0
1.97275e-14 1.00272 0
-1.61669e-14 1.00179 0
-1.28334e-14 1.00179 0
1.97275e-14 1.00272 0
1.02861e-14 1.00272 0
-1.49715e-14 1 0
-1.52874e-14 1 0
1.57501e-14 1.00179 0
2.01327e-14 1.00179 0
-1.52874e-14 1 0
-8.9256e-15 1 0
2.01327e-14 1.00179 0
8.96625e-15 1.00179 0
-1.28334e-14 1.00179 0
-2.42289e-14 1.00179 0
1.02861e-14 1.00272 0
2.49888e-14 1.00272 0
-2.42289e-14 1.00179 0
-1.24649e-14 1.00179 0
2.49888e-14 1.00272 0
2.11012e-14 1.00272 0
-2.45833e-14 1.00272 0
-1.84696e-14 1.00272 0
2.4074e-14 1.00385 0
2.16216e-14 1.00385 0
-1.84696e-14 1.00272 0
1.33079e-15 1.00272 0
2.16216e-14 1.00385 0
7.53334e-15 1.00385 0
-1.96298e-14 1.00385 0
-2.04681e-14 1.00385 0
8.7411e-15 1.00491 0
1.35295e-14 1.00491 0
-2.04681e-14 1.00385 0
-1.03842e-14 1.00385 0
1.35295e-14 1.00491 0
1.49945e-14 1.00491 0
1.33079e-15 1.00272 0
-1.56839e-14 1.00272 0
7.53334e-15 1.00385 0
1.8776e-14 1.00385 0
-1.56839e-14 1.00272 0
-1.45272e-14 1.00272 0
1.8776e-14 1.00385 0
1.99453e-14 1.00385 0
-1.03842e-14 1.00385 0
-1.14672e-14 1.00385 0
1.49945e-14 1.00491 0
1.21159e-14 1.00491 0
-1.14672e-14 1.00385 0
-1.03832e-14 1.00385 0
1.21159e-14 1.00491 0
8.87978e-15 1.00491 0
0 1.00491 0
5.07547e-15 1.00491 0
0 1.00597 0
7.25587e-15 1.00597 0
5.07547e-15 1.00491 0
-1.43655e-14 1.00491 0
7.25587e-15 1.00597 0
-4.25166e-16 1.00597 0
0 1.00597 0
-9.1065e-15 1.00597 0
0 1.00702 0
3.89154e-15 1.00702 0
-9.1065e-15 1.00597 0
-1.44332e-15 1.00597 0
3.89154e-15 1.00702 0
1.89737e-14 1.00702 0
-1.43655e-14 1.00491 0
-1.71321e-14 1.00491 0
-4.25166e-16 1.00597 0
1.55233e-14 1.00597 0
-1.71321e-14 1.00491 0
-3.70074e-15 1.00491 0
1.55233e-14 1.00597 0
1.5285e-14 1.00597 0
-1.44332e-15 1.00597 0
-1.56088e-14 1.00597 0
1.89737e-14 1.00702 0
2.54866e-14 1.00702 0
-1.56088e-14 1.00597 0
-1.92891e-14 1.00597 0
2.54866e-14 1.00702 0
1.00693e-14 1.00702 0
0 1.00702 0
3.5418e-15 1.00702 0
0 1.00805 0
7.78994e-15 1.00805 0
3.5418e-15 1.00702 0
-1.4707e-14 1.00702 0
7.78994e-15 1.00805 0
-3.45317e-15 1.00805 0
0 1.00805 0
-3.61149e-15 1.00805 0
0 1.00907 0
1.2722e-15 1.00907 0
-3.61149e-15 1.00805 0
4.14914e-15 1.00805 0
1.2722e-15 1.00907 0
1.53023e-14 1.00907 0
-1.4707e-14 1.00702 0
-2.07539e-14 1.00702 0
-3.45317e-15 1.00805 0
4.83526e-15 1.00805 0
-2.07539e-14 1.00702 0
-9.12013e-15 1.00702 0
4.83526e-15 1.00805 0
2.01567e-14 1.00805 0
4.14914e-15 1.00805 0
3.07321e-15 1.00805 0
1.53023e-14 1.00907 0
4.2744e-15 1.00907 0
3.07321e-15 1.00805 0
-8.75211e-15 1.00805 0
4.2744e-15 1.00907 0
-3.76713e-15 1.00907 0
-3.70074e-15 1.00491 0
-1.57464e-14 1.00491 0
1.5285e-14 1.00597 0
1.87758e-14 1.00597 0
-1.57464e-14 1.00491 0
-1.95399e-14 1.00491 0
1.87758e-14 1.00597 0
2.18123e-14 1.00597 0
-1.92891e-14 1.00597 0
-1.71391e-14 1.00597 0
1.00693e-14 1.00702 0
1.22757e-14 1.00702 0
-1.71391e-14 1.00597 0
-1.38167e-14 1.00597 0
1.22757e-14 1.00702 0
1.30408e-14 1.00702 0
-1.95399e-14 1.00491 0
-1.40928e-14 1.00491 0
2.18123e-14 1.00597 0
1.84102e-14 1.00597 0
-1.40928e-14 1.00491 0
-1.61273e-14 1.00491 0
1.84102e-14 1.00597 0
2.29356e-14 1.00597 0
-1.38167e-14 1.00597 0
-1.15445e-14 1.00597 0
1.30408e-14 1.00702 0
8.81098e-15 1.00702 0
-1.15445e-14 1.00597 0
-2.24551e-14 1.00597 0
8.81098e-15 1.00702 0
2.06383e-14 1.00702 0
-9.12013e-15 1.00702 0
-5.68051e-15 1.00702 0
2.01567e-14 1.00805 0
1.63294e-14 1.00805 0
-5.68051e-15 1.00702 0
-2.11177e-14 1.00702 0
1.63294e-14 1.00805 0
2.35174e-14 1.00805 0
-8.75211e-15 1.00805 0
-1.53776e-14 1.00805 0
-3.76713e-15 1.00907 0
5.3642e-15 1.00907 0
-1.53776e-14 1.00805 0
-1.93352e-14 1.00805 0
5.3642e-15 1.00907 0
1.67129e-14 1.00907 0
-2.11177e-14 1.00702 0
-9.87011e-15 1.00702 0
2.35174e-14 1.00805 0
1.22605e-14 1.00805 0
-9.87011e-15 1.00702 0
-2.02204e-14 1.00702 0
1.22605e-14 1.00805 0
1.90668e-14 1.00805 0
-1.93352e-14 1.00805 0
-1.13827e-14 1.00805 0
1.67129e-14 1.00907 0
8.24871e-15 1.00907 0
-1.13827e-14 1.00805 0
-2.04559e-14 1.00805 0
8.24871e-15 1.00907 0
1.92126e-14 1.00907 0
-8.9256e-15 1 0
-2.21813e-14 1 0
8.96625e-15 1.00179 0
2.79509e-14 1.00179 0
-2.21813e-14 1 0
-1.13781e-14 1 0
2.79509e-14 1.00179 0
1.7901e-14 1.00179 0
-1.24649e-14 1.00179 0
-1.05177e-14 1.00179 0
2.11012e-14 1.00272 0
1.57221e-14 1.00272 0
-1.05177e-14 1.00179 0
-6.52163e-15 1.00179 0
1.57221e-14 1.00272 0
6.85692e-15 1.00272 0
-1.13781e-14 1 0
-1.10213e-14 1 0
1.7901e-14 1.00179 0
1.59326e-14 1.00179 0
-1.10213e-14 1 0
-2.10025e-14 1 0
1.59326e-14 1.00179 0
2.94985e-14 1.00179 0
-6.52163e-15 1.00179 0
-1.6704e-14 1.00179 0
6.85692e-15 1.00272 0
2.34925e-14 1.00272 0
-1.6704e-14 1.00179 0
-1.80813e-14 1.00179 0
2.34925e-14 1.00272 0
1.96963e-14 1.00272 0
-1.45272e-14 1.00272 0
-1.34841e-14 1.00272 0
1.99453e-14 1.00385 0
1.65341e-14 1.00385 0
-1.34841e-14 1.00272 0
-8.3986e-16 1.00272 0
1.65341e-14 1.00385 0
4.24058e-15 1.00385 0
-1.03832e-14 1.00385 0
-1.62513e-14 1.00385 0
8.87978e-15 1.00491 0
2.51862e-14 1.00491 0
-1.62513e-14 1.00385 0
-3.14693e-15 1.00385 0
2.51862e-14 1.00491 0
1.41623e-14 1.00491 0
-8.3986e-16 1.00272 0
-1.5633e-14 1.00272 0
4.24058e-15 1.00385 0
1.79969e-14 1.00385 0
-1.5633e-14 1.00272 0
-9.7433e-15 1.00272 0
1.79969e-14 1.00385 0
1.68067e-14 1.00385 0
-3.14693e-15 1.00385 0
-1.23847e-14 1.00385 0
1.41623e-14 1.00491 0
1.67364e-14 1.00491 0
-1.23847e-14 1.00385 0
-1.51955e-14 1.00385 0
1.67364e-14 1.00491 0
2.08801e-14 1.00491 0
-2.10025e-14 1 0
-1.65042e-14 1 0
2.94985e-14 1.00179 0
2.96551e-14 1.00179 0
-1.65042e-14 1 0
-1.89145e-14 1 0
2.96551e-14 1.00179 0
3.22108e-14 1.00179 0
-1.80813e-14 1.00179 0
-2.49928e-14 1.00179 0
1.96963e-14 1.00272 0
2.14896e-14 1.00272 0
-2.49928e-14 1.00179 0
-2.87705e-14 1.00179 0
2.14896e-14 1.00272 0
2.45913e-14 1.00272 0
-1.89145e-14 1 0
-1.08824e-14 1 0
3.22108e-14 1.00179 0
1.67694e-14 1.00179 0
-1.08824e-14 1 0
-1.73808e-14 1 0
1.67694e-14 1.00179 0
2.53576e-14 1.00179 0
-2.87705e-14 1.00179 0
-1.39922e-14 1.00179 0
2.45913e-14 1.00272 0
1.15764e-14 1.00272 0
-1.39922e-14 1.00179 0
-8.6548e-15 1.00179 0
1.15764e-14 1.00272 0
7.72439e-15 1.00272 0
-9.7433e-15 1.00272 0
-8.3527e-15 1.00272 0
1.68067e-14 1.00385 0
1.51901e-14 1.00385 0
-8.3527e-15 1.00272 0
-7.64877e-15 1.00272 0
1.51901e-14 1.00385 0
1.22751e-14 1.00385 0
-1.51955e-14 1.00385 0
-1.23015e-14 1.00385 0
2.08801e-14 1.00491 0
1.85435e-14 1.00491 0
-1.23015e-14 1.00385 0
-1.0234e-14 1.00385 0
1.85435e-14 1.00491 0
9.94937e-15 1.00491 0
-7.64877e-15 1.00272 0
-1.29708e-14 1.00272 0
1.22751e-14 1.00385 0
2.36822e-14 1.00385 0
-1.29708e-14 1.00272 0
-1.24849e-14 1.00272 0
2.36822e-14 1.00385 0
1.657e-14 1.00385 0
-1.0234e-14 1.00385 0
-1.32806e-14 1.00385 0
9.94937e-15 1.00491 0
1.65375e-14 1.00491 0
-1.32806e-14 1.00385 0
-6.21714e-15 1.00385 0
1.65375e-14 1.00491 0
1.37228e-14 1.00491 0
-1.61273e-14 1.00491 0
-2.93478e-14 1.00491 0
2.29356e-14 1.00597 0
2.7934e-14 1.00597 0
-2.93478e-14 1.00491 0
-1.63685e-14 1.00491 0
2.7934e-14 1.00597 0
1.59569e-14 1.00597 0
-2.24551e-14 1.00597 0
-1.67089e-14 1.00597 0
2.06383e-14 1.00702 0
1.50095e-14 1.00702 0
-1.67089e-14 1.00597 0
-1.2027e-14 1.00597 0
1.50095e-14 1.00702 0
1.11221e-14 1.00702 0
-1.63685e-14 1.00491 0
-1.21734e-14 1.00491 0
1.59569e-14 1.00597 0
1.75847e-14 1.00597 0
-1.21734e-14 1.00491 0
-1.83186e-14 1.00491 0
1.75847e-14 1.00597 0
2.06392e-14 1.00597 0
-1.2027e-14 1.00597 0
-1.74256e-14 1.00597 0
1.11221e-14 1.00702 0
1.44443e-14 1.00702 0
-1.74256e-14 1.00597 0
-1.34679e-14 1.00597 0
1.44443e-14 1.00702 0
9.00488e-15 1.00702 0
-2.02204e-14 1.00702 0
-1.42269e-14 1.00702 0
1.90668e-14 1.00805 0
1.13797e-14 1.00805 0
-1.42269e-14 1.00702 0
-1.23632e-14 1.00702 0
1.13797e-14 1.00805 0
1.12333e-14 1.00805 0
-2.04559e-14 1.00805 0
-1.15405e-14 1.00805 0
1.92126e-14 1.00907 0
1.43715e-14 1.00907 0
-1.15405e-14 1.00805 0
-1.56606e-14 1.00805 0
1.43715e-14 1.00907 0
1.35563e-14 1.00907 0
-1.23632e-14 1.00702 0
-1.64532e-14 1.00702 0
1.12333e-14 1.00805 0
1.37957e-14 1.00805 0
-1.64532e-14 1.00702 0
-9.71765e-15 1.00702 0
1.37957e-14 1.00805 0
1.01905e-14 1.00805 0
-1.56606e-14 1.00805 0
-1.5204e-14 1.00805 0
1.35563e-14 1.00907 0
1.66494e-14 1.00907 0
-1.5204e-14 1.00805 0
-5.66223e-15 1.00805 0
1.66494e-14 1.00907 0
6.19833e-15 1.00907 0
-1.83186e-14 1.00491 0
-1.3183e-14 1.00491 0
2.06392e-14 1.00597 0
1.59839e-14 1.00597 0
-1.3183e-14 1.00491 0
-2.01563e-15 1.00491 0
1.59839e-14 1.00597 0
1.29358e-14 1.00597 0
-1.34679e-14 1.00597 0
-1.03248e-14 1.00597 0
9.00488e-15 1.00702 0
6.32961e-15 1.00702 0
-1.03248e-14 1.00597 0
-1.16353e-14 1.00597 0
6.32961e-15 1.00702 0
1.16117e-14 1.00702 0
-2.01563e-15 1.00491 0
-3.05234e-15 1.00491 0
1.29358e-14 1.00597 0
8.42399e-15 1.00597 0
-3.05234e-15 1.00491 0
-5.72635e-15 1.00491 0
8.42399e-15 1.00597 0
1.33741e-14 1.00597 0
-1.16353e-14 1.00597 0
-8.09729e-15 1.00597 0
1.16117e-14 1.00702 0
1.38876e-14 1.00702 0
-8.09729e-15 1.00597 0
-1.67766e-14 1.00597 0
1.38876e-14 1.00702 0
1.86711e-14 1.00702 0
-9.71765e-15 1.00702 0
-7.38859e-15 1.00702 0
1.01905e-14 1.00805 0
8.34049e-15 1.00805 0
-7.38859e-15 1.00702 0
-1.39206e-14 1.00702 0
8.34049e-15 1.00805 0
1.08732e-14 1.00805 0
-5.66223e-15 1.00805 0
-1.06091e-14 1.00805 0
6.19833e-15 1.00907 0
8.822e-15 1.00907 0
-1.06091e-14 1.00805 0
-1.2665e-14 1.00805 0
8.822e-15 1.00907 0
1.26226e-14 1.00907 0
-1.39206e-14 1.00702 0
-1.08945e-14 1.00702 0
1.08732e-14 1.00805 0
1.10418e-14 1.00805 0
-1.08945e-14 1.00702 0
-1.0261e-14 1.00702 0
1.10418e-14 1.00805 0
7.52185e-15 1.00805 0
-1.2665e-14 1.00805 0
-1.15991e-14 1.00805 0
1.26226e-14 1.00907 0
9.11067e-15 1.00907 0
-1.15991e-14 1.00805 0
-2.91445e-15 1.00805 0
9.11067e-15 1.00907 0
6.1033e-15 1.00907 0
0 1.00907 0
-9.72143e-15 1.00907 0
0 1.0101 0
1.0267e-15 1.0101 0
-9.72143e-15 1.00907 0
-1.57704e-14 1.00907 0
1.0267e-15 1.0101 0
1.84045e-15 1.0101 0
0 1.0101 0
-2.1805e-15 1.0101 0
0 1.01112 0
4.1305e-15 1.01112 0
-2.1805e-15 1.0101 0
-4.15897e-15 1.0101 0
4.1305e-15 1.01112 0
1.0241e-14 1.01112 0
-1.57704e-14 1.00907 0
-3.04699e-15 1.00907 0
1.84045e-15 1.0101 0
1.71581e-15 1.0101 0
-3.04699e-15 1.00907 0
6.837e-16 1.00907 0
1.71581e-15 1.0101 0
6.13048e-15 1.0101 0
-4.15897e-15 1.0101 0
-1.33372e-14 1.0101 0
1.0241e-14 1.01112 0
1.18935e-14 1.01112 0
-1.33372e-14 1.0101 0
-7.18352e-15 1.0101 0
1.18935e-14 1.01112 0
1.15944e-14 1.01112 0
0 1.01112 0
-2.37745e-15 1.01112 0
0 1.01217 0
2.77266e-15 1.01217 0
-2.37745e-15 1.01112 0
-4.17547e-15 1.01112 0
2.77266e-15 1.01217 0
6.17333e-15 1.01217 0
0 1.01217 0
-1.88057e-15 1.01217 0
0 1.01324 0
2.01631e-15 1.01324 0
-1.88057e-15 1.01217 0
-2.58507e-15 1.01217 0
2.01631e-15 1.01324 0
1.91952e-15 1.01324 0
-4.17547e-15 1.01112 0
-7.48245e-15 1.01112 0
6.17333e-15 1.01217 0
9.53322e-15 1.01217 0
-7.48245e-15 1.01112 0
-9.21018e-15 1.01112 0
9.53322e-15 1.01217 0
7.31503e-15 1.01217 0
-2.58507e-15 1.01217 0
-8.24213e-15 1.01217 0
1.91952e-15 1.01324 0
6.81988e-15 1.01324 0
-8.24213e-15 1.01217 0
-7.58223e-15 1.01217 0
6.81988e-15 1.01324 0
8.07089e-15 1.01324 0
6.837e-16 1.00907 0
-1.36532e-14 1.00907 0
6.13048e-15 1.0101 0
1.04064e-14 1.0101 0
-1.36532e-14 1.00907 0
-1.40476e-14 1.00907 0
1.04064e-14 1.0101 0
1.37861e-14 1.0101 0
-7.18352e-15 1.0101 0
-9.39947e-15 1.0101 0
1.15944e-14 1.01112 0
1.49836e-14 1.01112 0
-9.39947e-15 1.0101 0
-1.18555e-14 1.0101 0
1.49836e-14 1.01112 0
1.09229e-14 1.01112 0
-1.40476e-14 1.00907 0
-1.22572e-14 1.00907 0
1.37861e-14 1.0101 0
1.49086e-14 1.0101 0
-1.22572e-14 1.00907 0
-1.42295e-14 1.00907 0
1.49086e-14 1.0101 0
1.18798e-14 1.0101 0
-1.18555e-14 1.0101 0
-1.35407e-14 1.0101 0
1.09229e-14 1.01112 0
1.23786e-14 1.01112 0
-1.35407e-14 1.0101 0
-1.48097e-14 1.0101 0
1.23786e-14 1.01112 0
1.67536e-14 1.01112 0
-9.21018e-15 1.01112 0
-1.20034e-14 1.01112 0
7.31503e-15 1.01217 0
1.30339e-14 1.01217 0
-1.20034e-14 1.01112 0
-1.22232e-14 1.01112 0
1.30339e-14 1.01217 0
1.28589e-14 1.01217 0
-7.58223e-15 1.01217 0
-1.30219e-14 1.01217 0
8.07089e-15 1.01324 0
1.37623e-14 1.01324 0
-1.30219e-14 1.01217 0
-1.33414e-14 1.01217 0
1.37623e-14 1.01324 0
1.45745e-14 1.01324 0
-1.22232e-14 1.01112 0
-1.10376e-14 1.01112 0
1.28589e-14 1.01217 0
1.67544e-14 1.01217 0
-1.10376e-14 1.01112 0
-1.68059e-14 1.01112 0
1.67544e-14 1.01217 0
1.93164e-14 1.01217 0
-1.33414e-14 1.01217 0
-1.69766e-14 1.01217 0
1.45745e-14 1.01324 0
1.49843e-14 1.01324 0
-1.69766e-14 1.01217 0
-1.76878e-14 1.01217 0
1.49843e-14 1.01324 0
1.48944e-14 1.01324 0
0 1.01324 0
1.42983e-15 1.01324 0
0 1.01433 0
3.99418e-15 1.01433 0
1.42983e-15 1.01324 0
-9.44417e-16 1.01324 0
3.99418e-15 1.01433 0
3.40191e-15 1.01433 0
0 1.01433 0
-3.29142e-15 1.01433 0
0 1.0154 0
-2.09411e-15 1.0154 0
-3.29142e-15 1.01433 0
-3.36712e-15 1.01433 0
-2.09411e-15 1.0154 0
1.64303e-15 1.0154 0
-9.44417e-16 1.01324 0
-7.79299e-15 1.01324 0
3.40191e-15 1.01433 0
7.15135e-15 1.01433 0
-7.79299e-15 1.01324 0
-9.37909e-15 1.01324 0
7.15135e-15 1.01433 0
7.55856e-15 1.01433 0
-3.36712e-15 1.01433 0
-4.4533e-15 1.01433 0
1.64303e-15 1.0154 0
5.40301e-15 1.0154 0
-4.4533e-15 1.01433 0
-4.07171e-15 1.01433 0
5.40301e-15 1.0154 0
2.17276e-15 1.0154 0
0 1.0154 0
1.25561e-17 1.0154 0
0 1.01631 0
1.71108e-15 1.01631 0
1.25561e-17 1.0154 0
-3.99659e-15 1.0154 0
1.71108e-15 1.01631 0
3.45825e-17 1.01631 0
0 1.01631 0
-1.01132e-15 1.01631 0
0 1.01658 0
4.1421e-15 1.01658 0
-1.01132e-15 1.01631 0
-4.09053e-15 1.01631 0
4.1421e-15 1.01658 0
7.83207e-16 1.01658 0
-3.99659e-15 1.0154 0
-6.46302e-15 1.0154 0
3.45825e-17 1.01631 0
2.29862e-15 1.01631 0
-6.46302e-15 1.0154 0
-2.87815e-15 1.0154 0
2.29862e-15 1.01631 0
1.95015e-15 1.01631 0
-4.09053e-15 1.01631 0
-7.89003e-15 1.01631 0
7.83207e-16 1.01658 0
3.549e-15 1.01658 0
-7.89003e-15 1.01631 0
-5.20445e-15 1.01631 0
3.549e-15 1.01658 0
-2.37574e-16 1.01658 0
-9.37909e-15 1.01324 0
-1.30394e-14 1.01324 0
7.55856e-15 1.01433 0
1.10315e-14 1.01433 0
-1.30394e-14 1.01324 0
-1.2556e-14 1.01324 0
1.10315e-14 1.01433 0
9.05745e-15 1.01433 0
-4.07171e-15 1.01433 0
-5.93516e-15 1.01433 0
2.17276e-15 1.0154 0
4.82637e-15 1.0154 0
-5.93516e-15 1.01433 0
-9.13872e-15 1.01433 0
4.82637e-15 1.0154 0
7.11994e-15 1.0154 0
-1.2556e-14 1.01324 0
-1.06123e-14 1.01324 0
9.05745e-15 1.01433 0
8.79325e-15 1.01433 0
-1.06123e-14 1.01324 0
-1.05605e-14 1.01324 0
8.79325e-15 1.01433 0
6.66258e-15 1.01433 0
-9.13872e-15 1.01433 0
-1.06402e-14 1.01433 0
7.11994e-15 1.0154 0
6.11205e-15 1.0154 0
-1.06402e-14 1.01433 0
-5.33618e-15 1.01433 0
6.11205e-15 1.0154 0
2.6802e-15 1.0154 0
-2.87815e-15 1.0154 0
-7.28159e-15 1.0154 0
1.95015e-15 1.01631 0
3.78107e-15 1.01631 0
-7.28159e-15 1.0154 0
-7.04043e-15 1.0154 0
3.78107e-15 1.01631 0
6.12758e-15 1.01631 0
-5.20445e-15 1.01631 0
-5.91495e-15 1.01631 0
-2.37574e-16 1.01658 0
5.66243e-15 1.01658 0
-5.91495e-15 1.01631 0
-5.75292e-15 1.01631 0
5.66243e-15 1.01658 0
8.98459e-15 1.01658 0
-7.04043e-15 1.0154 0
-7.14964e-15 1.0154 0
6.12758e-15 1.01631 0
6.68315e-15 1.01631 0
-7.14964e-15 1.0154 0
-5.69839e-15 1.0154 0
6.68315e-15 1.01631 0
5.5981e-15 1.01631 0
-5.75292e-15 1.01631 0
-3.1506e-15 1.01631 0
8.98459e-15 1.01658 0
3.26178e-15 1.01658 0
-3.1506e-15 1.01631 0
-3.45992e-15 1.01631 0
3.26178e-15 1.01658 0
7.64381e-16 1.01658 0
-1.42295e-14 1.00907 0
-1.59106e-14 1.00907 0
1.18798e-14 1.0101 0
1.32323e-14 1.0101 0
-1.59106e-14 1.00907 0
-1.02931e-14 1.00907 0
1.32323e-14 1.0101 0
1.0424e-14 1.0101 0
-1.48097e-14 1.0101 0
-1.41364e-14 1.0101 0
1.67536e-14 1.01112 0
1.86818e-14 1.01112 0
-1.41364e-14 1.0101 0
-8.14462e-15 1.0101 0
1.86818e-14 1.01112 0
9.82067e-15 1.01112 0
-1.02931e-14 1.00907 0
-1.26812e-14 1.00907 0
1.0424e-14 1.0101 0
1.31364e-14 1.0101 0
-1.26812e-14 1.00907 0
-1.18436e-14 1.00907 0
1.31364e-14 1.0101 0
1.42032e-14 1.0101 0
-8.14462e-15 1.0101 0
-1.37518e-14 1.0101 0
9.82067e-15 1.01112 0
1.18611e-14 1.01112 0
-1.37518e-14 1.0101 0
-1.011e-14 1.0101 0
1.18611e-14 1.01112 0
1.3044e-14 1.01112 0
-1.68059e-14 1.01112 0
-1.67002e-14 1.01112 0
1.93164e-14 1.01217 0
1.75419e-14 1.01217 0
-1.67002e-14 1.01112 0
-1.4629e-14 1.01112 0
1.75419e-14 1.01217 0
1.8308e-14 1.01217 0
-1.76878e-14 1.01217 0
-1.63066e-14 1.01217 0
1.48944e-14 1.01324 0
1.46829e-14 1.01324 0
-1.63066e-14 1.01217 0
-1.01918e-14 1.01217 0
1.46829e-14 1.01324 0
7.52433e-15 1.01324 0
-1.4629e-14 1.01112 0
-1.20715e-14 1.01112 0
1.8308e-14 1.01217 0
1.52543e-14 1.01217 0
-1.20715e-14 1.01112 0
-1.2595e-14 1.01112 0
1.52543e-14 1.01217 0
1.27597e-14 1.01217 0
-1.01918e-14 1.01217 0
-1.19223e-14 1.01217 0
7.52433e-15 1.01324 0
1.06658e-14 1.01324 0
-1.19223e-14 1.01217 0
-7.88319e-15 1.01217 0
1.06658e-14 1.01324 0
8.54599e-15 1.01324 0
-1.18436e-14 1.00907 0
-9.30282e-15 1.00907 0
1.42032e-14 1.0101 0
1.207e-14 1.0101 0
-9.30282e-15 1.00907 0
-8.77446e-15 1.00907 0
1.207e-14 1.0101 0
1.44035e-14 1.0101 0
-1.011e-14 1.0101 0
-7.89841e-15 1.0101 0
1.3044e-14 1.01112 0
8.78954e-15 1.01112 0
-7.89841e-15 1.0101 0
-4.23869e-15 1.0101 0
8.78954e-15 1.01112 0
5.81536e-15 1.01112 0
-8.77446e-15 1.00907 0
-6.12205e-15 1.00907 0
1.44035e-14 1.0101 0
1.23533e-14 1.0101 0
-6.12205e-15 1.00907 0
-2.85431e-15 1.00907 0
1.23533e-14 1.0101 0
9.58689e-15 1.0101 0
-4.23869e-15 1.0101 0
-6.04258e-15 1.0101 0
5.81536e-15 1.01112 0
6.27692e-15 1.01112 0
-6.04258e-15 1.0101 0
-1.11344e-14 1.0101 0
6.27692e-15 1.01112 0
1.05849e-14 1.01112 0
-1.2595e-14 1.01112 0
-9.33663e-15 1.01112 0
1.27597e-14 1.01217 0
9.14937e-15 1.01217 0
-9.33663e-15 1.01112 0
-1.02715e-14 1.01112 0
9.14937e-15 1.01217 0
7.84967e-15 1.01217 0
-7.88319e-15 1.01217 0
-7.47231e-15 1.01217 0
8.54599e-15 1.01324 0
6.852e-15 1.01324 0
-7.47231e-15 1.01217 0
-1.52612e-14 1.01217 0
6.852e-15 1.01324 0
1.47263e-14 1.01324 0
-1.02715e-14 1.01112 0
-9.33733e-15 1.01112 0
7.84967e-15 1.01217 0
8.99698e-15 1.01217 0
-9.33733e-15 1.01112 0
-1.13273e-14 1.01112 0
8.99698e-15 1.01217 0
1.00172e-14 1.01217 0
-1.52612e-14 1.01217 0
-6.67242e-15 1.01217 0
1.47263e-14 1.01324 0
4.46144e-15 1.01324 0
-6.67242e-15 1.01217 0
-4.61021e-15 1.01217 0
4.46144e-15 1.01324 0
5.41269e-15 1.01324 0
-1.05605e-14 1.01324 0
-1.20432e-14 1.01324 0
6.66258e-15 1.01433 0
9.05476e-15 1.01433 0
-1.20432e-14 1.01324 0
-9.51161e-15 1.01324 0
9.05476e-15 1.01433 0
7.07753e-15 1.01433 0
-5.33618e-15 1.01433 0
-8.1532e-15 1.01433 0
2.6802e-15 1.0154 0
6.49524e-15 1.0154 0
-8.1532e-15 1.01433 0
-7.56461e-15 1.01433 0
6.49524e-15 1.0154 0
3.3019e-15 1.0154 0
-9.51161e-15 1.01324 0
-5.5753e-15 1.01324 0
7.07753e-15 1.01433 0
3.20715e-15 1.01433 0
-5.5753e-15 1.01324 0
-1.00032e-14 1.01324 0
3.20715e-15 1.01433 0
1.027e-14 1.01433 0