# vtk DataFile Version 3.0
#This file was generated by the deal.II library on 2018/10/12 at 1:43:12
ASCII
DATASET UNSTRUCTURED_GRID

POINTS 5120 double
0 0 0
0.392699 0 0
0 0.589579 0
0.392699 0.589579 0
0.392699 0 0
0.785398 0 0
0.392699 0.589579 0
0.785398 0.589579 0
0 0.589579 0
0.392699 0.589579 0
0 1.21705 0
0.392699 1.21705 0
0.392699 0.589579 0
0.785398 0.589579 0
0.392699 1.21705 0
0.785398 1.21705 0
0.785398 0 0
1.1781 0 0
0.785398 0.589579 0
1.1781 0.589579 0
1.1781 0 0
1.5708 0 0
1.1781 0.589579 0
1.5708 0.589579 0
0.785398 0.589579 0
1.1781 0.589579 0
0.785398 1.21705 0
1.1781 1.21705 0
1.1781 0.589579 0
1.5708 0.589579 0
1.1781 1.21705 0
1.5708 1.21705 0
0 1.21705 0
0.392699 1.21705 0
0 1.84336 0
0.392699 1.84336 0
0.392699 1.21705 0
0.785398 1.21705 0
0.392699 1.84336 0
0.785398 1.84336 0
0 1.84336 0
0.392699 1.84336 0
0 2.47101 0
0.392699 2.47101 0
0.392699 1.84336 0
0.785398 1.84336 0
0.392699 2.47101 0
0.785398 2.47101 0
0.785398 1.21705 0
1.1781 1.21705 0
0.785398 1.84336 0
1.1781 1.84336 0
1.1781 1.21705 0
1.5708 1.21705 0
1.1781 1.84336 0
1.5708 1.84336 0
0.785398 1.84336 0
1.1781 1.84336 0
0.785398 2.47101 0
1.1781 2.47101 0
1.1781 1.84336 0
1.5708 1.84336 0
1.1781 2.47101 0
1.5708 2.47101 0
1.5708 0 0
1.9635 0 0
1.5708 0.589579 0
1.9635 0.589579 0
1.9635 0 0
2.35619 0 0
1.9635 0.589579 0
2.35619 0.589579 0
1.5708 0.589579 0
1.9635 0.589579 0
1.5708 1.21705 0
1.9635 1.21705 0
1.9635 0.589579 0
2.35619 0.589579 0
1.9635 1.21705 0
2.35619 1.21705 0
2.35619 0 0
2.74889 0 0
2.35619 0.589579 0
2.74889 0.589579 0
2.74889 0 0
3.14159 0 0
2.74889 0.589579 0
3.14159 0.589579 0
2.35619 0.589579 0
2.74889 0.589579 0
2.35619 1.21705 0
2.74889 1.21705 0
2.74889 0.589579 0
3.14159 0.589579 0
2.74889 1.21705 0
3.14159 1.21705 0
1.5708 1.21705 0
1.9635 1.21705 0
1.5708 1.84336 0
1.9635 1.84336 0
1.9635 1.21705 0
2.35619 1.21705 0
1.9635 1.84336 0
2.35619 1.84336 0
1.5708 1.84336 0
1.9635 1.84336 0
1.5708 2.47101 0
1.9635 2.47101 0
1.9635 1.84336 0
2.35619 1.84336 0
1.9635 2.47101 0
2.35619 2.47101 0
2.35619 1.21705 0
2.74889 1.21705 0
2.35619 1.84336 0
2.74889 1.84336 0
2.74889 1.21705 0
3.14159 1.21705 0
2.74889 1.84336 0
3.14159 1.84336 0
2.35619 1.84336 0
2.74889 1.84336 0
2.35619 2.47101 0
2.74889 2.47101 0
2.74889 1.84336 0
3.14159 1.84336 0
2.74889 2.47101 0
3.14159 2.47101 0
0 2.47101 0
0.392699 2.47101 0
0 3.09829 0
0.392699 3.09829 0
0.392699 2.47101 0
0.785398 2.47101 0
0.392699 3.09829 0
0.785398 3.09829 0
0 3.09829 0
0.392699 3.09829 0
0 3.7256 0
0.392699 3.7256 0
0.392699 3.09829 0
0.785398 3.09829 0
0.392699 3.7256 0
0.785398 3.7256 0
0.785398 2.47101 0
1.1781 2.47101 0
0.785398 3.09829 0
1.1781 3.09829 0
1.1781 2.47101 0
1.5708 2.47101 0
1.1781 3.09829 0
1.5708 3.09829 0
0.785398 3.09829 0
1.1781 3.09829 0
0.785398 3.7256 0
1.1781 3.7256 0
1.1781 3.09829 0
1.5708 3.09829 0
1.1781 3.7256 0
1.5708 3.7256 0
0 3.7256 0
0.392699 3.7256 0
0 4.3528 0
0.392699 4.3528 0
0.392699 3.7256 0
0.785398 3.7256 0
0.392699 4.3528 0
0.785398 4.3528 0
0 4.3528 0
0.392699 4.3528 0
0 4.97992 0
0.392699 4.97992 0
0.392699 4.3528 0
0.785398 4.3528 0
0.392699 4.97992 0
0.785398 4.97992 0
0.785398 3.7256 0
1.1781 3.7256 0
0.785398 4.3528 0
1.1781 4.3528 0
1.1781 3.7256 0
1.5708 3.7256 0
1.1781 4.3528 0
1.5708 4.3528 0
0.785398 4.3528 0
1.1781 4.3528 0
0.785398 4.97992 0
1.1781 4.97992 0
1.1781 4.3528 0
1.5708 4.3528 0
1.1781 4.97992 0
1.5708 4.97992 0
1.5708 2.47101 0
1.9635 2.47101 0
1.5708 3.09829 0
1.9635 3.09829 0
1.9635 2.47101 0
2.35619 2.47101 0
1.9635 3.09829 0
2.35619 3.09829 0
1.5708 3.09829 0
1.9635 3.09829 0
1.5708 3.7256 0
1.9635 3.7256 0
1.9635 3.09829 0
2.35619 3.09829 0
1.9635 3.7256 0
2.35619 3.7256 0
2.35619 2.47101 0
2.74889 2.47101 0
2.35619 3.09829 0
2.74889 3.09829 0
2.74889 2.47101 0
3.14159 2.47101 0
2.74889 3.09829 0
3.14159 3.09829 0
2.35619 3.09829 0
2.74889 3.09829 0
2.35619 3.7256 0
2.74889 3.7256 0
2.74889 3.09829 0
3.14159 3.09829 0
2.74889 3.7256 0
3.14159 3.7256 0
1.5708 3.7256 0
1.9635 3.7256 0
1.5708 4.3528 0
1.9635 4.3528 0
1.9635 3.7256 0
2.35619 3.7256 0
1.9635 4.3528 0
2.35619 4.3528 0
1.5708 4.3528 0
1.9635 4.3528 0
1.5708 4.97992 0
1.9635 4.97992 0
1.9635 4.3528 0
2.35619 4.3528 0
1.9635 4.97992 0
2.35619 4.97992 0
2.35619 3.7256 0
2.74889 3.7256 0
2.35619 4.3528 0
2.74889 4.3528 0
2.74889 3.7256 0
3.14159 3.7256 0
2.74889 4.3528 0
3.14159 4.3528 0
2.35619 4.3528 0
2.74889 4.3528 0
2.35619 4.97992 0
2.74889 4.97992 0
2.74889 4.3528 0
3.14159 4.3528 0
2.74889 4.97992 0
3.14159 4.97992 0
3.14159 0 0
3.53429 0 0
3.14159 0.589579 0
3.53429 0.589579 0
3.53429 0 0
3.92699 0 0
3.53429 0.589579 0
3.92699 0.589579 0
3.14159 0.589579 0
3.53429 0.589579 0
3.14159 1.21705 0
3.53429 1.21705 0
3.53429 0.589579 0
3.92699 0.589579 0
3.53429 1.21705 0
3.92699 1.21705 0
3.92699 0 0
4.31969 0 0
3.92699 0.589579 0
4.31969 0.589579 0
4.31969 0 0
4.71239 0 0
4.31969 0.589579 0
4.71239 0.589579 0
3.92699 0.589579 0
4.31969 0.589579 0
3.92699 1.21705 0
4.31969 1.21705 0
4.31969 0.589579 0
4.71239 0.589579 0
4.31969 1.21705 0
4.71239 1.21705 0
3.14159 1.21705 0
3.53429 1.21705 0
3.14159 1.84336 0
3.53429 1.84336 0
3.53429 1.21705 0
3.92699 1.21705 0
3.53429 1.84336 0
3.92699 1.84336 0
3.14159 1.84336 0
3.53429 1.84336 0
3.14159 2.47101 0
3.53429 2.47101 0
3.53429 1.84336 0
3.92699 1.84336 0
3.53429 2.47101 0
3.92699 2.47101 0
3.92699 1.21705 0
4.31969 1.21705 0
3.92699 1.84336 0
4.31969 1.84336 0
4.31969 1.21705 0
4.71239 1.21705 0
4.31969 1.84336 0
4.71239 1.84336 0
3.92699 1.84336 0
4.31969 1.84336 0
3.92699 2.47101 0
4.31969 2.47101 0
4.31969 1.84336 0
4.71239 1.84336 0
4.31969 2.47101 0
4.71239 2.47101 0
4.71239 0 0
5.10509 0 0
4.71239 0.589579 0
5.10509 0.589579 0
5.10509 0 0
5.49779 0 0
5.10509 0.589579 0
5.49779 0.589579 0
4.71239 0.589579 0
5.10509 0.589579 0
4.71239 1.21705 0
5.10509 1.21705 0
5.10509 0.589579 0
5.49779 0.589579 0
5.10509 1.21705 0
5.49779 1.21705 0
5.49779 0 0
5.89049 0 0
5.49779 0.589579 0
5.89049 0.589579 0
5.89049 0 0
6.28319 0 0
5.89049 0.589579 0
6.28319 0.589579 0
5.49779 0.589579 0
5.89049 0.589579 0
5.49779 1.21705 0
5.89049 1.21705 0
5.89049 0.589579 0
6.28319 0.589579 0
5.89049 1.21705 0
6.28319 1.21705 0
4.71239 1.21705 0
5.10509 1.21705 0
4.71239 1.84336 0
5.10509 1.84336 0
5.10509 1.21705 0
5.49779 1.21705 0
5.10509 1.84336 0
5.49779 1.84336 0
4.71239 1.84336 0
5.10509 1.84336 0
4.71239 2.47101 0
5.10509 2.47101 0
5.10509 1.84336 0
5.49779 1.84336 0
5.10509 2.47101 0
5.49779 2.47101 0
5.49779 1.21705 0
5.89049 1.21705 0
5.49779 1.84336 0
5.89049 1.84336 0
5.89049 1.21705 0
6.28319 1.21705 0
5.89049 1.84336 0
6.28319 1.84336 0
5.49779 1.84336 0
5.89049 1.84336 0
5.49779 2.47101 0
5.89049 2.47101 0
5.89049 1.84336 0
6.28319 1.84336 0
5.89049 2.47101 0
6.28319 2.47101 0
3.14159 2.47101 0
3.53429 2.47101 0
3.14159 3.09829 0
3.53429 3.09829 0
3.53429 2.47101 0
3.92699 2.47101 0
3.53429 3.09829 0
3.92699 3.09829 0
3.14159 3.09829 0
3.53429 3.09829 0
3.14159 3.7256 0
3.53429 3.7256 0
3.53429 3.09829 0
3.92699 3.09829 0
3.53429 3.7256 0
3.92699 3.7256 0
3.92699 2.47101 0
4.31969 2.47101 0
3.92699 3.09829 0
4.31969 3.09829 0
4.31969 2.47101 0
4.71239 2.47101 0
4.31969 3.09829 0
4.71239 3.09829 0
3.92699 3.09829 0
4.31969 3.09829 0
3.92699 3.7256 0
4.31969 3.7256 0
4.31969 3.09829 0
4.71239 3.09829 0
4.31969 3.7256 0
4.71239 3.7256 0
3.14159 3.7256 0
3.53429 3.7256 0
3.14159 4.3528 0
3.53429 4.3528 0
3.53429 3.7256 0
3.92699 3.7256 0
3.53429 4.3528 0
3.92699 4.3528 0
3.14159 4.3528 0
3.53429 4.3528 0
3.14159 4.97992 0
3.53429 4.97992 0
3.53429 4.3528 0
3.92699 4.3528 0
3.53429 4.97992 0
3.92699 4.97992 0
3.92699 3.7256 0
4.31969 3.7256 0
3.92699 4.3528 0
4.31969 4.3528 0
4.31969 3.7256 0
4.71239 3.7256 0
4.31969 4.3528 0
4.71239 4.3528 0
3.92699 4.3528 0
4.31969 4.3528 0
3.92699 4.97992 0
4.31969 4.97992 0
4.31969 4.3528 0
4.71239 4.3528 0
4.31969 4.97992 0
4.71239 4.97992 0
4.71239 2.47101 0
5.10509 2.47101 0
4.71239 3.09829 0
5.10509 3.09829 0
5.10509 2.47101 0
5.49779 2.47101 0
5.10509 3.09829 0
5.49779 3.09829 0
4.71239 3.09829 0
5.10509 3.09829 0
4.71239 3.7256 0
5.10509 3.7256 0
5.10509 3.09829 0
5.49779 3.09829 0
5.10509 3.7256 0
5.49779 3.7256 0
5.49779 2.47101 0
5.89049 2.47101 0
5.49779 3.09829 0
5.89049 3.09829 0
5.89049 2.47101 0
6.28319 2.47101 0
5.89049 3.09829 0
6.28319 3.09829 0
5.49779 3.09829 0
5.89049 3.09829 0
5.49779 3.7256 0
5.89049 3.7256 0
5.89049 3.09829 0
6.28319 3.09829 0
5.89049 3.7256 0
6.28319 3.7256 0
4.71239 3.7256 0
5.10509 3.7256 0
4.71239 4.3528 0
5.10509 4.3528 0
5.10509 3.7256 0
5.49779 3.7256 0
5.10509 4.3528 0
5.49779 4.3528 0
4.71239 4.3528 0
5.10509 4.3528 0
4.71239 4.97992 0
5.10509 4.97992 0
5.10509 4.3528 0
5.49779 4.3528 0
5.10509 4.97992 0
5.49779 4.97992 0
5.49779 3.7256 0
5.89049 3.7256 0
5.49779 4.3528 0
5.89049 4.3528 0
5.89049 3.7256 0
6.28319 3.7256 0
5.89049 4.3528 0
6.28319 4.3528 0
5.49779 4.3528 0
5.89049 4.3528 0
5.49779 4.97992 0
5.89049 4.97992 0
5.89049 4.3528 0
6.28319 4.3528 0
5.89049 4.97992 0
6.28319 4.97992 0
0 4.97992 0
0.392699 4.97992 0
0 5.60692 0
0.392699 5.60692 0
0.392699 4.97992 0
0.785398 4.97992 0
0.392699 5.60692 0
0.785398 5.60692 0
0 5.60692 0
0.392699 5.60692 0
0 6.23382 0
0.392699 6.23382 0
0.392699 5.60692 0
0.785398 5.60692 0
0.392699 6.23382 0
0.785398 6.23382 0
0.785398 4.97992 0
1.1781 4.97992 0
0.785398 5.60692 0
1.1781 5.60692 0
1.1781 4.97992 0
1.5708 4.97992 0
1.1781 5.60692 0
1.5708 5.60692 0
0.785398 5.60692 0
1.1781 5.60692 0
0.785398 6.23382 0
1.1781 6.23382 0
1.1781 5.60692 0
1.5708 5.60692 0
1.1781 6.23382 0
1.5708 6.23382 0
0 6.23382 0
0.392699 6.23382 0
0 6.86065 0
0.392699 6.86065 0
0.392699 6.23382 0
0.785398 6.23382 0
0.392699 6.86065 0
0.785398 6.86065 0
0 6.86065 0
0.392699 6.86065 0
0 7.48749 0
0.392699 7.48749 0
0.392699 6.86065 0
0.785398 6.86065 0
0.392699 7.48749 0
0.785398 7.48749 0
0.785398 6.23382 0
1.1781 6.23382 0
0.785398 6.86065 0
1.1781 6.86065 0
1.1781 6.23382 0
1.5708 6.23382 0
1.1781 6.86065 0
1.5708 6.86065 0
0.785398 6.86065 0
1.1781 6.86065 0
[...]
POINT_DATA 5120
VECTORS uf double
0 1 0
-1.95284e-13 1 0
0 1.0026 0
-1.82186e-13 1.0026 0
-1.95284e-13 1 0
1.16664e-14 1 0
-1.82186e-13 1.0026 0
1.74788e-14 1.0026 0
0 1.0026 0
1.69479e-13 1.0026 0
0 1.00393 0
1.63966e-13 1.00393 0
1.69479e-13 1.0026 0
-6.08336e-14 1.0026 0
1.63966e-13 1.00393 0
-5.71389e-14 1.00393 0
1.16664e-14 1 0
2.93104e-13 1 0
1.74788e-14 1.0026 0
2.84618e-13 1.0026 0
2.93104e-13 1 0
4.42816e-14 1 0
2.84618e-13 1.0026 0
3.9281e-14 1.0026 0
-6.08336e-14 1.0026 0
-2.87373e-13 1.0026 0
-5.71389e-14 1.00393 0
-2.69814e-13 1.00393 0
-2.87373e-13 1.0026 0
-3.50086e-14 1.0026 0
-2.69814e-13 1.00393 0
-4.21161e-14 1.00393 0
0 1.00393 0
-2.35546e-14 1.00393 0
0 1.00556 0
-1.89394e-14 1.00556 0
-2.35546e-14 1.00393 0
1.28775e-13 1.00393 0
-1.89394e-14 1.00556 0
1.22874e-13 1.00556 0
0 1.00556 0
4.20626e-14 1.00556 0
0 1.00706 0
4.48005e-14 1.00706 0
4.20626e-14 1.00556 0
-5.61325e-14 1.00556 0
4.48005e-14 1.00706 0
-6.48875e-14 1.00706 0
1.28775e-13 1.00393 0
-1.0288e-14 1.00393 0
1.22874e-13 1.00556 0
5.43821e-15 1.00556 0
-1.0288e-14 1.00393 0
-1.16466e-14 1.00393 0
5.43821e-15 1.00556 0
3.30298e-15 1.00556 0
-5.61325e-14 1.00556 0
5.8379e-14 1.00556 0
-6.48875e-14 1.00706 0
6.45051e-14 1.00706 0
5.8379e-14 1.00556 0
-3.41454e-14 1.00556 0
6.45051e-14 1.00706 0
-3.0199e-14 1.00706 0
4.42816e-14 1 0
-3.42617e-14 1 0
3.9281e-14 1.0026 0
-1.33614e-14 1.0026 0
-3.42617e-14 1 0
-1.80407e-15 1 0
-1.33614e-14 1.0026 0
4.47879e-16 1.0026 0
-3.50086e-14 1.0026 0
2.06453e-14 1.0026 0
-4.21161e-14 1.00393 0
3.33901e-14 1.00393 0
2.06453e-14 1.0026 0
-1.83998e-16 1.0026 0
3.33901e-14 1.00393 0
1.33616e-15 1.00393 0
-1.80407e-15 1 0
3.92223e-15 1 0
4.47879e-16 1.0026 0
-2.95646e-15 1.0026 0
3.92223e-15 1 0
-5.66596e-15 1 0
-2.95646e-15 1.0026 0
1.16226e-14 1.0026 0
-1.83998e-16 1.0026 0
-1.86829e-15 1.0026 0
1.33616e-15 1.00393 0
3.33631e-15 1.00393 0
-1.86829e-15 1.0026 0
-3.7393e-15 1.0026 0
3.33631e-15 1.00393 0
9.27418e-15 1.00393 0
-1.16466e-14 1.00393 0
4.92264e-14 1.00393 0
3.30298e-15 1.00556 0
6.169e-14 1.00556 0
4.92264e-14 1.00393 0
7.85153e-15 1.00393 0
6.169e-14 1.00556 0
-2.07007e-15 1.00556 0
-3.41454e-14 1.00556 0
-3.56117e-14 1.00556 0
-3.0199e-14 1.00706 0
-3.09728e-14 1.00706 0
-3.56117e-14 1.00556 0
4.67392e-16 1.00556 0
-3.09728e-14 1.00706 0
-1.47519e-15 1.00706 0
7.85153e-15 1.00393 0
4.30498e-15 1.00393 0
-2.07007e-15 1.00556 0
3.20231e-15 1.00556 0
4.30498e-15 1.00393 0
2.34405e-15 1.00393 0
3.20231e-15 1.00556 0
5.18222e-15 1.00556 0
4.67392e-16 1.00556 0
-3.97741e-15 1.00556 0
-1.47519e-15 1.00706 0
2.62086e-15 1.00706 0
-3.97741e-15 1.00556 0
-4.07531e-15 1.00556 0
2.62086e-15 1.00706 0
1.34412e-15 1.00706 0
0 1.00706 0
-1.11341e-13 1.00706 0
0 1.00855 0
-9.77477e-14 1.00855 0
-1.11341e-13 1.00706 0
-1.53842e-14 1.00706 0
-9.77477e-14 1.00855 0
-1.11975e-14 1.00855 0
0 1.00855 0
1.13708e-13 1.00855 0
0 1.01002 0
1.08894e-13 1.01002 0
1.13708e-13 1.00855 0
6.96683e-14 1.00855 0
1.08894e-13 1.01002 0
7.40023e-14 1.01002 0
-1.53842e-14 1.00706 0
-7.66774e-14 1.00706 0
-1.11975e-14 1.00855 0
-6.38434e-14 1.00855 0
-7.66774e-14 1.00706 0
4.67994e-14 1.00706 0
-6.38434e-14 1.00855 0
4.51543e-14 1.00855 0
6.96683e-14 1.00855 0
8.03548e-14 1.00855 0
7.40023e-14 1.01002 0
7.24345e-14 1.01002 0
8.03548e-14 1.00855 0
-6.66393e-14 1.00855 0
7.24345e-14 1.01002 0
-6.7352e-14 1.01002 0
0 1.01002 0
9.09488e-15 1.01002 0
0 1.01145 0
-2.76997e-16 1.01145 0
9.09488e-15 1.01002 0
-2.16226e-13 1.01002 0
-2.76997e-16 1.01145 0
-2.11629e-13 1.01145 0
0 1.01145 0
9.19435e-15 1.01145 0
0 1.01287 0
8.66202e-16 1.01287 0
9.19435e-15 1.01145 0
2.04658e-13 1.01145 0
8.66202e-16 1.01287 0
1.97048e-13 1.01287 0
-2.16226e-13 1.01002 0
-7.03103e-14 1.01002 0
-2.11629e-13 1.01145 0
-6.97055e-14 1.01145 0
-7.03103e-14 1.01002 0
1.54357e-13 1.01002 0
-6.97055e-14 1.01145 0
1.44317e-13 1.01145 0
2.04658e-13 1.01145 0
3.42166e-14 1.01145 0
1.97048e-13 1.01287 0
2.9427e-14 1.01287 0
3.42166e-14 1.01145 0
-1.60167e-13 1.01145 0
2.9427e-14 1.01287 0
-1.52366e-13 1.01287 0
4.67994e-14 1.00706 0
1.88031e-14 1.00706 0
4.51543e-14 1.00855 0
2.41252e-14 1.00855 0
1.88031e-14 1.00706 0
4.91474e-16 1.00706 0
2.41252e-14 1.00855 0
5.69689e-16 1.00855 0
-6.66393e-14 1.00855 0
-3.75733e-14 1.00855 0
-6.7352e-14 1.01002 0
-3.01341e-14 1.01002 0
-3.75733e-14 1.00855 0
-1.6024e-14 1.00855 0
-3.01341e-14 1.01002 0
-1.98669e-14 1.01002 0
4.91474e-16 1.00706 0
-2.88244e-15 1.00706 0
5.69689e-16 1.00855 0
2.93693e-15 1.00855 0
-2.88244e-15 1.00706 0
-1.10103e-14 1.00706 0
2.93693e-15 1.00855 0
1.03645e-14 1.00855 0
-1.6024e-14 1.00855 0
-4.68537e-15 1.00855 0
-1.98669e-14 1.01002 0
3.8609e-15 1.01002 0
-4.68537e-15 1.00855 0
2.99206e-14 1.00855 0
3.8609e-15 1.01002 0
2.71163e-14 1.01002 0
1.54357e-13 1.01002 0
-2.66591e-14 1.01002 0
1.44317e-13 1.01145 0
-2.08859e-14 1.01145 0
-2.66591e-14 1.01002 0
2.05708e-14 1.01002 0
-2.08859e-14 1.01145 0
2.08519e-14 1.01145 0
-1.60167e-13 1.01145 0
-4.58886e-14 1.01145 0
-1.52366e-13 1.01287 0
-4.33e-14 1.01287 0
-4.58886e-14 1.01145 0
-5.32884e-15 1.01145 0
-4.33e-14 1.01287 0
-7.47028e-15 1.01287 0
2.05708e-14 1.01002 0
-1.30296e-15 1.01002 0
2.08519e-14 1.01145 0
-8.05744e-15 1.01145 0
-1.30296e-15 1.01002 0
-2.83898e-14 1.01002 0
-8.05744e-15 1.01145 0
-2.32396e-14 1.01145 0
-5.32884e-15 1.01145 0
1.86319e-14 1.01145 0
-7.47028e-15 1.01287 0
1.66568e-14 1.01287 0
1.86319e-14 1.01145 0
-1.15765e-14 1.01145 0
1.66568e-14 1.01287 0
9.61879e-16 1.01287 0
-5.66596e-15 1 0
-9.26604e-16 1 0
1.16226e-14 1.0026 0
7.54618e-15 1.0026 0
-9.26604e-16 1 0
3.94138e-15 1 0
7.54618e-15 1.0026 0
5.81268e-16 1.0026 0
-3.7393e-15 1.0026 0
5.45933e-15 1.0026 0
9.27418e-15 1.00393 0
4.89363e-15 1.00393 0
5.45933e-15 1.0026 0
1.75837e-15 1.0026 0
4.89363e-15 1.00393 0
1.94887e-15 1.00393 0
3.94138e-15 1 0
3.24753e-15 1 0
5.81268e-16 1.0026 0
9.72803e-15 1.0026 0
3.24753e-15 1 0
-2.38092e-15 1 0
9.72803e-15 1.0026 0
1.14947e-14 1.0026 0
1.75837e-15 1.0026 0
-1.12007e-14 1.0026 0
1.94887e-15 1.00393 0
9.14733e-15 1.00393 0
-1.12007e-14 1.0026 0
-2.47951e-15 1.0026 0
9.14733e-15 1.00393 0
1.78623e-15 1.00393 0
2.34405e-15 1.00393 0
-2.85499e-16 1.00393 0
5.18222e-15 1.00556 0
8.12115e-15 1.00556 0
-2.85499e-16 1.00393 0
-7.02715e-16 1.00393 0
8.12115e-15 1.00556 0
1.23169e-14 1.00556 0
-4.07531e-15 1.00556 0
-7.17003e-16 1.00556 0
1.34412e-15 1.00706 0
5.9008e-15 1.00706 0
-7.17003e-16 1.00556 0
6.79456e-15 1.00556 0
5.9008e-15 1.00706 0
3.23154e-15 1.00706 0
-7.02715e-16 1.00393 0
1.29018e-14 1.00393 0
1.23169e-14 1.00556 0
7.03061e-16 1.00556 0
1.29018e-14 1.00393 0
5.42096e-15 1.00393 0
7.03061e-16 1.00556 0
9.62259e-15 1.00556 0
6.79456e-15 1.00556 0
-1.16165e-14 1.00556 0
3.23154e-15 1.00706 0
1.04256e-14 1.00706 0
-1.16165e-14 1.00556 0
4.95226e-15 1.00556 0
1.04256e-14 1.00706 0
7.99222e-15 1.00706 0
-2.38092e-15 1 0
2.05259e-15 1 0
1.14947e-14 1.0026 0
4.04401e-15 1.0026 0
2.05259e-15 1 0
-3.06923e-15 1 0
4.04401e-15 1.0026 0
5.72201e-15 1.0026 0
-2.47951e-15 1.0026 0
6.15696e-15 1.0026 0
1.78623e-15 1.00393 0
2.45159e-16 1.00393 0
6.15696e-15 1.0026 0
1.22719e-15 1.0026 0
2.45159e-16 1.00393 0
1.25751e-14 1.00393 0
-3.06923e-15 1 0
1.12382e-17 1 0
5.72201e-15 1.0026 0
8.00774e-15 1.0026 0
1.12382e-17 1 0
1.85399e-15 1 0
8.00774e-15 1.0026 0
1.7001e-14 1.0026 0
1.22719e-15 1.0026 0
2.37195e-15 1.0026 0
1.25751e-14 1.00393 0
9.49354e-15 1.00393 0
2.37195e-15 1.0026 0
-1.2556e-14 1.0026 0
9.49354e-15 1.00393 0
4.85519e-15 1.00393 0
5.42096e-15 1.00393 0
-1.35406e-14 1.00393 0
9.62259e-15 1.00556 0
1.11098e-14 1.00556 0
-1.35406e-14 1.00393 0
4.17729e-15 1.00393 0
1.11098e-14 1.00556 0
1.63951e-15 1.00556 0
4.95226e-15 1.00556 0
4.04246e-15 1.00556 0
7.99222e-15 1.00706 0
7.40615e-15 1.00706 0
4.04246e-15 1.00556 0
3.00179e-15 1.00556 0
7.40615e-15 1.00706 0
-1.90925e-15 1.00706 0
4.17729e-15 1.00393 0
-4.12687e-15 1.00393 0
1.63951e-15 1.00556 0
6.64953e-15 1.00556 0
-4.12687e-15 1.00393 0
8.78959e-16 1.00393 0
6.64953e-15 1.00556 0
4.57776e-15 1.00556 0
3.00179e-15 1.00556 0
1.64876e-16 1.00556 0
-1.90925e-15 1.00706 0
5.97806e-15 1.00706 0
1.64876e-16 1.00556 0
-6.53863e-15 1.00556 0
5.97806e-15 1.00706 0
5.29751e-15 1.00706 0
-1.10103e-14 1.00706 0
-5.1712e-15 1.00706 0
1.03645e-14 1.00855 0
4.5777e-15 1.00855 0
-5.1712e-15 1.00706 0
-1.05456e-14 1.00706 0
4.5777e-15 1.00855 0
-7.46634e-15 1.00855 0
2.99206e-14 1.00855 0
-1.39774e-14 1.00855 0
2.71163e-14 1.01002 0
-2.2251e-15 1.01002 0
-1.39774e-14 1.00855 0
7.55856e-15 1.00855 0
-2.2251e-15 1.01002 0
-1.33765e-15 1.01002 0
-1.05456e-14 1.00706 0
2.65594e-15 1.00706 0
-7.46634e-15 1.00855 0
9.85336e-16 1.00855 0
2.65594e-15 1.00706 0
-7.39842e-15 1.00706 0
9.85336e-16 1.00855 0
3.3613e-15 1.00855 0
7.55856e-15 1.00855 0
1.33676e-15 1.00855 0
-1.33765e-15 1.01002 0
1.71372e-15 1.01002 0
1.33676e-15 1.00855 0
2.22821e-15 1.00855 0
1.71372e-15 1.01002 0
-2.46842e-15 1.01002 0
-2.83898e-14 1.01002 0
1.482e-14 1.01002 0
-2.32396e-14 1.01145 0
1.7891e-14 1.01145 0
1.482e-14 1.01002 0
-5.37809e-16 1.01002 0
1.7891e-14 1.01145 0
-7.5525e-15 1.01145 0
-1.15765e-14 1.01145 0
-1.56663e-14 1.01145 0
9.61879e-16 1.01287 0
-3.51449e-15 1.01287 0
-1.56663e-14 1.01145 0
3.17496e-14 1.01145 0
-3.51449e-15 1.01287 0
2.60206e-14 1.01287 0
-5.37809e-16 1.01002 0
-5.38945e-15 1.01002 0
-7.5525e-15 1.01145 0
6.60526e-15 1.01145 0
-5.38945e-15 1.01002 0
-1.70904e-15 1.01002 0
6.60526e-15 1.01145 0
2.80835e-15 1.01145 0
3.17496e-14 1.01145 0
2.32664e-15 1.01145 0
2.60206e-14 1.01287 0
4.08689e-15 1.01287 0
2.32664e-15 1.01145 0
-5.3014e-15 1.01145 0
4.08689e-15 1.01287 0
3.74772e-15 1.01287 0
-7.39842e-15 1.00706 0
-1.72757e-15 1.00706 0
3.3613e-15 1.00855 0
-6.77601e-16 1.00855 0
-1.72757e-15 1.00706 0
-2.14179e-15 1.00706 0
-6.77601e-16 1.00855 0
4.20217e-15 1.00855 0
2.22821e-15 1.00855 0
-3.03633e-15 1.00855 0
-2.46842e-15 1.01002 0
1.65964e-15 1.01002 0
-3.03633e-15 1.00855 0
6.61788e-15 1.00855 0
1.65964e-15 1.01002 0
-6.89548e-15 1.01002 0
-2.14179e-15 1.00706 0
-8.71451e-16 1.00706 0
4.20217e-15 1.00855 0
6.00727e-15 1.00855 0
-8.71451e-16 1.00706 0
-2.40056e-16 1.00706 0
6.00727e-15 1.00855 0
7.42327e-15 1.00855 0
6.61788e-15 1.00855 0
-6.36317e-15 1.00855 0
-6.89548e-15 1.01002 0
4.65205e-15 1.01002 0
-6.36317e-15 1.00855 0
-4.29288e-15 1.00855 0
4.65205e-15 1.01002 0
2.41075e-15 1.01002 0
-1.70904e-15 1.01002 0
-2.6634e-16 1.01002 0
2.80835e-15 1.01145 0
-2.92071e-15 1.01145 0
-2.6634e-16 1.01002 0
-6.94886e-15 1.01002 0
-2.92071e-15 1.01145 0
4.68791e-15 1.01145 0
-5.3014e-15 1.01145 0
3.20538e-15 1.01145 0
3.74772e-15 1.01287 0
5.39971e-16 1.01287 0
3.20538e-15 1.01145 0
-1.4562e-15 1.01145 0
5.39971e-16 1.01287 0
2.02392e-15 1.01287 0
-6.94886e-15 1.01002 0
1.41416e-15 1.01002 0
4.68791e-15 1.01145 0
1.70889e-15 1.01145 0
1.41416e-15 1.01002 0
-8.17982e-16 1.01002 0
1.70889e-15 1.01145 0
6.11722e-15 1.01145 0
-1.4562e-15 1.01145 0
-7.18235e-15 1.01145 0
2.02392e-15 1.01287 0
-1.15153e-15 1.01287 0
-7.18235e-15 1.01145 0
-1.29907e-15 1.01145 0
-1.15153e-15 1.01287 0
-1.67526e-15 1.01287 0
0 1.01287 0
-6.51558e-14 1.01287 0
0 1.01427 0
-5.4635e-14 1.01427 0
-6.51558e-14 1.01287 0
-1.33023e-13 1.01287 0
-5.4635e-14 1.01427 0
-1.30695e-13 1.01427 0
0 1.01427 0
5.92404e-14 1.01427 0
0 1.01566 0
5.59086e-14 1.01566 0
5.92404e-14 1.01427 0
1.25736e-13 1.01427 0
5.59086e-14 1.01566 0
1.25126e-13 1.01566 0
-1.33023e-13 1.01287 0
4.5277e-14 1.01287 0
-1.30695e-13 1.01427 0
3.94877e-14 1.01427 0
4.5277e-14 1.01287 0
1.00598e-13 1.01287 0
3.94877e-14 1.01427 0
9.82175e-14 1.01427 0
1.25736e-13 1.01427 0
-1.40402e-13 1.01427 0
1.25126e-13 1.01566 0
-1.32414e-13 1.01566 0
-1.40402e-13 1.01427 0
-5.83403e-14 1.01427 0
-1.32414e-13 1.01566 0
-6.3136e-14 1.01566 0
0 1.01566 0
-5.79763e-14 1.01566 0
0 1.01706 0
-5.44151e-14 1.01706 0
-5.79763e-14 1.01566 0
-9.4308e-14 1.01566 0
-5.44151e-14 1.01706 0
-8.77875e-14 1.01706 0
0 1.01706 0
4.16131e-14 1.01706 0
0 1.01846 0
4.05738e-14 1.01846 0
4.16131e-14 1.01706 0
5.92647e-14 1.01706 0
4.05738e-14 1.01846 0
5.7179e-14 1.01846 0
-9.4308e-14 1.01566 0
8.95452e-14 1.01566 0
-8.77875e-14 1.01706 0
9.42297e-14 1.01706 0
8.95452e-14 1.01566 0
4.68456e-14 1.01566 0
9.42297e-14 1.01706 0
4.84972e-14 1.01706 0
5.92647e-14 1.01706 0
-3.24691e-14 1.01706 0
5.7179e-14 1.01846 0
-2.79152e-14 1.01846 0
-3.24691e-14 1.01706 0
-8.47927e-15 1.01706 0
-2.79152e-14 1.01846 0
-9.69734e-15 1.01846 0
1.00598e-13 1.01287 0
7.00464e-14 1.01287 0
9.82175e-14 1.01427 0
7.7488e-14 1.01427 0
7.00464e-14 1.01287 0
7.71005e-15 1.01287 0
7.7488e-14 1.01427 0
9.36449e-15 1.01427 0
-5.83403e-14 1.01427 0
-1.12659e-14 1.01427 0
-6.3136e-14 1.01566 0
-8.85876e-15 1.01566 0
-1.12659e-14 1.01427 0
-9.39335e-15 1.01427 0
-8.85876e-15 1.01566 0
5.43946e-16 1.01566 0
7.71005e-15 1.01287 0
-1.30332e-14 1.01287 0
9.36449e-15 1.01427 0
-8.42223e-15 1.01427 0
-1.30332e-14 1.01287 0
6.36037e-15 1.01287 0
-8.42223e-15 1.01427 0
1.01348e-14 1.01427 0
-9.39335e-15 1.01427 0
1.95285e-15 1.01427 0
5.43946e-16 1.01566 0
8.01508e-15 1.01566 0
1.95285e-15 1.01427 0
-4.21467e-15 1.01427 0
8.01508e-15 1.01566 0
-1.32952e-15 1.01566 0
4.68456e-14 1.01566 0
7.53111e-16 1.01566 0
4.84972e-14 1.01706 0
2.15066e-15 1.01706 0
7.53111e-16 1.01566 0
1.64508e-15 1.01566 0
2.15066e-15 1.01706 0
4.7087e-15 1.01706 0
-8.47927e-15 1.01706 0
6.2133e-16 1.01706 0
-9.69734e-15 1.01846 0
5.69589e-16 1.01846 0
6.2133e-16 1.01706 0
-3.14171e-16 1.01706 0
5.69589e-16 1.01846 0
-2.49092e-15 1.01846 0
1.64508e-15 1.01566 0
-1.97831e-15 1.01566 0
4.7087e-15 1.01706 0
6.59633e-15 1.01706 0
-1.97831e-15 1.01566 0
-3.71459e-15 1.01566 0
6.59633e-15 1.01706 0
4.30616e-15 1.01706 0
-3.14171e-16 1.01706 0
-3.83411e-15 1.01706 0
-2.49092e-15 1.01846 0
2.44881e-15 1.01846 0
-3.83411e-15 1.01706 0
-1.75082e-15 1.01706 0
2.44881e-15 1.01846 0
-8.67835e-16 1.01846 0
0 1.01846 0
2.96269e-14 1.01846 0
0 1.01988 0
2.81068e-14 1.01988 0
2.96269e-14 1.01846 0
-3.54959e-14 1.01846 0
2.81068e-14 1.01988 0
-3.2931e-14 1.01988 0
0 1.01988 0
-4.03348e-14 1.01988 0
0 1.02126 0
-3.58037e-14 1.02126 0
-4.03348e-14 1.01988 0
3.63246e-14 1.01988 0
-3.58037e-14 1.02126 0
3.62771e-14 1.02126 0
-3.54959e-14 1.01846 0
4.87256e-15 1.01846 0
-3.2931e-14 1.01988 0
5.77677e-15 1.01988 0
4.87256e-15 1.01846 0
-1.61623e-14 1.01846 0
5.77677e-15 1.01988 0
-1.15162e-14 1.01988 0
3.63246e-14 1.01988 0
-3.83331e-15 1.01988 0
3.62771e-14 1.02126 0
3.4805e-16 1.02126 0
-3.83331e-15 1.01988 0
-4.0766e-15 1.01988 0
3.4805e-16 1.02126 0
-1.0574e-15 1.02126 0
0 1.02126 0
4.20993e-15 1.02126 0
0 1.02247 0
2.52729e-15 1.02247 0
4.20993e-15 1.02126 0
-3.65167e-14 1.02126 0
2.52729e-15 1.02247 0
-3.66669e-14 1.02247 0
0 1.02247 0
3.4363e-15 1.02247 0
0 1.02302 0
-1.18834e-15 1.02302 0
3.4363e-15 1.02247 0
-6.04127e-15 1.02247 0
-1.18834e-15 1.02302 0
5.61312e-15 1.02302 0
-3.65167e-14 1.02126 0
1.95062e-16 1.02126 0
-3.66669e-14 1.02247 0
1.15207e-15 1.02247 0
1.95062e-16 1.02126 0
3.40944e-15 1.02126 0
1.15207e-15 1.02247 0
1.30974e-15 1.02247 0
-6.04127e-15 1.02247 0
-7.68858e-15 1.02247 0
5.61312e-15 1.02302 0
-1.75086e-14 1.02302 0
-7.68858e-15 1.02247 0
-2.28861e-16 1.02247 0
-1.75086e-14 1.02302 0
1.77831e-14 1.02302 0
-1.61623e-14 1.01846 0
-1.69119e-14 1.01846 0
-1.15162e-14 1.01988 0
-7.58563e-15 1.01988 0
-1.69119e-14 1.01846 0
2.50173e-15 1.01846 0
-7.58563e-15 1.01988 0
-1.63933e-15 1.01988 0
-4.0766e-15 1.01988 0
8.64659e-15 1.01988 0
-1.0574e-15 1.02126 0
1.00517e-14 1.02126 0
8.64659e-15 1.01988 0
-2.59341e-15 1.01988 0
1.00517e-14 1.02126 0
1.11977e-15 1.02126 0
2.50173e-15 1.01846 0
-4.33664e-16 1.01846 0
-1.63933e-15 1.01988 0
6.57048e-16 1.01988 0
-4.33664e-16 1.01846 0
-1.92065e-15 1.01846 0
6.57048e-16 1.01988 0
1.34663e-15 1.01988 0
-2.59341e-15 1.01988 0
-5.03883e-15 1.01988 0
1.11977e-15 1.02126 0
1.2166e-15 1.02126 0
-5.03883e-15 1.01988 0
-1.29703e-15 1.01988 0
1.2166e-15 1.02126 0
-2.68842e-16 1.02126 0
3.40944e-15 1.02126 0
-1.37953e-14 1.02126 0
1.30974e-15 1.02247 0
-8.49172e-15 1.02247 0
-1.37953e-14 1.02126 0
1.46026e-18 1.02126 0
-8.49172e-15 1.02247 0
1.2636e-16 1.02247 0
-2.28861e-16 1.02247 0
-4.90531e-15 1.02247 0
1.77831e-14 1.02302 0
3.74195e-15 1.02302 0
-4.90531e-15 1.02247 0
-8.83649e-16 1.02247 0
3.74195e-15 1.02302 0
-1.43115e-15 1.02302 0
1.46026e-18 1.02126 0
-7.93366e-16 1.02126 0
1.2636e-16 1.02247 0
1.10027e-15 1.02247 0
-7.93366e-16 1.02126 0
1.86782e-15 1.02126 0
1.10027e-15 1.02247 0
5.78555e-16 1.02247 0
-8.83649e-16 1.02247 0
-4.99663e-16 1.02247 0
-1.43115e-15 1.02302 0
8.21746e-15 1.02302 0
-4.99663e-16 1.02247 0
1.0645e-15 1.02247 0
8.21746e-15 1.02302 0
-2.21723e-14 1.02302 0
6.36037e-15 1.01287 0
9.49206e-15 1.01287 0
1.01348e-14 1.01427 0
1.20541e-14 1.01427 0
9.49206e-15 1.01287 0
-1.87459e-14 1.01287 0
1.20541e-14 1.01427 0
-1.96122e-14 1.01427 0
-4.21467e-15 1.01427 0
-1.26013e-15 1.01427 0
-1.32952e-15 1.01566 0
3.09859e-15 1.01566 0
-1.26013e-15 1.01427 0
-2.26121e-15 1.01427 0
3.09859e-15 1.01566 0
6.09876e-15 1.01566 0
-1.87459e-14 1.01287 0
-3.9139e-15 1.01287 0
-1.96122e-14 1.01427 0
8.1969e-16 1.01427 0
-3.9139e-15 1.01287 0
-3.81028e-16 1.01287 0
8.1969e-16 1.01427 0
3.93531e-15 1.01427 0
-2.26121e-15 1.01427 0
2.61388e-15 1.01427 0
6.09876e-15 1.01566 0
2.79504e-15 1.01566 0
2.61388e-15 1.01427 0
-1.11706e-15 1.01427 0
2.79504e-15 1.01566 0
7.85011e-15 1.01566 0
-3.71459e-15 1.01566 0
-5.15575e-15 1.01566 0
4.30616e-15 1.01706 0
4.75069e-15 1.01706 0
-5.15575e-15 1.01566 0
-5.90825e-15 1.01566 0
4.75069e-15 1.01706 0
4.74133e-15 1.01706 0
-1.75082e-15 1.01706 0
-2.21484e-15 1.01706 0
-8.67835e-16 1.01846 0
2.69552e-15 1.01846 0
-2.21484e-15 1.01706 0
2.09287e-15 1.01706 0
2.69552e-15 1.01846 0
-2.0317e-15 1.01846 0
-5.90825e-15 1.01566 0
-3.01271e-15 1.01566 0
4.74133e-15 1.01706 0
4.94148e-15 1.01706 0
-3.01271e-15 1.01566 0
-5.11312e-15 1.01566 0
4.94148e-15 1.01706 0
3.46663e-15 1.01706 0
2.09287e-15 1.01706 0
-5.98361e-15 1.01706 0
-2.0317e-15 1.01846 0
4.29885e-15 1.01846 0
-5.98361e-15 1.01706 0
1.87561e-15 1.01706 0
4.29885e-15 1.01846 0
8.02726e-16 1.01846 0
-3.81028e-16 1.01287 0
-7.62918e-16 1.01287 0
3.93531e-15 1.01427 0
1.92209e-15 1.01427 0
-7.62918e-16 1.01287 0
6.49216e-16 1.01287 0
1.92209e-15 1.01427 0
2.64709e-15 1.01427 0
-1.11706e-15 1.01427 0
-9.52799e-16 1.01427 0
7.85011e-15 1.01566 0
4.42928e-15 1.01566 0
-9.52799e-16 1.01427 0
2.10724e-15 1.01427 0
4.42928e-15 1.01566 0
1.25746e-15 1.01566 0
6.49216e-16 1.01287 0
-4.36082e-15 1.01287 0
2.64709e-15 1.01427 0
5.29042e-15 1.01427 0
-4.36082e-15 1.01287 0
4.53891e-15 1.01287 0
5.29042e-15 1.01427 0
-3.92928e-15 1.01427 0
2.10724e-15 1.01427 0
-1.51088e-15 1.01427 0
1.25746e-15 1.01566 0
5.99853e-15 1.01566 0
-1.51088e-15 1.01427 0
4.80343e-16 1.01427 0
5.99853e-15 1.01566 0
5.00537e-15 1.01566 0
-5.11312e-15 1.01566 0
-3.3055e-15 1.01566 0
3.46663e-15 1.01706 0
2.05301e-15 1.01706 0
-3.3055e-15 1.01566 0
-2.17457e-16 1.01566 0
2.05301e-15 1.01706 0
1.02118e-16 1.01706 0
1.87561e-15 1.01706 0
-1.89821e-15 1.01706 0
8.02726e-16 1.01846 0
5.32665e-15 1.01846 0
-1.89821e-15 1.01706 0
-2.84651e-15 1.01706 0
5.32665e-15 1.01846 0
2.75707e-15 1.01846 0
-2.17457e-16 1.01566 0
-4.69297e-15 1.01566 0
1.02118e-16 1.01706 0
5.28889e-15 1.01706 0
-4.69297e-15 1.01566 0
-1.56357e-15 1.01566 0
5.28889e-15 1.01706 0
4.55458e-15 1.01706 0
-2.84651e-15 1.01706 0
-6.65022e-16 1.01706 0
2.75707e-15 1.01846 0
-5.06103e-15 1.01846 0
-6.65022e-16 1.01706 0
5.92271e-15 1.01706 0
-5.06103e-15 1.01846 0
-4.65272e-15 1.01846 0
-1.92065e-15 1.01846 0
-9.31691e-15 1.01846 0
1.34663e-15 1.01988 0
1.77483e-15 1.01988 0
-9.31691e-15 1.01846 0
-2.25193e-15 1.01846 0
1.77483e-15 1.01988 0
-1.02568e-15 1.01988 0
-1.29703e-15 1.01988 0
-1.36094e-15 1.01988 0
-2.68842e-16 1.02126 0
2.27773e-15 1.02126 0
-1.36094e-15 1.01988 0
8.97608e-16 1.01988 0
2.27773e-15 1.02126 0
-2.90843e-16 1.02126 0
-2.25193e-15 1.01846 0
1.23437e-15 1.01846 0
-1.02568e-15 1.01988 0
2.30214e-15 1.01988 0
1.23437e-15 1.01846 0
-4.82939e-15 1.01846 0
2.30214e-15 1.01988 0