# vtk DataFile Version 3.0
#This file was generated by the deal.II library on 2018/10/12 at 1:17:07
ASCII
DATASET UNSTRUCTURED_GRID

POINTS 5120 double
0 0 0
0.392699 0 0
0 0.597116 0
0.392699 0.597116 0
0.392699 0 0
0.785398 0 0
0.392699 0.597116 0
0.785398 0.597116 0
0 0.597116 0
0.392699 0.597116 0
0 1.22413 0
0.392699 1.22413 0
0.392699 0.597116 0
0.785398 0.597116 0
0.392699 1.22413 0
0.785398 1.22413 0
0.785398 0 0
1.1781 0 0
0.785398 0.597116 0
1.1781 0.597116 0
1.1781 0 0
1.5708 0 0
1.1781 0.597116 0
1.5708 0.597116 0
0.785398 0.597116 0
1.1781 0.597116 0
0.785398 1.22413 0
1.1781 1.22413 0
1.1781 0.597116 0
1.5708 0.597116 0
1.1781 1.22413 0
1.5708 1.22413 0
0 1.22413 0
0.392699 1.22413 0
0 1.85015 0
0.392699 1.85015 0
0.392699 1.22413 0
0.785398 1.22413 0
0.392699 1.85015 0
0.785398 1.85015 0
0 1.85015 0
0.392699 1.85015 0
0 2.47719 0
0.392699 2.47719 0
0.392699 1.85015 0
0.785398 1.85015 0
0.392699 2.47719 0
0.785398 2.47719 0
0.785398 1.22413 0
1.1781 1.22413 0
0.785398 1.85015 0
1.1781 1.85015 0
1.1781 1.22413 0
1.5708 1.22413 0
1.1781 1.85015 0
1.5708 1.85015 0
0.785398 1.85015 0
1.1781 1.85015 0
0.785398 2.47719 0
1.1781 2.47719 0
1.1781 1.85015 0
1.5708 1.85015 0
1.1781 2.47719 0
1.5708 2.47719 0
1.5708 0 0
1.9635 0 0
1.5708 0.597116 0
1.9635 0.597116 0
1.9635 0 0
2.35619 0 0
1.9635 0.597116 0
2.35619 0.597116 0
1.5708 0.597116 0
1.9635 0.597116 0
1.5708 1.22413 0
1.9635 1.22413 0
1.9635 0.597116 0
2.35619 0.597116 0
1.9635 1.22413 0
2.35619 1.22413 0
2.35619 0 0
2.74889 0 0
2.35619 0.597116 0
2.74889 0.597116 0
2.74889 0 0
3.14159 0 0
2.74889 0.597116 0
3.14159 0.597116 0
2.35619 0.597116 0
2.74889 0.597116 0
2.35619 1.22413 0
2.74889 1.22413 0
2.74889 0.597116 0
3.14159 0.597116 0
2.74889 1.22413 0
3.14159 1.22413 0
1.5708 1.22413 0
1.9635 1.22413 0
1.5708 1.85015 0
1.9635 1.85015 0
1.9635 1.22413 0
2.35619 1.22413 0
1.9635 1.85015 0
2.35619 1.85015 0
1.5708 1.85015 0
1.9635 1.85015 0
1.5708 2.47719 0
1.9635 2.47719 0
1.9635 1.85015 0
2.35619 1.85015 0
1.9635 2.47719 0
2.35619 2.47719 0
2.35619 1.22413 0
2.74889 1.22413 0
2.35619 1.85015 0
2.74889 1.85015 0
2.74889 1.22413 0
3.14159 1.22413 0
2.74889 1.85015 0
3.14159 1.85015 0
2.35619 1.85015 0
2.74889 1.85015 0
2.35619 2.47719 0
2.74889 2.47719 0
2.74889 1.85015 0
3.14159 1.85015 0
2.74889 2.47719 0
3.14159 2.47719 0
0 2.47719 0
0.392699 2.47719 0
0 3.10396 0
0.392699 3.10396 0
0.392699 2.47719 0
0.785398 2.47719 0
0.392699 3.10396 0
0.785398 3.10396 0
0 3.10396 0
0.392699 3.10396 0
0 3.73074 0
0.392699 3.73074 0
0.392699 3.10396 0
0.785398 3.10396 0
0.392699 3.73074 0
0.785398 3.73074 0
0.785398 2.47719 0
1.1781 2.47719 0
0.785398 3.10396 0
1.1781 3.10396 0
1.1781 2.47719 0
1.5708 2.47719 0
1.1781 3.10396 0
1.5708 3.10396 0
0.785398 3.10396 0
1.1781 3.10396 0
0.785398 3.73074 0
1.1781 3.73074 0
1.1781 3.10396 0
1.5708 3.10396 0
1.1781 3.73074 0
1.5708 3.73074 0
0 3.73074 0
0.392699 3.73074 0
0 4.35744 0
0.392699 4.35744 0
0.392699 3.73074 0
0.785398 3.73074 0
0.392699 4.35744 0
0.785398 4.35744 0
0 4.35744 0
0.392699 4.35744 0
0 4.98406 0
0.392699 4.98406 0
0.392699 4.35744 0
0.785398 4.35744 0
0.392699 4.98406 0
0.785398 4.98406 0
0.785398 3.73074 0
1.1781 3.73074 0
0.785398 4.35744 0
1.1781 4.35744 0
1.1781 3.73074 0
1.5708 3.73074 0
1.1781 4.35744 0
1.5708 4.35744 0
0.785398 4.35744 0
1.1781 4.35744 0
0.785398 4.98406 0
1.1781 4.98406 0
1.1781 4.35744 0
1.5708 4.35744 0
1.1781 4.98406 0
1.5708 4.98406 0
1.5708 2.47719 0
1.9635 2.47719 0
1.5708 3.10396 0
1.9635 3.10396 0
1.9635 2.47719 0
2.35619 2.47719 0
1.9635 3.10396 0
2.35619 3.10396 0
1.5708 3.10396 0
1.9635 3.10396 0
1.5708 3.73074 0
1.9635 3.73074 0
1.9635 3.10396 0
2.35619 3.10396 0
1.9635 3.73074 0
2.35619 3.73074 0
2.35619 2.47719 0
2.74889 2.47719 0
2.35619 3.10396 0
2.74889 3.10396 0
2.74889 2.47719 0
3.14159 2.47719 0
2.74889 3.10396 0
3.14159 3.10396 0
2.35619 3.10396 0
2.74889 3.10396 0
2.35619 3.73074 0
2.74889 3.73074 0
2.74889 3.10396 0
3.14159 3.10396 0
2.74889 3.73074 0
3.14159 3.73074 0
1.5708 3.73074 0
1.9635 3.73074 0
1.5708 4.35744 0
1.9635 4.35744 0
1.9635 3.73074 0
2.35619 3.73074 0
1.9635 4.35744 0
2.35619 4.35744 0
1.5708 4.35744 0
1.9635 4.35744 0
1.5708 4.98406 0
1.9635 4.98406 0
1.9635 4.35744 0
2.35619 4.35744 0
1.9635 4.98406 0
2.35619 4.98406 0
2.35619 3.73074 0
2.74889 3.73074 0
2.35619 4.35744 0
2.74889 4.35744 0
2.74889 3.73074 0
3.14159 3.73074 0
2.74889 4.35744 0
3.14159 4.35744 0
2.35619 4.35744 0
2.74889 4.35744 0
2.35619 4.98406 0
2.74889 4.98406 0
2.74889 4.35744 0
3.14159 4.35744 0
2.74889 4.98406 0
3.14159 4.98406 0
3.14159 0 0
3.53429 0 0
3.14159 0.597116 0
3.53429 0.597116 0
3.53429 0 0
3.92699 0 0
3.53429 0.597116 0
3.92699 0.597116 0
3.14159 0.597116 0
3.53429 0.597116 0
3.14159 1.22413 0
3.53429 1.22413 0
3.53429 0.597116 0
3.92699 0.597116 0
3.53429 1.22413 0
3.92699 1.22413 0
3.92699 0 0
4.31969 0 0
3.92699 0.597116 0
4.31969 0.597116 0
4.31969 0 0
4.71239 0 0
4.31969 0.597116 0
4.71239 0.597116 0
3.92699 0.597116 0
4.31969 0.597116 0
3.92699 1.22413 0
4.31969 1.22413 0
4.31969 0.597116 0
4.71239 0.597116 0
4.31969 1.22413 0
4.71239 1.22413 0
3.14159 1.22413 0
3.53429 1.22413 0
3.14159 1.85015 0
3.53429 1.85015 0
3.53429 1.22413 0
3.92699 1.22413 0
3.53429 1.85015 0
3.92699 1.85015 0
3.14159 1.85015 0
3.53429 1.85015 0
3.14159 2.47719 0
3.53429 2.47719 0
3.53429 1.85015 0
3.92699 1.85015 0
3.53429 2.47719 0
3.92699 2.47719 0
3.92699 1.22413 0
4.31969 1.22413 0
3.92699 1.85015 0
4.31969 1.85015 0
4.31969 1.22413 0
4.71239 1.22413 0
4.31969 1.85015 0
4.71239 1.85015 0
3.92699 1.85015 0
4.31969 1.85015 0
3.92699 2.47719 0
4.31969 2.47719 0
4.31969 1.85015 0
4.71239 1.85015 0
4.31969 2.47719 0
4.71239 2.47719 0
4.71239 0 0
5.10509 0 0
4.71239 0.597116 0
5.10509 0.597116 0
5.10509 0 0
5.49779 0 0
5.10509 0.597116 0
5.49779 0.597116 0
4.71239 0.597116 0
5.10509 0.597116 0
4.71239 1.22413 0
5.10509 1.22413 0
5.10509 0.597116 0
5.49779 0.597116 0
5.10509 1.22413 0
5.49779 1.22413 0
5.49779 0 0
5.89049 0 0
5.49779 0.597116 0
5.89049 0.597116 0
5.89049 0 0
6.28319 0 0
5.89049 0.597116 0
6.28319 0.597116 0
5.49779 0.597116 0
5.89049 0.597116 0
5.49779 1.22413 0
5.89049 1.22413 0
5.89049 0.597116 0
6.28319 0.597116 0
5.89049 1.22413 0
6.28319 1.22413 0
4.71239 1.22413 0
5.10509 1.22413 0
4.71239 1.85015 0
5.10509 1.85015 0
5.10509 1.22413 0
5.49779 1.22413 0
5.10509 1.85015 0
5.49779 1.85015 0
4.71239 1.85015 0
5.10509 1.85015 0
4.71239 2.47719 0
5.10509 2.47719 0
5.10509 1.85015 0
5.49779 1.85015 0
5.10509 2.47719 0
5.49779 2.47719 0
5.49779 1.22413 0
5.89049 1.22413 0
5.49779 1.85015 0
5.89049 1.85015 0
5.89049 1.22413 0
6.28319 1.22413 0
5.89049 1.85015 0
6.28319 1.85015 0
5.49779 1.85015 0
5.89049 1.85015 0
5.49779 2.47719 0
5.89049 2.47719 0
5.89049 1.85015 0
6.28319 1.85015 0
5.89049 2.47719 0
6.28319 2.47719 0
3.14159 2.47719 0
3.53429 2.47719 0
3.14159 3.10396 0
3.53429 3.10396 0
3.53429 2.47719 0
3.92699 2.47719 0
3.53429 3.10396 0
3.92699 3.10396 0
3.14159 3.10396 0
3.53429 3.10396 0
3.14159 3.73074 0
3.53429 3.73074 0
3.53429 3.10396 0
3.92699 3.10396 0
3.53429 3.73074 0
3.92699 3.73074 0
3.92699 2.47719 0
4.31969 2.47719 0
3.92699 3.10396 0
4.31969 3.10396 0
4.31969 2.47719 0
4.71239 2.47719 0
4.31969 3.10396 0
4.71239 3.10396 0
3.92699 3.10396 0
4.31969 3.10396 0
3.92699 3.73074 0
4.31969 3.73074 0
4.31969 3.10396 0
4.71239 3.10396 0
4.31969 3.73074 0
4.71239 3.73074 0
3.14159 3.73074 0
3.53429 3.73074 0
3.14159 4.35744 0
3.53429 4.35744 0
3.53429 3.73074 0
3.92699 3.73074 0
3.53429 4.35744 0
3.92699 4.35744 0
3.14159 4.35744 0
3.53429 4.35744 0
3.14159 4.98406 0
3.53429 4.98406 0
3.53429 4.35744 0
3.92699 4.35744 0
3.53429 4.98406 0
3.92699 4.98406 0
3.92699 3.73074 0
4.31969 3.73074 0
3.92699 4.35744 0
4.31969 4.35744 0
4.31969 3.73074 0
4.71239 3.73074 0
4.31969 4.35744 0
4.71239 4.35744 0
3.92699 4.35744 0
4.31969 4.35744 0
3.92699 4.98406 0
4.31969 4.98406 0
4.31969 4.35744 0
4.71239 4.35744 0
4.31969 4.98406 0
4.71239 4.98406 0
4.71239 2.47719 0
5.10509 2.47719 0
4.71239 3.10396 0
5.10509 3.10396 0
5.10509 2.47719 0
5.49779 2.47719 0
5.10509 3.10396 0
5.49779 3.10396 0
4.71239 3.10396 0
5.10509 3.10396 0
4.71239 3.73074 0
5.10509 3.73074 0
5.10509 3.10396 0
5.49779 3.10396 0
5.10509 3.73074 0
5.49779 3.73074 0
5.49779 2.47719 0
5.89049 2.47719 0
5.49779 3.10396 0
5.89049 3.10396 0
5.89049 2.47719 0
6.28319 2.47719 0
5.89049 3.10396 0
6.28319 3.10396 0
5.49779 3.10396 0
5.89049 3.10396 0
5.49779 3.73074 0
5.89049 3.73074 0
5.89049 3.10396 0
6.28319 3.10396 0
5.89049 3.73074 0
6.28319 3.73074 0
4.71239 3.73074 0
5.10509 3.73074 0
4.71239 4.35744 0
5.10509 4.35744 0
5.10509 3.73074 0
5.49779 3.73074 0
5.10509 4.35744 0
5.49779 4.35744 0
4.71239 4.35744 0
5.10509 4.35744 0
4.71239 4.98406 0
5.10509 4.98406 0
5.10509 4.35744 0
5.49779 4.35744 0
5.10509 4.98406 0
5.49779 4.98406 0
5.49779 3.73074 0
5.89049 3.73074 0
5.49779 4.35744 0
5.89049 4.35744 0
5.89049 3.73074 0
6.28319 3.73074 0
5.89049 4.35744 0
6.28319 4.35744 0
5.49779 4.35744 0
5.89049 4.35744 0
5.49779 4.98406 0
5.89049 4.98406 0
5.89049 4.35744 0
6.28319 4.35744 0
5.89049 4.98406 0
6.28319 4.98406 0
0 4.98406 0
0.392699 4.98406 0
0 5.6106 0
0.392699 5.6106 0
0.392699 4.98406 0
0.785398 4.98406 0
0.392699 5.6106 0
0.785398 5.6106 0
0 5.6106 0
0.392699 5.6106 0
0 6.23706 0
0.392699 6.23706 0
0.392699 5.6106 0
0.785398 5.6106 0
0.392699 6.23706 0
0.785398 6.23706 0
0.785398 4.98406 0
1.1781 4.98406 0
0.785398 5.6106 0
1.1781 5.6106 0
1.1781 4.98406 0
1.5708 4.98406 0
1.1781 5.6106 0
1.5708 5.6106 0
0.785398 5.6106 0
1.1781 5.6106 0
0.785398 6.23706 0
1.1781 6.23706 0
1.1781 5.6106 0
1.5708 5.6106 0
1.1781 6.23706 0
1.5708 6.23706 0
0 6.23706 0
0.392699 6.23706 0
0 6.86346 0
0.392699 6.86346 0
0.392699 6.23706 0
0.785398 6.23706 0
0.392699 6.86346 0
0.785398 6.86346 0
0 6.86346 0
0.392699 6.86346 0
0 7.48986 0
0.392699 7.48986 0
0.392699 6.86346 0
0.785398 6.86346 0
0.392699 7.48986 0
0.785398 7.48986 0
0.785398 6.23706 0
1.1781 6.23706 0
0.785398 6.86346 0
1.1781 6.86346 0
[...]
POINT_DATA 5120
VECTORS uf double
0 1 0
-1.33794e-13 1 0
0 1.00251 0
-1.2725e-13 1.00251 0
-1.33794e-13 1 0
-2.69038e-15 1 0
-1.2725e-13 1.00251 0
-5.98295e-15 1.00251 0
0 1.00251 0
9.23744e-14 1.00251 0
0 1.0038 0
1.00966e-13 1.0038 0
9.23744e-14 1.00251 0
-1.40018e-14 1.00251 0
1.00966e-13 1.0038 0
-1.2895e-14 1.0038 0
-2.69038e-15 1 0
2.20941e-13 1 0
-5.98295e-15 1.00251 0
2.12202e-13 1.00251 0
2.20941e-13 1 0
4.35099e-14 1 0
2.12202e-13 1.00251 0
5.12979e-14 1.00251 0
-1.40018e-14 1.00251 0
-2.23406e-13 1.00251 0
-1.2895e-14 1.0038 0
-2.04353e-13 1.0038 0
-2.23406e-13 1.00251 0
-5.41228e-14 1.00251 0
-2.04353e-13 1.0038 0
-3.28772e-14 1.0038 0
0 1.0038 0
-1.15724e-15 1.0038 0
0 1.00536 0
-5.07956e-15 1.00536 0
-1.15724e-15 1.0038 0
6.34176e-14 1.0038 0
-5.07956e-15 1.00536 0
6.49987e-14 1.00536 0
0 1.00536 0
4.61972e-14 1.00536 0
0 1.00681 0
3.71609e-14 1.00681 0
4.61972e-14 1.00536 0
9.25893e-17 1.00536 0
3.71609e-14 1.00681 0
2.08514e-15 1.00681 0
6.34176e-14 1.0038 0
-2.44467e-15 1.0038 0
6.49987e-14 1.00536 0
6.02778e-15 1.00536 0
-2.44467e-15 1.0038 0
-1.06561e-14 1.0038 0
6.02778e-15 1.00536 0
6.03522e-15 1.00536 0
9.25893e-17 1.00536 0
3.31963e-14 1.00536 0
2.08514e-15 1.00681 0
2.66093e-14 1.00681 0
3.31963e-14 1.00536 0
-4.11898e-14 1.00536 0
2.66093e-14 1.00681 0
-2.88139e-14 1.00681 0
4.35099e-14 1 0
-3.23508e-14 1 0
5.12979e-14 1.00251 0
-1.84653e-14 1.00251 0
-3.23508e-14 1 0
-4.0349e-15 1 0
-1.84653e-14 1.00251 0
3.37326e-15 1.00251 0
-5.41228e-14 1.00251 0
2.47188e-14 1.00251 0
-3.28772e-14 1.0038 0
2.40246e-14 1.0038 0
2.47188e-14 1.00251 0
-9.37061e-15 1.00251 0
2.40246e-14 1.0038 0
1.28138e-14 1.0038 0
-4.0349e-15 1 0
6.16445e-15 1 0
3.37326e-15 1.00251 0
-3.80142e-15 1.00251 0
6.16445e-15 1 0
-2.69949e-15 1 0
-3.80142e-15 1.00251 0
5.42999e-15 1.00251 0
-9.37061e-15 1.00251 0
-4.98382e-15 1.00251 0
1.28138e-14 1.0038 0
2.17778e-15 1.0038 0
-4.98382e-15 1.00251 0
-2.97067e-15 1.00251 0
2.17778e-15 1.0038 0
1.93449e-15 1.0038 0
-1.06561e-14 1.0038 0
3.58987e-14 1.0038 0
6.03522e-15 1.00536 0
3.23886e-14 1.00536 0
3.58987e-14 1.0038 0
1.34917e-15 1.0038 0
3.23886e-14 1.00536 0
-3.63841e-15 1.00536 0
-4.11898e-14 1.00536 0
-8.25788e-15 1.00536 0
-2.88139e-14 1.00681 0
-8.39568e-15 1.00681 0
-8.25788e-15 1.00536 0
6.86793e-15 1.00536 0
-8.39568e-15 1.00681 0
-6.10969e-15 1.00681 0
1.34917e-15 1.0038 0
-1.12401e-15 1.0038 0
-3.63841e-15 1.00536 0
3.03747e-15 1.00536 0
-1.12401e-15 1.0038 0
1.34129e-15 1.0038 0
3.03747e-15 1.00536 0
1.90703e-15 1.00536 0
6.86793e-15 1.00536 0
-4.08912e-15 1.00536 0
-6.10969e-15 1.00681 0
4.90784e-15 1.00681 0
-4.08912e-15 1.00536 0
-1.11999e-16 1.00536 0
4.90784e-15 1.00681 0
-1.11244e-15 1.00681 0
0 1.00681 0
-6.99903e-14 1.00681 0
0 1.00826 0
-7.19793e-14 1.00826 0
-6.99903e-14 1.00681 0
-6.00498e-14 1.00681 0
-7.19793e-14 1.00826 0
-5.48349e-14 1.00826 0
0 1.00826 0
6.388e-14 1.00826 0
0 1.00967 0
6.36884e-14 1.00967 0
6.388e-14 1.00826 0
8.80929e-14 1.00826 0
6.36884e-14 1.00967 0
9.17546e-14 1.00967 0
-6.00498e-14 1.00681 0
-4.55353e-14 1.00681 0
-5.48349e-14 1.00826 0
-3.9641e-14 1.00826 0
-4.55353e-14 1.00681 0
6.02968e-14 1.00681 0
-3.9641e-14 1.00826 0
5.46243e-14 1.00826 0
8.80929e-14 1.00826 0
5.80826e-14 1.00826 0
9.17546e-14 1.00967 0
5.75785e-14 1.00967 0
5.80826e-14 1.00826 0
-6.65321e-14 1.00826 0
5.75785e-14 1.00967 0
-6.28464e-14 1.00967 0
0 1.00967 0
1.96714e-14 1.00967 0
0 1.01106 0
2.17797e-14 1.01106 0
1.96714e-14 1.00967 0
-1.92402e-13 1.00967 0
2.17797e-14 1.01106 0
-1.83946e-13 1.01106 0
0 1.01106 0
-2.58007e-15 1.01106 0
0 1.01244 0
-6.96738e-15 1.01244 0
-2.58007e-15 1.01106 0
1.77355e-13 1.01106 0
-6.96738e-15 1.01244 0
1.74646e-13 1.01244 0
-1.92402e-13 1.00967 0
-3.89202e-14 1.00967 0
-1.83946e-13 1.01106 0
-3.43123e-14 1.01106 0
-3.89202e-14 1.00967 0
1.50233e-13 1.00967 0
-3.43123e-14 1.01106 0
1.393e-13 1.01106 0
1.77355e-13 1.01106 0
2.49032e-14 1.01106 0
1.74646e-13 1.01244 0
2.47724e-14 1.01244 0
2.49032e-14 1.01106 0
-1.66876e-13 1.01106 0
2.47724e-14 1.01244 0
-1.50888e-13 1.01244 0
6.02968e-14 1.00681 0
3.95601e-15 1.00681 0
5.46243e-14 1.00826 0
-1.57191e-16 1.00826 0
3.95601e-15 1.00681 0
1.23439e-15 1.00681 0
-1.57191e-16 1.00826 0
-2.49594e-15 1.00826 0
-6.65321e-14 1.00826 0
-7.05089e-15 1.00826 0
-6.28464e-14 1.00967 0
-1.4142e-14 1.00967 0
-7.05089e-15 1.00826 0
-4.28226e-15 1.00826 0
-1.4142e-14 1.00967 0
-8.79276e-16 1.00967 0
1.23439e-15 1.00681 0
-3.55852e-15 1.00681 0
-2.49594e-15 1.00826 0
1.92037e-15 1.00826 0
-3.55852e-15 1.00681 0
-6.5677e-15 1.00681 0
1.92037e-15 1.00826 0
1.06581e-14 1.00826 0
-4.28226e-15 1.00826 0
-4.12926e-15 1.00826 0
-8.79276e-16 1.00967 0
5.2876e-15 1.00967 0
-4.12926e-15 1.00826 0
1.04712e-14 1.00826 0
5.2876e-15 1.00967 0
1.85017e-14 1.00967 0
1.50233e-13 1.00967 0
-1.90109e-14 1.00967 0
1.393e-13 1.01106 0
-1.41417e-14 1.01106 0
-1.90109e-14 1.00967 0
-2.48082e-16 1.00967 0
-1.41417e-14 1.01106 0
8.8134e-15 1.01106 0
-1.66876e-13 1.01106 0
-3.86992e-14 1.01106 0
-1.50888e-13 1.01244 0
-3.37897e-14 1.01244 0
-3.86992e-14 1.01106 0
-2.12647e-15 1.01106 0
-3.37897e-14 1.01244 0
3.14943e-15 1.01244 0
-2.48082e-16 1.00967 0
8.83686e-16 1.00967 0
8.8134e-15 1.01106 0
4.06455e-15 1.01106 0
8.83686e-16 1.00967 0
-1.23192e-14 1.00967 0
4.06455e-15 1.01106 0
-4.8024e-15 1.01106 0
-2.12647e-15 1.01106 0
6.61314e-15 1.01106 0
3.14943e-15 1.01244 0
8.38017e-15 1.01244 0
6.61314e-15 1.01106 0
-1.32432e-14 1.01106 0
8.38017e-15 1.01244 0
1.99459e-15 1.01244 0
-2.69949e-15 1 0
4.33967e-16 1 0
5.42999e-15 1.00251 0
8.70327e-15 1.00251 0
4.33967e-16 1 0
-1.96429e-15 1 0
8.70327e-15 1.00251 0
1.26812e-14 1.00251 0
-2.97067e-15 1.00251 0
-2.09262e-15 1.00251 0
1.93449e-15 1.0038 0
3.99609e-15 1.0038 0
-2.09262e-15 1.00251 0
-9.64316e-15 1.00251 0
3.99609e-15 1.0038 0
5.08897e-15 1.0038 0
-1.96429e-15 1 0
4.24058e-15 1 0
1.26812e-14 1.00251 0
7.12023e-15 1.00251 0
4.24058e-15 1 0
3.41767e-16 1 0
7.12023e-15 1.00251 0
1.20513e-14 1.00251 0
-9.64316e-15 1.00251 0
-1.51925e-14 1.00251 0
5.08897e-15 1.0038 0
1.16104e-14 1.0038 0
-1.51925e-14 1.00251 0
-6.58863e-15 1.00251 0
1.16104e-14 1.0038 0
6.32488e-15 1.0038 0
1.34129e-15 1.0038 0
-6.36e-15 1.0038 0
1.90703e-15 1.00536 0
6.74183e-15 1.00536 0
-6.36e-15 1.0038 0
1.04027e-16 1.0038 0
6.74183e-15 1.00536 0
1.56484e-15 1.00536 0
-1.11999e-16 1.00536 0
1.70499e-15 1.00536 0
-1.11244e-15 1.00681 0
1.29527e-15 1.00681 0
1.70499e-15 1.00536 0
8.0231e-15 1.00536 0
1.29527e-15 1.00681 0
-5.16502e-17 1.00681 0
1.04027e-16 1.0038 0
1.21454e-14 1.0038 0
1.56484e-15 1.00536 0
-3.78463e-15 1.00536 0
1.21454e-14 1.0038 0
1.49239e-15 1.0038 0
-3.78463e-15 1.00536 0
2.38442e-15 1.00536 0
8.0231e-15 1.00536 0
-5.2197e-15 1.00536 0
-5.16502e-17 1.00681 0
2.58511e-15 1.00681 0
-5.2197e-15 1.00536 0
4.75091e-15 1.00536 0
2.58511e-15 1.00681 0
4.22651e-15 1.00681 0
3.41767e-16 1 0
5.29967e-15 1 0
1.20513e-14 1.00251 0
4.0287e-15 1.00251 0
5.29967e-15 1 0
3.59257e-15 1 0
4.0287e-15 1.00251 0
8.25588e-15 1.00251 0
-6.58863e-15 1.00251 0
4.39518e-15 1.00251 0
6.32488e-15 1.0038 0
-9.39406e-16 1.0038 0
4.39518e-15 1.00251 0
-6.97338e-15 1.00251 0
-9.39406e-16 1.0038 0
9.83992e-15 1.0038 0
3.59257e-15 1 0
5.90484e-15 1 0
8.25588e-15 1.00251 0
7.94495e-15 1.00251 0
5.90484e-15 1 0
2.95167e-15 1 0
7.94495e-15 1.00251 0
9.20863e-15 1.00251 0
-6.97338e-15 1.00251 0
-3.83961e-16 1.00251 0
9.83992e-15 1.0038 0
-1.71275e-17 1.0038 0
-3.83961e-16 1.00251 0
-4.9542e-15 1.00251 0
-1.71275e-17 1.0038 0
6.82894e-15 1.0038 0
1.49239e-15 1.0038 0
-1.05799e-14 1.0038 0
2.38442e-15 1.00536 0
1.13517e-14 1.00536 0
-1.05799e-14 1.0038 0
3.57438e-15 1.0038 0
1.13517e-14 1.00536 0
3.05505e-15 1.00536 0
4.75091e-15 1.00536 0
-7.00805e-17 1.00536 0
4.22651e-15 1.00681 0
-9.24304e-16 1.00681 0
-7.00805e-17 1.00536 0
-2.23688e-16 1.00536 0
-9.24304e-16 1.00681 0
-4.70966e-15 1.00681 0
3.57438e-15 1.0038 0
5.95723e-16 1.0038 0
3.05505e-15 1.00536 0
4.38518e-15 1.00536 0
5.95723e-16 1.0038 0
-1.04338e-14 1.0038 0
4.38518e-15 1.00536 0
9.07366e-15 1.00536 0
-2.23688e-16 1.00536 0
1.97897e-15 1.00536 0
-4.70966e-15 1.00681 0
2.93441e-15 1.00681 0
1.97897e-15 1.00536 0
-3.90321e-16 1.00536 0
2.93441e-15 1.00681 0
-1.06634e-15 1.00681 0
-6.5677e-15 1.00681 0
5.61756e-16 1.00681 0
1.06581e-14 1.00826 0
2.59535e-15 1.00826 0
5.61756e-16 1.00681 0
-2.29957e-15 1.00681 0
2.59535e-15 1.00826 0
-7.48003e-15 1.00826 0
1.04712e-14 1.00826 0
-1.02269e-14 1.00826 0
1.85017e-14 1.00967 0
-8.2946e-16 1.00967 0
-1.02269e-14 1.00826 0
3.82687e-15 1.00826 0
-8.2946e-16 1.00967 0
1.32293e-15 1.00967 0
-2.29957e-15 1.00681 0
4.68125e-15 1.00681 0
-7.48003e-15 1.00826 0
2.13675e-15 1.00826 0
4.68125e-15 1.00681 0
-4.78759e-15 1.00681 0
2.13675e-15 1.00826 0
4.88996e-15 1.00826 0
3.82687e-15 1.00826 0
-2.54377e-15 1.00826 0
1.32293e-15 1.00967 0
5.77503e-15 1.00967 0
-2.54377e-15 1.00826 0
-2.78571e-16 1.00826 0
5.77503e-15 1.00967 0
6.1315e-16 1.00967 0
-1.23192e-14 1.00967 0
7.55925e-15 1.00967 0
-4.8024e-15 1.01106 0
1.00811e-14 1.01106 0
7.55925e-15 1.00967 0
-4.86618e-15 1.00967 0
1.00811e-14 1.01106 0
5.80557e-15 1.01106 0
-1.32432e-14 1.01106 0
-2.3231e-15 1.01106 0
1.99459e-15 1.01244 0
-1.15533e-15 1.01244 0
-2.3231e-15 1.01106 0
2.30014e-14 1.01106 0
-1.15533e-15 1.01244 0
1.97741e-14 1.01244 0
-4.86618e-15 1.00967 0
-2.70955e-15 1.00967 0
5.80557e-15 1.01106 0
6.02906e-15 1.01106 0
-2.70955e-15 1.00967 0
-1.0036e-15 1.00967 0
6.02906e-15 1.01106 0
6.39931e-15 1.01106 0
2.30014e-14 1.01106 0
2.19464e-15 1.01106 0
1.97741e-14 1.01244 0
2.87023e-15 1.01244 0
2.19464e-15 1.01106 0
-5.08333e-15 1.01106 0
2.87023e-15 1.01244 0
1.34247e-15 1.01244 0
-4.78759e-15 1.00681 0
4.13111e-15 1.00681 0
4.88996e-15 1.00826 0
1.99554e-15 1.00826 0
4.13111e-15 1.00681 0
2.81574e-15 1.00681 0
1.99554e-15 1.00826 0
3.93737e-15 1.00826 0
-2.78571e-16 1.00826 0
-7.73482e-15 1.00826 0
6.1315e-16 1.00967 0
9.50072e-15 1.00967 0
-7.73482e-15 1.00826 0
7.392e-15 1.00826 0
9.50072e-15 1.00967 0
-3.64689e-15 1.00967 0
2.81574e-15 1.00681 0
8.22485e-15 1.00681 0
3.93737e-15 1.00826 0
1.93826e-15 1.00826 0
8.22485e-15 1.00681 0
6.81781e-15 1.00681 0
1.93826e-15 1.00826 0
2.26156e-15 1.00826 0
7.392e-15 1.00826 0
-5.96942e-15 1.00826 0
-3.64689e-15 1.00967 0
9.03091e-15 1.00967 0
-5.96942e-15 1.00826 0
6.65918e-16 1.00826 0
9.03091e-15 1.00967 0
3.78537e-15 1.00967 0
-1.0036e-15 1.00967 0
-2.25844e-16 1.00967 0
6.39931e-15 1.01106 0
1.31127e-15 1.01106 0
-2.25844e-16 1.00967 0
-4.73423e-15 1.00967 0
1.31127e-15 1.01106 0
4.26109e-15 1.01106 0
-5.08333e-15 1.01106 0
-1.87046e-15 1.01106 0
1.34247e-15 1.01244 0
1.3368e-15 1.01244 0
-1.87046e-15 1.01106 0
7.87076e-16 1.01106 0
1.3368e-15 1.01244 0
4.80308e-15 1.01244 0
-4.73423e-15 1.00967 0
-2.642e-15 1.00967 0
4.26109e-15 1.01106 0
4.82386e-15 1.01106 0
-2.642e-15 1.00967 0
-3.41484e-15 1.00967 0
4.82386e-15 1.01106 0
3.08653e-15 1.01106 0
7.87076e-16 1.01106 0
-2.94404e-15 1.01106 0
4.80308e-15 1.01244 0
-2.611e-15 1.01244 0
-2.94404e-15 1.01106 0
9.39601e-15 1.01106 0
-2.611e-15 1.01244 0
-4.17692e-15 1.01244 0
0 1.01244 0
-3.08839e-14 1.01244 0
0 1.01379 0
-2.35414e-14 1.01379 0
-3.08839e-14 1.01244 0
-1.20089e-13 1.01244 0
-2.35414e-14 1.01379 0
-1.16873e-13 1.01379 0
0 1.01379 0
2.07269e-14 1.01379 0
0 1.01514 0
1.98366e-14 1.01514 0
2.07269e-14 1.01379 0
1.1018e-13 1.01379 0
1.98366e-14 1.01514 0
1.06287e-13 1.01514 0
-1.20089e-13 1.01244 0
3.29076e-14 1.01244 0
-1.16873e-13 1.01379 0
3.99673e-14 1.01379 0
3.29076e-14 1.01244 0
1.1143e-13 1.01244 0
3.99673e-14 1.01379 0
1.13549e-13 1.01379 0
1.1018e-13 1.01379 0
-9.75467e-14 1.01379 0
1.06287e-13 1.01514 0
-8.57093e-14 1.01514 0
-9.75467e-14 1.01379 0
-6.10367e-14 1.01379 0
-8.57093e-14 1.01514 0
-6.15847e-14 1.01514 0
0 1.01514 0
-3.81935e-14 1.01514 0
0 1.0165 0
-3.6767e-14 1.0165 0
-3.81935e-14 1.01514 0
-9.31978e-14 1.01514 0
-3.6767e-14 1.0165 0
-9.54154e-14 1.0165 0
0 1.0165 0
1.9353e-14 1.0165 0
0 1.01787 0
1.88388e-14 1.01787 0
1.9353e-14 1.0165 0
4.73461e-14 1.0165 0
1.88388e-14 1.01787 0
4.90576e-14 1.01787 0
-9.31978e-14 1.01514 0
3.48796e-14 1.01514 0
-9.54154e-14 1.0165 0
3.97509e-14 1.0165 0
3.48796e-14 1.01514 0
2.01413e-14 1.01514 0
3.97509e-14 1.0165 0
2.13269e-14 1.0165 0
4.73461e-14 1.0165 0
-1.74823e-14 1.0165 0
4.90576e-14 1.01787 0
-8.00326e-15 1.01787 0
-1.74823e-14 1.0165 0
-2.22371e-15 1.0165 0
-8.00326e-15 1.01787 0
-4.95775e-15 1.01787 0
1.1143e-13 1.01244 0
3.76349e-14 1.01244 0
1.13549e-13 1.01379 0
4.20145e-14 1.01379 0
3.76349e-14 1.01244 0
-7.15153e-16 1.01244 0
4.20145e-14 1.01379 0
2.51047e-15 1.01379 0
-6.10367e-14 1.01379 0
8.95404e-15 1.01379 0
-6.15847e-14 1.01514 0
9.48947e-15 1.01514 0
8.95404e-15 1.01379 0
-5.4628e-15 1.01379 0
9.48947e-15 1.01514 0
4.32588e-15 1.01514 0
-7.15153e-16 1.01244 0
-5.95894e-15 1.01244 0
2.51047e-15 1.01379 0
-4.2621e-15 1.01379 0
-5.95894e-15 1.01244 0
8.84872e-15 1.01244 0
-4.2621e-15 1.01379 0
1.53964e-14 1.01379 0
-5.4628e-15 1.01379 0
-3.5457e-15 1.01379 0
4.32588e-15 1.01514 0
6.74445e-15 1.01514 0
-3.5457e-15 1.01379 0
-9.64863e-15 1.01379 0
6.74445e-15 1.01514 0
1.48345e-15 1.01514 0
2.01413e-14 1.01514 0
-1.34664e-14 1.01514 0
2.13269e-14 1.0165 0
-1.42883e-14 1.0165 0
-1.34664e-14 1.01514 0
-3.49522e-15 1.01514 0
-1.42883e-14 1.0165 0
6.50055e-15 1.0165 0
-2.22371e-15 1.0165 0
1.31012e-15 1.0165 0
-4.95775e-15 1.01787 0
2.65975e-15 1.01787 0
1.31012e-15 1.0165 0
-3.81644e-15 1.0165 0
2.65975e-15 1.01787 0
8.72024e-16 1.01787 0
-3.49522e-15 1.01514 0
-2.96343e-16 1.01514 0
6.50055e-15 1.0165 0
1.75282e-15 1.0165 0
-2.96343e-16 1.01514 0
-7.44203e-15 1.01514 0
1.75282e-15 1.0165 0
4.32771e-15 1.0165 0
-3.81644e-15 1.0165 0
-3.4296e-15 1.0165 0
8.72024e-16 1.01787 0
1.90073e-15 1.01787 0
-3.4296e-15 1.0165 0
-4.04501e-15 1.0165 0
1.90073e-15 1.01787 0
5.319e-15 1.01787 0
0 1.01787 0
3.48234e-14 1.01787 0
0 1.01925 0
3.90782e-14 1.01925 0
3.48234e-14 1.01787 0
-2.58264e-14 1.01787 0
3.90782e-14 1.01925 0
-2.13098e-14 1.01925 0
0 1.01925 0
-3.69618e-14 1.01925 0
0 1.02059 0
-3.00175e-14 1.02059 0
-3.69618e-14 1.01925 0
4.00993e-14 1.01925 0
-3.00175e-14 1.02059 0
3.99804e-14 1.02059 0
-2.58264e-14 1.01787 0
3.57349e-15 1.01787 0
-2.13098e-14 1.01925 0
5.07175e-15 1.01925 0
3.57349e-15 1.01787 0
-1.20512e-14 1.01787 0
5.07175e-15 1.01925 0
-8.30629e-15 1.01925 0
4.00993e-14 1.01925 0
-3.07005e-15 1.01925 0
3.99804e-14 1.02059 0
3.80298e-15 1.02059 0
-3.07005e-15 1.01925 0
-2.13589e-15 1.01925 0
3.80298e-15 1.02059 0
4.29521e-15 1.02059 0
0 1.02059 0
1.19122e-14 1.02059 0
0 1.02176 0
7.65956e-15 1.02176 0
1.19122e-14 1.02059 0
-2.67019e-14 1.02059 0
7.65956e-15 1.02176 0
-2.9173e-14 1.02176 0
0 1.02176 0
4.27673e-16 1.02176 0
0 1.02228 0
-1.14118e-14 1.02228 0
4.27673e-16 1.02176 0
-5.2861e-15 1.02176 0
-1.14118e-14 1.02228 0
8.2118e-15 1.02228 0
-2.67019e-14 1.02059 0
-1.39572e-16 1.02059 0
-2.9173e-14 1.02176 0
-5.92961e-16 1.02176 0
-1.39572e-16 1.02059 0
2.35742e-15 1.02059 0
-5.92961e-16 1.02176 0
1.11373e-15 1.02176 0
-5.2861e-15 1.02176 0
-6.40004e-15 1.02176 0
8.2118e-15 1.02228 0
-1.5489e-14 1.02228 0
-6.40004e-15 1.02176 0
-6.787e-16 1.02176 0
-1.5489e-14 1.02228 0
1.91298e-14 1.02228 0
-1.20512e-14 1.01787 0
-8.53297e-15 1.01787 0
-8.30629e-15 1.01925 0
2.97328e-15 1.01925 0
-8.53297e-15 1.01787 0
6.8821e-17 1.01787 0
2.97328e-15 1.01925 0
-1.57378e-17 1.01925 0
-2.13589e-15 1.01925 0
-3.05978e-15 1.01925 0
4.29521e-15 1.02059 0
3.24083e-15 1.02059 0
-3.05978e-15 1.01925 0
-1.6668e-15 1.01925 0
3.24083e-15 1.02059 0
1.27089e-15 1.02059 0
6.8821e-17 1.01787 0
6.75109e-16 1.01787 0
-1.57378e-17 1.01925 0
1.61222e-15 1.01925 0
6.75109e-16 1.01787 0
-2.40983e-15 1.01787 0
1.61222e-15 1.01925 0
3.06715e-15 1.01925 0
-1.6668e-15 1.01925 0
-3.45984e-15 1.01925 0
1.27089e-15 1.02059 0
1.34369e-15 1.02059 0
-3.45984e-15 1.01925 0
-3.35351e-15 1.01925 0
1.34369e-15 1.02059 0
2.67644e-15 1.02059 0
2.35742e-15 1.02059 0
-3.71311e-15 1.02059 0
1.11373e-15 1.02176 0
-1.29575e-15 1.02176 0
-3.71311e-15 1.02059 0
-2.42838e-16 1.02059 0
-1.29575e-15 1.02176 0
6.16403e-16 1.02176 0
-6.787e-16 1.02176 0
-2.1926e-15 1.02176 0
1.91298e-14 1.02228 0
1.58877e-15 1.02228 0
-2.1926e-15 1.02176 0
-8.21973e-16 1.02176 0
1.58877e-15 1.02228 0
-8.2573e-16 1.02228 0
-2.42838e-16 1.02059 0
-3.36695e-15 1.02059 0
6.16403e-16 1.02176 0
2.13929e-15 1.02176 0
-3.36695e-15 1.02059 0
-1.35109e-15 1.02059 0
2.13929e-15 1.02176 0
1.83372e-15 1.02176 0
-8.21973e-16 1.02176 0
-1.67206e-15 1.02176 0
-8.2573e-16 1.02228 0
6.66385e-15 1.02228 0
-1.67206e-15 1.02176 0
4.2018e-16 1.02176 0
6.66385e-15 1.02228 0
-1.84095e-14 1.02228 0
8.84872e-15 1.01244 0
7.78542e-15 1.01244 0
1.53964e-14 1.01379 0
1.03598e-14 1.01379 0
7.78542e-15 1.01244 0
-1.61086e-14 1.01244 0
1.03598e-14 1.01379 0
-1.85325e-14 1.01379 0
-9.64863e-15 1.01379 0
-4.26058e-15 1.01379 0
1.48345e-15 1.01514 0
5.70207e-15 1.01514 0
-4.26058e-15 1.01379 0
1.59516e-15 1.01379 0
5.70207e-15 1.01514 0
2.6267e-15 1.01514 0
-1.61086e-14 1.01244 0
-3.76541e-15 1.01244 0
-1.85325e-14 1.01379 0
5.66314e-15 1.01379 0
-3.76541e-15 1.01244 0
2.11961e-15 1.01244 0
5.66314e-15 1.01379 0
4.4962e-15 1.01379 0
1.59516e-15 1.01379 0
-5.54645e-15 1.01379 0
2.6267e-15 1.01514 0
5.10107e-15 1.01514 0
-5.54645e-15 1.01379 0
-2.9167e-15 1.01379 0
5.10107e-15 1.01514 0
4.92795e-15 1.01514 0
-7.44203e-15 1.01514 0
-5.95123e-15 1.01514 0
4.32771e-15 1.0165 0
2.44448e-15 1.0165 0
-5.95123e-15 1.01514 0
-6.18383e-15 1.01514 0
2.44448e-15 1.0165 0
5.35813e-15 1.0165 0
-4.04501e-15 1.0165 0
-2.22168e-15 1.0165 0
5.319e-15 1.01787 0
3.01287e-15 1.01787 0
-2.22168e-15 1.0165 0
-7.64945e-16 1.0165 0
3.01287e-15 1.01787 0
9.70248e-16 1.01787 0
-6.18383e-15 1.01514 0
1.36919e-15 1.01514 0
5.35813e-15 1.0165 0
-1.03446e-15 1.0165 0
1.36919e-15 1.01514 0
-2.44848e-15 1.01514 0
-1.03446e-15 1.0165 0
1.96071e-15 1.0165 0
-7.64945e-16 1.0165 0
-1.63076e-15 1.0165 0
9.70248e-16 1.01787 0
1.8323e-15 1.01787 0
-1.63076e-15 1.0165 0
6.46217e-17 1.0165 0
1.8323e-15 1.01787 0
3.12886e-15 1.01787 0
2.11961e-15 1.01244 0
2.63869e-15 1.01244 0
4.4962e-15 1.01379 0
2.27313e-15 1.01379 0
2.63869e-15 1.01244 0
-4.07079e-15 1.01244 0
2.27313e-15 1.01379 0
1.09773e-14 1.01379 0
-2.9167e-15 1.01379 0
-7.01617e-16 1.01379 0
4.92795e-15 1.01514 0
4.56625e-15 1.01514 0
-7.01617e-16 1.01379 0
-4.3174e-15 1.01379 0
4.56625e-15 1.01514 0
4.1971e-15 1.01514 0
-4.07079e-15 1.01244 0
-3.66556e-15 1.01244 0
1.09773e-14 1.01379 0
5.29678e-15 1.01379 0
-3.66556e-15 1.01244 0
-1.38606e-16 1.01244 0
5.29678e-15 1.01379 0
-1.41975e-16 1.01379 0
-4.3174e-15 1.01379 0
8.53734e-16 1.01379 0
4.1971e-15 1.01514 0
1.93094e-15 1.01514 0
8.53734e-16 1.01379 0
1.49606e-16 1.01379 0
1.93094e-15 1.01514 0
2.70965e-15 1.01514 0
-2.44848e-15 1.01514 0
-5.61086e-15 1.01514 0
1.96071e-15 1.0165 0
1.07683e-15 1.0165 0
-5.61086e-15 1.01514 0
-4.36154e-16 1.01514 0
1.07683e-15 1.0165 0
1.19562e-15 1.0165 0
6.46217e-17 1.0165 0
1.43235e-15 1.0165 0
3.12886e-15 1.01787 0
1.94737e-15 1.01787 0
1.43235e-15 1.0165 0
-5.66427e-15 1.0165 0
1.94737e-15 1.01787 0
5.04488e-15 1.01787 0
-4.36154e-16 1.01514 0
2.98424e-15 1.01514 0
1.19562e-15 1.0165 0
-2.3011e-16 1.0165 0
2.98424e-15 1.01514 0
-1.36838e-15 1.01514 0
-2.3011e-16 1.0165 0
6.50554e-15 1.0165 0
-5.66427e-15 1.0165 0
-1.38129e-16 1.0165 0
5.04488e-15 1.01787 0
-2.97153e-15 1.01787 0
-1.38129e-16 1.0165 0
2.75912e-15 1.0165 0
-2.97153e-15 1.01787 0
-1.79604e-15 1.01787 0
-2.40983e-15 1.01787 0
-5.03515e-15 1.01787 0
3.06715e-15 1.01925 0
1.60973e-15 1.01925 0
-5.03515e-15 1.01787 0
-2.99479e-15 1.01787 0
1.60973e-15 1.01925 0
1.02237e-15 1.01925 0
-3.35351e-15 1.01925 0
7.32626e-16 1.01925 0
2.67644e-15 1.02059 0
5.32796e-16 1.02059 0
7.32626e-16 1.01925 0
-1.82996e-15 1.01925 0
5.32796e-16 1.02059 0
3.63826e-15 1.02059 0
-2.99479e-15 1.01787 0
1.64414e-15 1.01787 0
1.02237e-15 1.01925 0
2.82688e-15 1.01925 0
1.64414e-15 1.01787 0
-3.72753e-15 1.01787 0
2.82688e-15 1.01925 0
3.8039e-15 1.01925 0
-1.82996e-15 1.01925 0
-3.38435e-15 1.01925 0
3.63826e-15 1.02059 0