# vtk DataFile Version 3.0
#This file was generated by the deal.II library on 2018/10/12 at 0:16:34
ASCII
DATASET UNSTRUCTURED_GRID

POINTS 5120 double
0 0 0
0.392699 0 0
0 0.61327 0
0.392699 0.61327 0
0.392699 0 0
0.785398 0 0
0.392699 0.61327 0
0.785398 0.61327 0
0 0.61327 0
0.392699 0.61327 0
0 1.23915 0
0.392699 1.23915 0
0.392699 0.61327 0
0.785398 0.61327 0
0.392699 1.23915 0
0.785398 1.23915 0
0.785398 0 0
1.1781 0 0
0.785398 0.61327 0
1.1781 0.61327 0
1.1781 0 0
1.5708 0 0
1.1781 0.61327 0
1.5708 0.61327 0
0.785398 0.61327 0
1.1781 0.61327 0
0.785398 1.23915 0
1.1781 1.23915 0
1.1781 0.61327 0
1.5708 0.61327 0
1.1781 1.23915 0
1.5708 1.23915 0
0 1.23915 0
0.392699 1.23915 0
0 1.86453 0
0.392699 1.86453 0
0.392699 1.23915 0
0.785398 1.23915 0
0.392699 1.86453 0
0.785398 1.86453 0
0 1.86453 0
0.392699 1.86453 0
0 2.49032 0
0.392699 2.49032 0
0.392699 1.86453 0
0.785398 1.86453 0
0.392699 2.49032 0
0.785398 2.49032 0
0.785398 1.23915 0
1.1781 1.23915 0
0.785398 1.86453 0
1.1781 1.86453 0
1.1781 1.23915 0
1.5708 1.23915 0
1.1781 1.86453 0
1.5708 1.86453 0
0.785398 1.86453 0
1.1781 1.86453 0
0.785398 2.49032 0
1.1781 2.49032 0
1.1781 1.86453 0
1.5708 1.86453 0
1.1781 2.49032 0
1.5708 2.49032 0
1.5708 0 0
1.9635 0 0
1.5708 0.61327 0
1.9635 0.61327 0
1.9635 0 0
2.35619 0 0
1.9635 0.61327 0
2.35619 0.61327 0
1.5708 0.61327 0
1.9635 0.61327 0
1.5708 1.23915 0
1.9635 1.23915 0
1.9635 0.61327 0
2.35619 0.61327 0
1.9635 1.23915 0
2.35619 1.23915 0
2.35619 0 0
2.74889 0 0
2.35619 0.61327 0
2.74889 0.61327 0
2.74889 0 0
3.14159 0 0
2.74889 0.61327 0
3.14159 0.61327 0
2.35619 0.61327 0
2.74889 0.61327 0
2.35619 1.23915 0
2.74889 1.23915 0
2.74889 0.61327 0
3.14159 0.61327 0
2.74889 1.23915 0
3.14159 1.23915 0
1.5708 1.23915 0
1.9635 1.23915 0
1.5708 1.86453 0
1.9635 1.86453 0
1.9635 1.23915 0
2.35619 1.23915 0
1.9635 1.86453 0
2.35619 1.86453 0
1.5708 1.86453 0
1.9635 1.86453 0
1.5708 2.49032 0
1.9635 2.49032 0
1.9635 1.86453 0
2.35619 1.86453 0
1.9635 2.49032 0
2.35619 2.49032 0
2.35619 1.23915 0
2.74889 1.23915 0
2.35619 1.86453 0
2.74889 1.86453 0
2.74889 1.23915 0
3.14159 1.23915 0
2.74889 1.86453 0
3.14159 1.86453 0
2.35619 1.86453 0
2.74889 1.86453 0
2.35619 2.49032 0
2.74889 2.49032 0
2.74889 1.86453 0
3.14159 1.86453 0
2.74889 2.49032 0
3.14159 2.49032 0
0 2.49032 0
0.392699 2.49032 0
0 3.116 0
0.392699 3.116 0
0.392699 2.49032 0
0.785398 2.49032 0
0.392699 3.116 0
0.785398 3.116 0
0 3.116 0
0.392699 3.116 0
0 3.74168 0
0.392699 3.74168 0
0.392699 3.116 0
0.785398 3.116 0
0.392699 3.74168 0
0.785398 3.74168 0
0.785398 2.49032 0
1.1781 2.49032 0
0.785398 3.116 0
1.1781 3.116 0
1.1781 2.49032 0
1.5708 2.49032 0
1.1781 3.116 0
1.5708 3.116 0
0.785398 3.116 0
1.1781 3.116 0
0.785398 3.74168 0
1.1781 3.74168 0
1.1781 3.116 0
1.5708 3.116 0
1.1781 3.74168 0
1.5708 3.74168 0
0 3.74168 0
0.392699 3.74168 0
0 4.36732 0
0.392699 4.36732 0
0.392699 3.74168 0
0.785398 3.74168 0
0.392699 4.36732 0
0.785398 4.36732 0
0 4.36732 0
0.392699 4.36732 0
0 4.99294 0
0.392699 4.99294 0
0.392699 4.36732 0
0.785398 4.36732 0
0.392699 4.99294 0
0.785398 4.99294 0
0.785398 3.74168 0
1.1781 3.74168 0
0.785398 4.36732 0
1.1781 4.36732 0
1.1781 3.74168 0
1.5708 3.74168 0
1.1781 4.36732 0
1.5708 4.36732 0
0.785398 4.36732 0
1.1781 4.36732 0
0.785398 4.99294 0
1.1781 4.99294 0
1.1781 4.36732 0
1.5708 4.36732 0
1.1781 4.99294 0
1.5708 4.99294 0
1.5708 2.49032 0
1.9635 2.49032 0
1.5708 3.116 0
1.9635 3.116 0
1.9635 2.49032 0
2.35619 2.49032 0
1.9635 3.116 0
2.35619 3.116 0
1.5708 3.116 0
1.9635 3.116 0
1.5708 3.74168 0
1.9635 3.74168 0
1.9635 3.116 0
2.35619 3.116 0
1.9635 3.74168 0
2.35619 3.74168 0
2.35619 2.49032 0
2.74889 2.49032 0
2.35619 3.116 0
2.74889 3.116 0
2.74889 2.49032 0
3.14159 2.49032 0
2.74889 3.116 0
3.14159 3.116 0
2.35619 3.116 0
2.74889 3.116 0
2.35619 3.74168 0
2.74889 3.74168 0
2.74889 3.116 0
3.14159 3.116 0
2.74889 3.74168 0
3.14159 3.74168 0
1.5708 3.74168 0
1.9635 3.74168 0
1.5708 4.36732 0
1.9635 4.36732 0
1.9635 3.74168 0
2.35619 3.74168 0
1.9635 4.36732 0
2.35619 4.36732 0
1.5708 4.36732 0
1.9635 4.36732 0
1.5708 4.99294 0
1.9635 4.99294 0
1.9635 4.36732 0
2.35619 4.36732 0
1.9635 4.99294 0
2.35619 4.99294 0
2.35619 3.74168 0
2.74889 3.74168 0
2.35619 4.36732 0
2.74889 4.36732 0
2.74889 3.74168 0
3.14159 3.74168 0
2.74889 4.36732 0
3.14159 4.36732 0
2.35619 4.36732 0
2.74889 4.36732 0
2.35619 4.99294 0
2.74889 4.99294 0
2.74889 4.36732 0
3.14159 4.36732 0
2.74889 4.99294 0
3.14159 4.99294 0
3.14159 0 0
3.53429 0 0
3.14159 0.61327 0
3.53429 0.61327 0
3.53429 0 0
3.92699 0 0
3.53429 0.61327 0
3.92699 0.61327 0
3.14159 0.61327 0
3.53429 0.61327 0
3.14159 1.23915 0
3.53429 1.23915 0
3.53429 0.61327 0
3.92699 0.61327 0
3.53429 1.23915 0
3.92699 1.23915 0
3.92699 0 0
4.31969 0 0
3.92699 0.61327 0
4.31969 0.61327 0
4.31969 0 0
4.71239 0 0
4.31969 0.61327 0
4.71239 0.61327 0
3.92699 0.61327 0
4.31969 0.61327 0
3.92699 1.23915 0
4.31969 1.23915 0
4.31969 0.61327 0
4.71239 0.61327 0
4.31969 1.23915 0
4.71239 1.23915 0
3.14159 1.23915 0
3.53429 1.23915 0
3.14159 1.86453 0
3.53429 1.86453 0
3.53429 1.23915 0
3.92699 1.23915 0
3.53429 1.86453 0
3.92699 1.86453 0
3.14159 1.86453 0
3.53429 1.86453 0
3.14159 2.49032 0
3.53429 2.49032 0
3.53429 1.86453 0
3.92699 1.86453 0
3.53429 2.49032 0
3.92699 2.49032 0
3.92699 1.23915 0
4.31969 1.23915 0
3.92699 1.86453 0
4.31969 1.86453 0
4.31969 1.23915 0
4.71239 1.23915 0
4.31969 1.86453 0
4.71239 1.86453 0
3.92699 1.86453 0
4.31969 1.86453 0
3.92699 2.49032 0
4.31969 2.49032 0
4.31969 1.86453 0
4.71239 1.86453 0
4.31969 2.49032 0
4.71239 2.49032 0
4.71239 0 0
5.10509 0 0
4.71239 0.61327 0
5.10509 0.61327 0
5.10509 0 0
5.49779 0 0
5.10509 0.61327 0
5.49779 0.61327 0
4.71239 0.61327 0
5.10509 0.61327 0
4.71239 1.23915 0
5.10509 1.23915 0
5.10509 0.61327 0
5.49779 0.61327 0
5.10509 1.23915 0
5.49779 1.23915 0
5.49779 0 0
5.89049 0 0
5.49779 0.61327 0
5.89049 0.61327 0
5.89049 0 0
6.28319 0 0
5.89049 0.61327 0
6.28319 0.61327 0
5.49779 0.61327 0
5.89049 0.61327 0
5.49779 1.23915 0
5.89049 1.23915 0
5.89049 0.61327 0
6.28319 0.61327 0
5.89049 1.23915 0
6.28319 1.23915 0
4.71239 1.23915 0
5.10509 1.23915 0
4.71239 1.86453 0
5.10509 1.86453 0
5.10509 1.23915 0
5.49779 1.23915 0
5.10509 1.86453 0
5.49779 1.86453 0
4.71239 1.86453 0
5.10509 1.86453 0
4.71239 2.49032 0
5.10509 2.49032 0
5.10509 1.86453 0
5.49779 1.86453 0
5.10509 2.49032 0
5.49779 2.49032 0
5.49779 1.23915 0
5.89049 1.23915 0
5.49779 1.86453 0
5.89049 1.86453 0
5.89049 1.23915 0
6.28319 1.23915 0
5.89049 1.86453 0
6.28319 1.86453 0
5.49779 1.86453 0
5.89049 1.86453 0
5.49779 2.49032 0
5.89049 2.49032 0
5.89049 1.86453 0
6.28319 1.86453 0
5.89049 2.49032 0
6.28319 2.49032 0
3.14159 2.49032 0
3.53429 2.49032 0
3.14159 3.116 0
3.53429 3.116 0
3.53429 2.49032 0
3.92699 2.49032 0
3.53429 3.116 0
3.92699 3.116 0
3.14159 3.116 0
3.53429 3.116 0
3.14159 3.74168 0
3.53429 3.74168 0
3.53429 3.116 0
3.92699 3.116 0
3.53429 3.74168 0
3.92699 3.74168 0
3.92699 2.49032 0
4.31969 2.49032 0
3.92699 3.116 0
4.31969 3.116 0
4.31969 2.49032 0
4.71239 2.49032 0
4.31969 3.116 0
4.71239 3.116 0
3.92699 3.116 0
4.31969 3.116 0
3.92699 3.74168 0
4.31969 3.74168 0
4.31969 3.116 0
4.71239 3.116 0
4.31969 3.74168 0
4.71239 3.74168 0
3.14159 3.74168 0
3.53429 3.74168 0
3.14159 4.36732 0
3.53429 4.36732 0
3.53429 3.74168 0
3.92699 3.74168 0
3.53429 4.36732 0
3.92699 4.36732 0
3.14159 4.36732 0
3.53429 4.36732 0
3.14159 4.99294 0
3.53429 4.99294 0
3.53429 4.36732 0
3.92699 4.36732 0
3.53429 4.99294 0
3.92699 4.99294 0
3.92699 3.74168 0
4.31969 3.74168 0
3.92699 4.36732 0
4.31969 4.36732 0
4.31969 3.74168 0
4.71239 3.74168 0
4.31969 4.36732 0
4.71239 4.36732 0
3.92699 4.36732 0
4.31969 4.36732 0
3.92699 4.99294 0
4.31969 4.99294 0
4.31969 4.36732 0
4.71239 4.36732 0
4.31969 4.99294 0
4.71239 4.99294 0
4.71239 2.49032 0
5.10509 2.49032 0
4.71239 3.116 0
5.10509 3.116 0
5.10509 2.49032 0
5.49779 2.49032 0
5.10509 3.116 0
5.49779 3.116 0
4.71239 3.116 0
5.10509 3.116 0
4.71239 3.74168 0
5.10509 3.74168 0
5.10509 3.116 0
5.49779 3.116 0
5.10509 3.74168 0
5.49779 3.74168 0
5.49779 2.49032 0
5.89049 2.49032 0
5.49779 3.116 0
5.89049 3.116 0
5.89049 2.49032 0
6.28319 2.49032 0
5.89049 3.116 0
6.28319 3.116 0
5.49779 3.116 0
5.89049 3.116 0
5.49779 3.74168 0
5.89049 3.74168 0
5.89049 3.116 0
6.28319 3.116 0
5.89049 3.74168 0
6.28319 3.74168 0
4.71239 3.74168 0
5.10509 3.74168 0
4.71239 4.36732 0
5.10509 4.36732 0
5.10509 3.74168 0
5.49779 3.74168 0
5.10509 4.36732 0
5.49779 4.36732 0
4.71239 4.36732 0
5.10509 4.36732 0
4.71239 4.99294 0
5.10509 4.99294 0
5.10509 4.36732 0
5.49779 4.36732 0
5.10509 4.99294 0
5.49779 4.99294 0
5.49779 3.74168 0
5.89049 3.74168 0
5.49779 4.36732 0
5.89049 4.36732 0
5.89049 3.74168 0
6.28319 3.74168 0
5.89049 4.36732 0
6.28319 4.36732 0
5.49779 4.36732 0
5.89049 4.36732 0
5.49779 4.99294 0
5.89049 4.99294 0
5.89049 4.36732 0
6.28319 4.36732 0
5.89049 4.99294 0
6.28319 4.99294 0
0 4.99294 0
0.392699 4.99294 0
0 5.61851 0
0.392699 5.61851 0
0.392699 4.99294 0
0.785398 4.99294 0
0.392699 5.61851 0
0.785398 5.61851 0
0 5.61851 0
0.392699 5.61851 0
0 6.24404 0
0.392699 6.24404 0
0.392699 5.61851 0
0.785398 5.61851 0
0.392699 6.24404 0
0.785398 6.24404 0
0.785398 4.99294 0
1.1781 4.99294 0
0.785398 5.61851 0
1.1781 5.61851 0
1.1781 4.99294 0
1.5708 4.99294 0
1.1781 5.61851 0
1.5708 5.61851 0
0.785398 5.61851 0
1.1781 5.61851 0
0.785398 6.24404 0
1.1781 6.24404 0
1.1781 5.61851 0
1.5708 5.61851 0
1.1781 6.24404 0
1.5708 6.24404 0
0 6.24404 0
0.392699 6.24404 0
0 6.86955 0
0.392699 6.86955 0
0.392699 6.24404 0
0.785398 6.24404 0
0.392699 6.86955 0
0.785398 6.86955 0
0 6.86955 0
0.392699 6.86955 0
0 7.49506 0
0.392699 7.49506 0
0.392699 6.86955 0
0.785398 6.86955 0
0.392699 7.49506 0
0.785398 7.49506 0
0.785398 6.24404 0
1.1781 6.24404 0
0.785398 6.86955 0
1.1781 6.86955 0
1.1781 6.24404 0
1.5708 6.24404 0
1.1781 6.86955 0
1.5708 6.86955 0
0.785398 6.86955 0
1.1781 6.86955 0
0.785398 7.49506 0
1.1781 7.49506 0
1.1781 6.86955 0
1.5708 6.86955 0
[...]
POINT_DATA 5120
VECTORS uf double
0 1 0
-3.38067e-14 1 0
0 1.00219 0
-2.5637e-14 1.00219 0
-3.38067e-14 1 0
-8.78606e-15 1 0
-2.5637e-14 1.00219 0
-1.13171e-14 1.00219 0
0 1.00219 0
-2.63231e-15 1.00219 0
0 1.00332 0
1.19395e-15 1.00332 0
-2.63231e-15 1.00219 0
1.53712e-14 1.00219 0
1.19395e-15 1.00332 0
2.27294e-14 1.00332 0
-8.78606e-15 1 0
4.65993e-14 1 0
-1.13171e-14 1.00219 0
5.92988e-14 1.00219 0
4.65993e-14 1 0
-7.78182e-15 1 0
5.92988e-14 1.00219 0
1.06813e-14 1.00219 0
1.53712e-14 1.00219 0
-6.45747e-14 1.00219 0
2.27294e-14 1.00332 0
-3.83361e-14 1.00332 0
-6.45747e-14 1.00219 0
-5.62197e-15 1.00219 0
-3.83361e-14 1.00332 0
2.14893e-15 1.00332 0
0 1.00332 0
1.1396e-14 1.00332 0
0 1.00469 0
1.46641e-14 1.00469 0
1.1396e-14 1.00332 0
-1.9045e-14 1.00332 0
1.46641e-14 1.00469 0
-9.92549e-15 1.00469 0
0 1.00469 0
1.87521e-14 1.00469 0
0 1.00596 0
2.4597e-14 1.00596 0
1.87521e-14 1.00469 0
3.3448e-14 1.00469 0
2.4597e-14 1.00596 0
2.73042e-14 1.00596 0
-1.9045e-14 1.00332 0
-1.09241e-14 1.00332 0
-9.92549e-15 1.00469 0
2.86984e-15 1.00469 0
-1.09241e-14 1.00332 0
-8.48164e-15 1.00332 0
2.86984e-15 1.00469 0
1.05938e-14 1.00469 0
3.3448e-14 1.00469 0
5.03323e-15 1.00469 0
2.73042e-14 1.00596 0
6.70842e-15 1.00596 0
5.03323e-15 1.00469 0
-3.42974e-14 1.00469 0
6.70842e-15 1.00596 0
-1.10207e-14 1.00596 0
-7.78182e-15 1 0
-1.9714e-14 1 0
1.06813e-14 1.00219 0
-9.55437e-15 1.00219 0
-1.9714e-14 1 0
-9.76821e-15 1 0
-9.55437e-15 1.00219 0
8.53818e-15 1.00219 0
-5.62197e-15 1.00219 0
1.39264e-14 1.00219 0
2.14893e-15 1.00332 0
1.80974e-14 1.00332 0
1.39264e-14 1.00219 0
-6.7123e-15 1.00219 0
1.80974e-14 1.00332 0
9.35795e-15 1.00332 0
-9.76821e-15 1 0
-5.72038e-15 1 0
8.53818e-15 1.00219 0
3.26737e-15 1.00219 0
-5.72038e-15 1 0
-4.2986e-15 1 0
3.26737e-15 1.00219 0
-1.43098e-16 1.00219 0
-6.7123e-15 1.00219 0
-6.26639e-15 1.00219 0
9.35795e-15 1.00332 0
4.35435e-15 1.00332 0
-6.26639e-15 1.00219 0
-1.27464e-15 1.00219 0
4.35435e-15 1.00332 0
1.07392e-14 1.00332 0
-8.48164e-15 1.00332 0
9.57346e-16 1.00332 0
1.05938e-14 1.00469 0
1.16391e-14 1.00469 0
9.57346e-16 1.00332 0
8.62143e-17 1.00332 0
1.16391e-14 1.00469 0
2.18919e-15 1.00469 0
-3.42974e-14 1.00469 0
-9.33216e-16 1.00469 0
-1.10207e-14 1.00596 0
-6.66747e-15 1.00596 0
-9.33216e-16 1.00469 0
1.21165e-15 1.00469 0
-6.66747e-15 1.00596 0
4.50237e-16 1.00596 0
8.62143e-17 1.00332 0
4.00875e-15 1.00332 0
2.18919e-15 1.00469 0
2.60786e-15 1.00469 0
4.00875e-15 1.00332 0
-6.20146e-15 1.00332 0
2.60786e-15 1.00469 0
1.03389e-14 1.00469 0
1.21165e-15 1.00469 0
-8.96214e-16 1.00469 0
4.50237e-16 1.00596 0
7.33949e-15 1.00596 0
-8.96214e-16 1.00469 0
-8.49788e-15 1.00469 0
7.33949e-15 1.00596 0
5.20636e-15 1.00596 0
0 1.00596 0
-1.21392e-14 1.00596 0
0 1.00723 0
-1.25379e-14 1.00723 0
-1.21392e-14 1.00596 0
-3.82649e-14 1.00596 0
-1.25379e-14 1.00723 0
-4.12812e-14 1.00723 0
0 1.00723 0
6.20458e-15 1.00723 0
0 1.00848 0
1.12064e-14 1.00848 0
6.20458e-15 1.00723 0
6.40707e-14 1.00723 0
1.12064e-14 1.00848 0
6.44557e-14 1.00848 0
-3.82649e-14 1.00596 0
-9.7899e-15 1.00596 0
-4.12812e-14 1.00723 0
5.26566e-15 1.00723 0
-9.7899e-15 1.00596 0
4.13958e-14 1.00596 0
5.26566e-15 1.00723 0
4.48542e-14 1.00723 0
6.40707e-14 1.00723 0
-1.66828e-15 1.00723 0
6.44557e-14 1.00848 0
1.20728e-14 1.00848 0
-1.66828e-15 1.00723 0
-4.9737e-14 1.00723 0
1.20728e-14 1.00848 0
-3.42042e-14 1.00848 0
0 1.00848 0
1.04469e-14 1.00848 0
0 1.00971 0
1.21132e-14 1.00971 0
1.04469e-14 1.00848 0
-9.23293e-14 1.00848 0
1.21132e-14 1.00971 0
-8.67139e-14 1.00971 0
0 1.00971 0
-7.58581e-15 1.00971 0
0 1.01092 0
-3.76388e-15 1.01092 0
-7.58581e-15 1.00971 0
7.74934e-14 1.00971 0
-3.76388e-15 1.01092 0
7.10358e-14 1.01092 0
-9.23293e-14 1.00848 0
-1.08428e-14 1.00848 0
-8.67139e-14 1.00971 0
-5.75263e-15 1.00971 0
-1.08428e-14 1.00848 0
5.85108e-14 1.00848 0
-5.75263e-15 1.00971 0
6.73896e-14 1.00971 0
7.74934e-14 1.00971 0
1.12605e-14 1.00971 0
7.10358e-14 1.01092 0
1.22918e-14 1.01092 0
1.12605e-14 1.00971 0
-7.91963e-14 1.00971 0
1.22918e-14 1.01092 0
-6.68013e-14 1.01092 0
4.13958e-14 1.00596 0
-5.99823e-15 1.00596 0
4.48542e-14 1.00723 0
-5.05209e-15 1.00723 0
-5.99823e-15 1.00596 0
-7.40625e-15 1.00596 0
-5.05209e-15 1.00723 0
3.79992e-15 1.00723 0
-4.9737e-14 1.00723 0
-6.26553e-15 1.00723 0
-3.42042e-14 1.00848 0
-1.71545e-15 1.00848 0
-6.26553e-15 1.00723 0
4.20759e-16 1.00723 0
-1.71545e-15 1.00848 0
1.49336e-15 1.00848 0
-7.40625e-15 1.00596 0
-6.88678e-15 1.00596 0
3.79992e-15 1.00723 0
-1.76726e-17 1.00723 0
-6.88678e-15 1.00596 0
-7.70935e-15 1.00596 0
-1.76726e-17 1.00723 0
8.57027e-15 1.00723 0
4.20759e-16 1.00723 0
-1.85207e-16 1.00723 0
1.49336e-15 1.00848 0
4.38157e-15 1.00848 0
-1.85207e-16 1.00723 0
-3.41752e-15 1.00723 0
4.38157e-15 1.00848 0
8.76845e-15 1.00848 0
5.85108e-14 1.00848 0
1.93999e-14 1.00848 0
6.73896e-14 1.00971 0
3.05564e-14 1.00971 0
1.93999e-14 1.00848 0
-3.3239e-15 1.00848 0
3.05564e-14 1.00971 0
8.90438e-15 1.00971 0
-7.91963e-14 1.00971 0
-2.16364e-14 1.00971 0
-6.68013e-14 1.01092 0
-9.16907e-15 1.01092 0
-2.16364e-14 1.00971 0
-2.20377e-15 1.00971 0
-9.16907e-15 1.01092 0
8.93243e-15 1.01092 0
-3.3239e-15 1.00848 0
-2.26397e-15 1.00848 0
8.90438e-15 1.00971 0
5.65153e-15 1.00971 0
-2.26397e-15 1.00848 0
-1.06381e-15 1.00848 0
5.65153e-15 1.00971 0
4.4313e-15 1.00971 0
-2.20377e-15 1.00971 0
-3.50651e-15 1.00971 0
8.93243e-15 1.01092 0
4.83502e-15 1.01092 0
-3.50651e-15 1.00971 0
-8.95084e-15 1.00971 0
4.83502e-15 1.01092 0
1.17338e-14 1.01092 0
-4.2986e-15 1 0
-1.59009e-14 1 0
-1.43098e-16 1.00219 0
1.63382e-14 1.00219 0
-1.59009e-14 1 0
-4.79926e-15 1 0
1.63382e-14 1.00219 0
7.04554e-15 1.00219 0
-1.27464e-15 1.00219 0
1.516e-15 1.00219 0
1.07392e-14 1.00332 0
4.77044e-15 1.00332 0
1.516e-15 1.00219 0
-2.80001e-15 1.00219 0
4.77044e-15 1.00332 0
-1.27482e-15 1.00332 0
-4.79926e-15 1 0
7.33568e-17 1 0
7.04554e-15 1.00219 0
1.90688e-15 1.00219 0
7.33568e-17 1 0
-7.11614e-15 1 0
1.90688e-15 1.00219 0
1.10436e-14 1.00219 0
-2.80001e-15 1.00219 0
-8.98219e-15 1.00219 0
-1.27482e-15 1.00332 0
9.9264e-15 1.00332 0
-8.98219e-15 1.00219 0
-1.13323e-15 1.00219 0
9.9264e-15 1.00332 0
3.22985e-15 1.00332 0
-6.20146e-15 1.00332 0
-6.87151e-15 1.00332 0
1.03389e-14 1.00469 0
1.04962e-14 1.00469 0
-6.87151e-15 1.00332 0
4.8468e-15 1.00332 0
1.04962e-14 1.00469 0
5.21136e-15 1.00469 0
-8.49788e-15 1.00469 0
-2.12789e-15 1.00469 0
5.20636e-15 1.00596 0
5.7357e-15 1.00596 0
-2.12789e-15 1.00469 0
-6.40173e-15 1.00469 0
5.7357e-15 1.00596 0
9.15877e-15 1.00596 0
4.8468e-15 1.00332 0
7.09419e-15 1.00332 0
5.21136e-15 1.00469 0
-2.36769e-16 1.00469 0
7.09419e-15 1.00332 0
-2.35085e-15 1.00332 0
-2.36769e-16 1.00469 0
9.8365e-15 1.00469 0
-6.40173e-15 1.00469 0
-6.12662e-15 1.00469 0
9.15877e-15 1.00596 0
4.19083e-15 1.00596 0
-6.12662e-15 1.00469 0
-1.90083e-15 1.00469 0
4.19083e-15 1.00596 0
6.29697e-15 1.00596 0
-7.11614e-15 1 0
-1.2893e-15 1 0
1.10436e-14 1.00219 0
1.15129e-14 1.00219 0
-1.2893e-15 1 0
-2.34701e-15 1 0
1.15129e-14 1.00219 0
1.06507e-14 1.00219 0
-1.13323e-15 1.00219 0
-5.335e-15 1.00219 0
3.22985e-15 1.00332 0
4.65254e-15 1.00332 0
-5.335e-15 1.00219 0
-8.62893e-15 1.00219 0
4.65254e-15 1.00332 0
9.81327e-15 1.00332 0
-2.34701e-15 1 0
-4.76279e-15 1 0
1.06507e-14 1.00219 0
1.2479e-14 1.00219 0
-4.76279e-15 1 0
-1.70855e-15 1 0
1.2479e-14 1.00219 0
8.90209e-15 1.00219 0
-8.62893e-15 1.00219 0
-3.89498e-15 1.00219 0
9.81327e-15 1.00332 0
8.18612e-15 1.00332 0
-3.89498e-15 1.00219 0
-2.47076e-15 1.00219 0
8.18612e-15 1.00332 0
1.82358e-15 1.00332 0
-2.35085e-15 1.00332 0
-1.0532e-14 1.00332 0
9.8365e-15 1.00469 0
1.09928e-14 1.00469 0
-1.0532e-14 1.00332 0
1.04437e-15 1.00332 0
1.09928e-14 1.00469 0
2.53341e-15 1.00469 0
-1.90083e-15 1.00469 0
7.94469e-16 1.00469 0
6.29697e-15 1.00596 0
4.49623e-15 1.00596 0
7.94469e-16 1.00469 0
-3.97045e-15 1.00469 0
4.49623e-15 1.00596 0
3.62121e-15 1.00596 0
1.04437e-15 1.00332 0
-1.17185e-14 1.00332 0
2.53341e-15 1.00469 0
9.21479e-15 1.00469 0
-1.17185e-14 1.00332 0
-3.20853e-15 1.00332 0
9.21479e-15 1.00469 0
4.27357e-15 1.00469 0
-3.97045e-15 1.00469 0
2.25112e-15 1.00469 0
3.62121e-15 1.00596 0
4.72515e-15 1.00596 0
2.25112e-15 1.00469 0
1.17712e-15 1.00469 0
4.72515e-15 1.00596 0
1.94929e-15 1.00596 0
-7.70935e-15 1.00596 0
-8.04567e-15 1.00596 0
8.57027e-15 1.00723 0
7.60333e-15 1.00723 0
-8.04567e-15 1.00596 0
-7.7772e-15 1.00596 0
7.60333e-15 1.00723 0
1.36788e-15 1.00723 0
-3.41752e-15 1.00723 0
-1.06281e-14 1.00723 0
8.76845e-15 1.00848 0
7.45961e-15 1.00848 0
-1.06281e-14 1.00723 0
2.08969e-15 1.00723 0
7.45961e-15 1.00848 0
3.26203e-15 1.00848 0
-7.7772e-15 1.00596 0
2.66909e-15 1.00596 0
1.36788e-15 1.00723 0
-1.63942e-15 1.00723 0
2.66909e-15 1.00596 0
-1.23724e-14 1.00596 0
-1.63942e-15 1.00723 0
1.30343e-14 1.00723 0
2.08969e-15 1.00723 0
-1.78366e-15 1.00723 0
3.26203e-15 1.00848 0
3.58769e-15 1.00848 0
-1.78366e-15 1.00723 0
-6.4635e-15 1.00723 0
3.58769e-15 1.00848 0
4.02348e-15 1.00848 0
-1.06381e-15 1.00848 0
-1.33769e-16 1.00848 0
4.4313e-15 1.00971 0
7.49929e-15 1.00971 0
-1.33769e-16 1.00848 0
-3.69093e-15 1.00848 0
7.49929e-15 1.00971 0
4.54483e-15 1.00971 0
-8.95084e-15 1.00971 0
-1.94493e-15 1.00971 0
1.17338e-14 1.01092 0
5.60254e-15 1.01092 0
-1.94493e-15 1.00971 0
2.64301e-15 1.00971 0
5.60254e-15 1.01092 0
2.58648e-15 1.01092 0
-3.69093e-15 1.00848 0
-5.39964e-15 1.00848 0
4.54483e-15 1.00971 0
5.73018e-15 1.00971 0
-5.39964e-15 1.00848 0
-2.2027e-15 1.00848 0
5.73018e-15 1.00971 0
5.42338e-15 1.00971 0
2.64301e-15 1.00971 0
3.5374e-15 1.00971 0
2.58648e-15 1.01092 0
3.97538e-15 1.01092 0
3.5374e-15 1.00971 0
-3.72087e-15 1.00971 0
3.97538e-15 1.01092 0
6.37736e-15 1.01092 0
-1.23724e-14 1.00596 0
-6.13553e-16 1.00596 0
1.30343e-14 1.00723 0
4.79733e-15 1.00723 0
-6.13553e-16 1.00596 0
3.67442e-16 1.00596 0
4.79733e-15 1.00723 0
1.19406e-14 1.00723 0
-6.4635e-15 1.00723 0
-3.35831e-15 1.00723 0
4.02348e-15 1.00848 0
7.08006e-15 1.00848 0
-3.35831e-15 1.00723 0
-6.72819e-15 1.00723 0
7.08006e-15 1.00848 0
8.32e-15 1.00848 0
3.67442e-16 1.00596 0
1.86252e-15 1.00596 0
1.19406e-14 1.00723 0
2.5088e-15 1.00723 0
1.86252e-15 1.00596 0
1.0393e-14 1.00596 0
2.5088e-15 1.00723 0
-1.59794e-15 1.00723 0
-6.72819e-15 1.00723 0
-5.72963e-17 1.00723 0
8.32e-15 1.00848 0
5.43044e-15 1.00848 0
-5.72963e-17 1.00723 0
-3.56388e-15 1.00723 0
5.43044e-15 1.00848 0
1.2063e-14 1.00848 0
-2.2027e-15 1.00848 0
-3.67659e-15 1.00848 0
5.42338e-15 1.00971 0
-1.23286e-16 1.00971 0
-3.67659e-15 1.00848 0
-1.17363e-14 1.00848 0
-1.23286e-16 1.00971 0
6.18569e-15 1.00971 0
-3.72087e-15 1.00971 0
-2.44394e-15 1.00971 0
6.37736e-15 1.01092 0
7.19424e-15 1.01092 0
-2.44394e-15 1.00971 0
-4.81727e-15 1.00971 0
7.19424e-15 1.01092 0
6.15452e-15 1.01092 0
-1.17363e-14 1.00848 0
-1.8401e-15 1.00848 0
6.18569e-15 1.00971 0
4.59433e-15 1.00971 0
-1.8401e-15 1.00848 0
-3.34946e-15 1.00848 0
4.59433e-15 1.00971 0
2.42919e-15 1.00971 0
-4.81727e-15 1.00971 0
-3.60747e-15 1.00971 0
6.15452e-15 1.01092 0
3.86147e-15 1.01092 0
-3.60747e-15 1.00971 0
7.4784e-16 1.00971 0
3.86147e-15 1.01092 0
1.39289e-15 1.01092 0
0 1.01092 0
-2.91931e-15 1.01092 0
0 1.01213 0
1.35419e-15 1.01213 0
-2.91931e-15 1.01092 0
-4.62739e-14 1.01092 0
1.35419e-15 1.01213 0
-4.89085e-14 1.01213 0
0 1.01213 0
-4.85426e-16 1.01213 0
0 1.01333 0
6.28426e-15 1.01333 0
-4.85426e-16 1.01213 0
2.81657e-14 1.01213 0
6.28426e-15 1.01333 0
2.8174e-14 1.01333 0
-4.62739e-14 1.01092 0
2.96938e-15 1.01092 0
-4.89085e-14 1.01213 0
8.93398e-15 1.01213 0
2.96938e-15 1.01092 0
4.4504e-14 1.01092 0
8.93398e-15 1.01213 0
5.17229e-14 1.01213 0
2.81657e-14 1.01213 0
-2.46951e-14 1.01213 0
2.8174e-14 1.01333 0
-1.31175e-14 1.01333 0
-2.46951e-14 1.01213 0
-1.16914e-14 1.01213 0
-1.31175e-14 1.01333 0
-6.66789e-15 1.01333 0
0 1.01333 0
-1.47128e-14 1.01333 0
0 1.01455 0
-7.3501e-15 1.01455 0
-1.47128e-14 1.01333 0
-2.01887e-14 1.01333 0
-7.3501e-15 1.01455 0
-1.55141e-14 1.01455 0
0 1.01455 0
6.26475e-15 1.01455 0
0 1.01579 0
9.55222e-15 1.01579 0
6.26475e-15 1.01455 0
1.7844e-14 1.01455 0
9.55222e-15 1.01579 0
2.06742e-14 1.01579 0
-2.01887e-14 1.01333 0
5.69402e-15 1.01333 0
-1.55141e-14 1.01455 0
8.38183e-15 1.01455 0
5.69402e-15 1.01333 0
6.42472e-16 1.01333 0
8.38183e-15 1.01455 0
7.36318e-15 1.01455 0
1.7844e-14 1.01455 0
-1.58304e-15 1.01455 0
2.06742e-14 1.01579 0
-9.74401e-16 1.01579 0
-1.58304e-15 1.01455 0
-6.40911e-15 1.01455 0
-9.74401e-16 1.01579 0
4.35723e-16 1.01579 0
4.4504e-14 1.01092 0
-1.91451e-14 1.01092 0
5.17229e-14 1.01213 0
-8.10374e-15 1.01213 0
-1.91451e-14 1.01092 0
-9.6238e-15 1.01092 0
-8.10374e-15 1.01213 0
7.18925e-15 1.01213 0
-1.16914e-14 1.01213 0
1.50227e-14 1.01213 0
-6.66789e-15 1.01333 0
2.0189e-14 1.01333 0
1.50227e-14 1.01213 0
-5.01194e-15 1.01213 0
2.0189e-14 1.01333 0
3.95097e-15 1.01333 0
-9.6238e-15 1.01092 0
-3.09708e-15 1.01092 0
7.18925e-15 1.01213 0
7.38611e-15 1.01213 0
-3.09708e-15 1.01092 0
-5.24173e-15 1.01092 0
7.38611e-15 1.01213 0
4.87365e-15 1.01213 0
-5.01194e-15 1.01213 0
-7.13299e-15 1.01213 0
3.95097e-15 1.01333 0
7.09735e-15 1.01333 0
-7.13299e-15 1.01213 0
-8.25953e-15 1.01213 0
7.09735e-15 1.01333 0
7.13855e-15 1.01333 0
6.42472e-16 1.01333 0
-3.73283e-15 1.01333 0
7.36318e-15 1.01455 0
2.85156e-15 1.01455 0
-3.73283e-15 1.01333 0
-5.47647e-15 1.01333 0
2.85156e-15 1.01455 0
7.4611e-15 1.01455 0
-6.40911e-15 1.01455 0
-9.31235e-15 1.01455 0
4.35723e-16 1.01579 0
2.52067e-15 1.01579 0
-9.31235e-15 1.01455 0
-3.4091e-15 1.01455 0
2.52067e-15 1.01579 0
2.05661e-15 1.01579 0
-5.47647e-15 1.01333 0
-4.89705e-15 1.01333 0
7.4611e-15 1.01455 0
7.18471e-15 1.01455 0
-4.89705e-15 1.01333 0
-5.33049e-15 1.01333 0
7.18471e-15 1.01455 0
6.28053e-15 1.01455 0
-3.4091e-15 1.01455 0
-8.50207e-15 1.01455 0
2.05661e-15 1.01579 0
5.60744e-15 1.01579 0
-8.50207e-15 1.01455 0
-5.02729e-15 1.01455 0
5.60744e-15 1.01579 0
3.83932e-15 1.01579 0
0 1.01579 0
5.93017e-15 1.01579 0
0 1.01704 0
2.66772e-15 1.01704 0
5.93017e-15 1.01579 0
-1.8131e-14 1.01579 0
2.66772e-15 1.01704 0
-1.50573e-14 1.01704 0
0 1.01704 0
-1.27633e-14 1.01704 0
0 1.01826 0
-1.66623e-15 1.01826 0
-1.27633e-14 1.01704 0
1.53031e-14 1.01704 0
-1.66623e-15 1.01826 0
1.54326e-14 1.01826 0
-1.8131e-14 1.01579 0
-2.12847e-15 1.01579 0
-1.50573e-14 1.01704 0
3.43342e-15 1.01704 0
-2.12847e-15 1.01579 0
-9.09445e-15 1.01579 0
3.43342e-15 1.01704 0
4.34291e-15 1.01704 0
1.53031e-14 1.01704 0
-3.08269e-16 1.01704 0
1.54326e-14 1.01826 0
3.39021e-15 1.01826 0
-3.08269e-16 1.01704 0
-4.44834e-16 1.01704 0
3.39021e-15 1.01826 0
3.29607e-15 1.01826 0
0 1.01826 0
3.46964e-15 1.01826 0
0 1.01932 0
5.07245e-15 1.01932 0
3.46964e-15 1.01826 0
-1.04495e-14 1.01826 0
5.07245e-15 1.01932 0
-8.91911e-15 1.01932 0
0 1.01932 0
2.21167e-17 1.01932 0
0 1.01972 0
-3.38525e-15 1.01972 0
2.21167e-17 1.01932 0
2.42312e-16 1.01932 0
-3.38525e-15 1.01972 0
1.37982e-14 1.01972 0
-1.04495e-14 1.01826 0
2.31869e-15 1.01826 0
-8.91911e-15 1.01932 0
-1.4401e-15 1.01932 0
2.31869e-15 1.01826 0
-1.45744e-15 1.01826 0
-1.4401e-15 1.01932 0
1.94052e-17 1.01932 0
2.42312e-16 1.01932 0
-3.81148e-15 1.01932 0
1.37982e-14 1.01972 0
-6.30314e-15 1.01972 0
-3.81148e-15 1.01932 0
-5.16024e-15 1.01932 0
-6.30314e-15 1.01972 0
4.23842e-15 1.01972 0
-9.09445e-15 1.01579 0
-4.37952e-15 1.01579 0
4.34291e-15 1.01704 0
1.29104e-14 1.01704 0
-4.37952e-15 1.01579 0
-9.02204e-17 1.01579 0
1.29104e-14 1.01704 0
6.63348e-15 1.01704 0
-4.44834e-16 1.01704 0
-5.6615e-15 1.01704 0
3.29607e-15 1.01826 0
-2.74878e-16 1.01826 0
-5.6615e-15 1.01704 0
-5.32467e-15 1.01704 0
-2.74878e-16 1.01826 0
4.15903e-15 1.01826 0
-9.02204e-17 1.01579 0
-2.42263e-15 1.01579 0
6.63348e-15 1.01704 0
2.64238e-15 1.01704 0
-2.42263e-15 1.01579 0
-3.71941e-16 1.01579 0
2.64238e-15 1.01704 0
2.19155e-17 1.01704 0
-5.32467e-15 1.01704 0
-7.0411e-15 1.01704 0
4.15903e-15 1.01826 0
3.15726e-15 1.01826 0
-7.0411e-15 1.01704 0
-1.08488e-15 1.01704 0
3.15726e-15 1.01826 0
3.38887e-15 1.01826 0
-1.45744e-15 1.01826 0
-3.74307e-15 1.01826 0
1.94052e-17 1.01932 0
-9.59715e-17 1.01932 0
-3.74307e-15 1.01826 0
-2.98182e-15 1.01826 0
-9.59715e-17 1.01932 0
1.37806e-15 1.01932 0
-5.16024e-15 1.01932 0
-4.52481e-15 1.01932 0
4.23842e-15 1.01972 0
5.11203e-15 1.01972 0
-4.52481e-15 1.01932 0
-3.11164e-15 1.01932 0
5.11203e-15 1.01972 0
1.0457e-15 1.01972 0
-2.98182e-15 1.01826 0
-1.44159e-15 1.01826 0
1.37806e-15 1.01932 0
-1.36538e-15 1.01932 0
-1.44159e-15 1.01826 0
-2.00809e-15 1.01826 0
-1.36538e-15 1.01932 0
2.56546e-15 1.01932 0
-3.11164e-15 1.01932 0
-2.25048e-15 1.01932 0
1.0457e-15 1.01972 0
3.688e-15 1.01972 0
-2.25048e-15 1.01932 0
5.69381e-16 1.01932 0
3.688e-15 1.01972 0
-8.58058e-15 1.01972 0
-5.24173e-15 1.01092 0
-1.20327e-15 1.01092 0
4.87365e-15 1.01213 0
4.99303e-15 1.01213 0
-1.20327e-15 1.01092 0
-5.02941e-15 1.01092 0
4.99303e-15 1.01213 0
6.49196e-15 1.01213 0
-8.25953e-15 1.01213 0
-6.13637e-15 1.01213 0
7.13855e-15 1.01333 0
5.43292e-15 1.01333 0
-6.13637e-15 1.01213 0
-2.62819e-15 1.01213 0
5.43292e-15 1.01333 0
3.83051e-15 1.01333 0
-5.02941e-15 1.01092 0
-7.84233e-15 1.01092 0
6.49196e-15 1.01213 0
6.73621e-15 1.01213 0
-7.84233e-15 1.01092 0
-2.21906e-15 1.01092 0
6.73621e-15 1.01213 0
5.64828e-15 1.01213 0
-2.62819e-15 1.01213 0
-6.76345e-15 1.01213 0
3.83051e-15 1.01333 0
6.59866e-15 1.01333 0
-6.76345e-15 1.01213 0
-2.90423e-15 1.01213 0
6.59866e-15 1.01333 0
3.98239e-15 1.01333 0
-5.33049e-15 1.01333 0
-5.05279e-15 1.01333 0
6.28053e-15 1.01455 0
8.33768e-15 1.01455 0
-5.05279e-15 1.01333 0
-6.14475e-15 1.01333 0
8.33768e-15 1.01455 0
7.29115e-15 1.01455 0
-5.02729e-15 1.01455 0
-6.99922e-15 1.01455 0
3.83932e-15 1.01579 0
5.20042e-15 1.01579 0
-6.99922e-15 1.01455 0
-3.47121e-15 1.01455 0
5.20042e-15 1.01579 0
2.02997e-15 1.01579 0
-6.14475e-15 1.01333 0
-4.98205e-15 1.01333 0
7.29115e-15 1.01455 0
7.26823e-15 1.01455 0
-4.98205e-15 1.01333 0
-2.67759e-15 1.01333 0
7.26823e-15 1.01455 0
-5.3573e-16 1.01455 0
-3.47121e-15 1.01455 0
-6.01465e-15 1.01455 0
2.02997e-15 1.01579 0
6.22381e-15 1.01579 0
-6.01465e-15 1.01455 0
1.51907e-15 1.01455 0
6.22381e-15 1.01579 0
-1.28552e-15 1.01579 0
-2.21906e-15 1.01092 0
-3.55023e-15 1.01092 0
5.64828e-15 1.01213 0
4.31976e-15 1.01213 0
-3.55023e-15 1.01092 0
-7.91379e-17 1.01092 0
4.31976e-15 1.01213 0
7.87957e-15 1.01213 0
-2.90423e-15 1.01213 0
-2.3441e-15 1.01213 0
3.98239e-15 1.01333 0
2.89338e-15 1.01333 0
-2.3441e-15 1.01213 0
-1.83193e-15 1.01213 0
2.89338e-15 1.01333 0
4.25441e-15 1.01333 0
-7.91379e-17 1.01092 0
-1.96368e-15 1.01092 0
7.87957e-15 1.01213 0
6.22102e-15 1.01213 0
-1.96368e-15 1.01092 0
1.67072e-15 1.01092 0
6.22102e-15 1.01213 0
3.63622e-15 1.01213 0
-1.83193e-15 1.01213 0
-1.0722e-15 1.01213 0
4.25441e-15 1.01333 0
2.56582e-15 1.01333 0
-1.0722e-15 1.01213 0
-5.89181e-15 1.01213 0
2.56582e-15 1.01333 0
3.1013e-15 1.01333 0
-2.67759e-15 1.01333 0
2.92762e-17 1.01333 0
-5.3573e-16 1.01455 0
1.66156e-15 1.01455 0
2.92762e-17 1.01333 0
-2.02874e-15 1.01333 0
1.66156e-15 1.01455 0
3.70214e-15 1.01455 0
1.51907e-15 1.01455 0
-2.10899e-15 1.01455 0
-1.28552e-15 1.01579 0
1.9659e-15 1.01579 0
-2.10899e-15 1.01455 0
-7.51034e-15 1.01455 0
1.9659e-15 1.01579 0
6.80864e-15 1.01579 0
-2.02874e-15 1.01333 0
-4.73251e-15 1.01333 0
3.70214e-15 1.01455 0
6.99504e-15 1.01455 0
-4.73251e-15 1.01333 0
-2.18756e-15 1.01333 0
6.99504e-15 1.01455 0
4.97341e-15 1.01455 0
-7.51034e-15 1.01455 0
-4.10141e-15 1.01455 0
6.80864e-15 1.01579 0
1.246e-15 1.01579 0
-4.10141e-15 1.01455 0
2.03635e-15 1.01455 0
1.246e-15 1.01579 0
-1.44495e-18 1.01579 0
-3.71941e-16 1.01579 0
-7.02882e-15 1.01579 0
2.19155e-17 1.01704 0
6.65264e-15 1.01704 0
-7.02882e-15 1.01579 0
-3.53095e-15 1.01579 0
6.65264e-15 1.01704 0
1.86783e-15 1.01704 0
-1.08488e-15 1.01704 0
-4.5692e-15 1.01704 0
3.38887e-15 1.01826 0
3.41066e-15 1.01826 0
-4.5692e-15 1.01704 0
-2.42552e-15 1.01704 0
3.41066e-15 1.01826 0
2.64897e-15 1.01826 0
-3.53095e-15 1.01579 0
-6.42666e-16 1.01579 0
1.86783e-15 1.01704 0
8.7491e-16 1.01704 0