# vtk DataFile Version 3.0
#This file was generated by the deal.II library on 2018/10/11 at 23:59:10
ASCII
DATASET UNSTRUCTURED_GRID

POINTS 5120 double
0 0 0
0.392699 0 0
0 0.617423 0
0.392699 0.617423 0
0.392699 0 0
0.785398 0 0
0.392699 0.617423 0
0.785398 0.617423 0
0 0.617423 0
0.392699 0.617423 0
0 1.24298 0
0.392699 1.24298 0
0.392699 0.617423 0
0.785398 0.617423 0
0.392699 1.24298 0
0.785398 1.24298 0
0.785398 0 0
1.1781 0 0
0.785398 0.617423 0
1.1781 0.617423 0
1.1781 0 0
1.5708 0 0
1.1781 0.617423 0
1.5708 0.617423 0
0.785398 0.617423 0
1.1781 0.617423 0
0.785398 1.24298 0
1.1781 1.24298 0
1.1781 0.617423 0
1.5708 0.617423 0
1.1781 1.24298 0
1.5708 1.24298 0
0 1.24298 0
0.392699 1.24298 0
0 1.8682 0
0.392699 1.8682 0
0.392699 1.24298 0
0.785398 1.24298 0
0.392699 1.8682 0
0.785398 1.8682 0
0 1.8682 0
0.392699 1.8682 0
0 2.49368 0
0.392699 2.49368 0
0.392699 1.8682 0
0.785398 1.8682 0
0.392699 2.49368 0
0.785398 2.49368 0
0.785398 1.24298 0
1.1781 1.24298 0
0.785398 1.8682 0
1.1781 1.8682 0
1.1781 1.24298 0
1.5708 1.24298 0
1.1781 1.8682 0
1.5708 1.8682 0
0.785398 1.8682 0
1.1781 1.8682 0
0.785398 2.49368 0
1.1781 2.49368 0
1.1781 1.8682 0
1.5708 1.8682 0
1.1781 2.49368 0
1.5708 2.49368 0
1.5708 0 0
1.9635 0 0
1.5708 0.617423 0
1.9635 0.617423 0
1.9635 0 0
2.35619 0 0
1.9635 0.617423 0
2.35619 0.617423 0
1.5708 0.617423 0
1.9635 0.617423 0
1.5708 1.24298 0
1.9635 1.24298 0
1.9635 0.617423 0
2.35619 0.617423 0
1.9635 1.24298 0
2.35619 1.24298 0
2.35619 0 0
2.74889 0 0
2.35619 0.617423 0
2.74889 0.617423 0
2.74889 0 0
3.14159 0 0
2.74889 0.617423 0
3.14159 0.617423 0
2.35619 0.617423 0
2.74889 0.617423 0
2.35619 1.24298 0
2.74889 1.24298 0
2.74889 0.617423 0
3.14159 0.617423 0
2.74889 1.24298 0
3.14159 1.24298 0
1.5708 1.24298 0
1.9635 1.24298 0
1.5708 1.8682 0
1.9635 1.8682 0
1.9635 1.24298 0
2.35619 1.24298 0
1.9635 1.8682 0
2.35619 1.8682 0
1.5708 1.8682 0
1.9635 1.8682 0
1.5708 2.49368 0
1.9635 2.49368 0
1.9635 1.8682 0
2.35619 1.8682 0
1.9635 2.49368 0
2.35619 2.49368 0
2.35619 1.24298 0
2.74889 1.24298 0
2.35619 1.8682 0
2.74889 1.8682 0
2.74889 1.24298 0
3.14159 1.24298 0
2.74889 1.8682 0
3.14159 1.8682 0
2.35619 1.8682 0
2.74889 1.8682 0
2.35619 2.49368 0
2.74889 2.49368 0
2.74889 1.8682 0
3.14159 1.8682 0
2.74889 2.49368 0
3.14159 2.49368 0
0 2.49368 0
0.392699 2.49368 0
0 3.11909 0
0.392699 3.11909 0
0.392699 2.49368 0
0.785398 2.49368 0
0.392699 3.11909 0
0.785398 3.11909 0
0 3.11909 0
0.392699 3.11909 0
0 3.74449 0
0.392699 3.74449 0
0.392699 3.11909 0
0.785398 3.11909 0
0.392699 3.74449 0
0.785398 3.74449 0
0.785398 2.49368 0
1.1781 2.49368 0
0.785398 3.11909 0
1.1781 3.11909 0
1.1781 2.49368 0
1.5708 2.49368 0
1.1781 3.11909 0
1.5708 3.11909 0
0.785398 3.11909 0
1.1781 3.11909 0
0.785398 3.74449 0
1.1781 3.74449 0
1.1781 3.11909 0
1.5708 3.11909 0
1.1781 3.74449 0
1.5708 3.74449 0
0 3.74449 0
0.392699 3.74449 0
0 4.36988 0
0.392699 4.36988 0
0.392699 3.74449 0
0.785398 3.74449 0
0.392699 4.36988 0
0.785398 4.36988 0
0 4.36988 0
0.392699 4.36988 0
0 4.99524 0
0.392699 4.99524 0
0.392699 4.36988 0
0.785398 4.36988 0
0.392699 4.99524 0
0.785398 4.99524 0
0.785398 3.74449 0
1.1781 3.74449 0
0.785398 4.36988 0
1.1781 4.36988 0
1.1781 3.74449 0
1.5708 3.74449 0
1.1781 4.36988 0
1.5708 4.36988 0
0.785398 4.36988 0
1.1781 4.36988 0
0.785398 4.99524 0
1.1781 4.99524 0
1.1781 4.36988 0
1.5708 4.36988 0
1.1781 4.99524 0
1.5708 4.99524 0
1.5708 2.49368 0
1.9635 2.49368 0
1.5708 3.11909 0
1.9635 3.11909 0
1.9635 2.49368 0
2.35619 2.49368 0
1.9635 3.11909 0
2.35619 3.11909 0
1.5708 3.11909 0
1.9635 3.11909 0
1.5708 3.74449 0
1.9635 3.74449 0
1.9635 3.11909 0
2.35619 3.11909 0
1.9635 3.74449 0
2.35619 3.74449 0
2.35619 2.49368 0
2.74889 2.49368 0
2.35619 3.11909 0
2.74889 3.11909 0
2.74889 2.49368 0
3.14159 2.49368 0
2.74889 3.11909 0
3.14159 3.11909 0
2.35619 3.11909 0
2.74889 3.11909 0
2.35619 3.74449 0
2.74889 3.74449 0
2.74889 3.11909 0
3.14159 3.11909 0
2.74889 3.74449 0
3.14159 3.74449 0
1.5708 3.74449 0
1.9635 3.74449 0
1.5708 4.36988 0
1.9635 4.36988 0
1.9635 3.74449 0
2.35619 3.74449 0
1.9635 4.36988 0
2.35619 4.36988 0
1.5708 4.36988 0
1.9635 4.36988 0
1.5708 4.99524 0
1.9635 4.99524 0
1.9635 4.36988 0
2.35619 4.36988 0
1.9635 4.99524 0
2.35619 4.99524 0
2.35619 3.74449 0
2.74889 3.74449 0
2.35619 4.36988 0
2.74889 4.36988 0
2.74889 3.74449 0
3.14159 3.74449 0
2.74889 4.36988 0
3.14159 4.36988 0
2.35619 4.36988 0
2.74889 4.36988 0
2.35619 4.99524 0
2.74889 4.99524 0
2.74889 4.36988 0
3.14159 4.36988 0
2.74889 4.99524 0
3.14159 4.99524 0
3.14159 0 0
3.53429 0 0
3.14159 0.617423 0
3.53429 0.617423 0
3.53429 0 0
3.92699 0 0
3.53429 0.617423 0
3.92699 0.617423 0
3.14159 0.617423 0
3.53429 0.617423 0
3.14159 1.24298 0
3.53429 1.24298 0
3.53429 0.617423 0
3.92699 0.617423 0
3.53429 1.24298 0
3.92699 1.24298 0
3.92699 0 0
4.31969 0 0
3.92699 0.617423 0
4.31969 0.617423 0
4.31969 0 0
4.71239 0 0
4.31969 0.617423 0
4.71239 0.617423 0
3.92699 0.617423 0
4.31969 0.617423 0
3.92699 1.24298 0
4.31969 1.24298 0
4.31969 0.617423 0
4.71239 0.617423 0
4.31969 1.24298 0
4.71239 1.24298 0
3.14159 1.24298 0
3.53429 1.24298 0
3.14159 1.8682 0
3.53429 1.8682 0
3.53429 1.24298 0
3.92699 1.24298 0
3.53429 1.8682 0
3.92699 1.8682 0
3.14159 1.8682 0
3.53429 1.8682 0
3.14159 2.49368 0
3.53429 2.49368 0
3.53429 1.8682 0
3.92699 1.8682 0
3.53429 2.49368 0
3.92699 2.49368 0
3.92699 1.24298 0
4.31969 1.24298 0
3.92699 1.8682 0
4.31969 1.8682 0
4.31969 1.24298 0
4.71239 1.24298 0
4.31969 1.8682 0
4.71239 1.8682 0
3.92699 1.8682 0
4.31969 1.8682 0
3.92699 2.49368 0
4.31969 2.49368 0
4.31969 1.8682 0
4.71239 1.8682 0
4.31969 2.49368 0
4.71239 2.49368 0
4.71239 0 0
5.10509 0 0
4.71239 0.617423 0
5.10509 0.617423 0
5.10509 0 0
5.49779 0 0
5.10509 0.617423 0
5.49779 0.617423 0
4.71239 0.617423 0
5.10509 0.617423 0
4.71239 1.24298 0
5.10509 1.24298 0
5.10509 0.617423 0
5.49779 0.617423 0
5.10509 1.24298 0
5.49779 1.24298 0
5.49779 0 0
5.89049 0 0
5.49779 0.617423 0
5.89049 0.617423 0
5.89049 0 0
6.28319 0 0
5.89049 0.617423 0
6.28319 0.617423 0
5.49779 0.617423 0
5.89049 0.617423 0
5.49779 1.24298 0
5.89049 1.24298 0
5.89049 0.617423 0
6.28319 0.617423 0
5.89049 1.24298 0
6.28319 1.24298 0
4.71239 1.24298 0
5.10509 1.24298 0
4.71239 1.8682 0
5.10509 1.8682 0
5.10509 1.24298 0
5.49779 1.24298 0
5.10509 1.8682 0
5.49779 1.8682 0
4.71239 1.8682 0
5.10509 1.8682 0
4.71239 2.49368 0
5.10509 2.49368 0
5.10509 1.8682 0
5.49779 1.8682 0
5.10509 2.49368 0
5.49779 2.49368 0
5.49779 1.24298 0
5.89049 1.24298 0
5.49779 1.8682 0
5.89049 1.8682 0
5.89049 1.24298 0
6.28319 1.24298 0
5.89049 1.8682 0
6.28319 1.8682 0
5.49779 1.8682 0
5.89049 1.8682 0
5.49779 2.49368 0
5.89049 2.49368 0
5.89049 1.8682 0
6.28319 1.8682 0
5.89049 2.49368 0
6.28319 2.49368 0
3.14159 2.49368 0
3.53429 2.49368 0
3.14159 3.11909 0
3.53429 3.11909 0
3.53429 2.49368 0
3.92699 2.49368 0
3.53429 3.11909 0
3.92699 3.11909 0
3.14159 3.11909 0
3.53429 3.11909 0
3.14159 3.74449 0
3.53429 3.74449 0
3.53429 3.11909 0
3.92699 3.11909 0
3.53429 3.74449 0
3.92699 3.74449 0
3.92699 2.49368 0
4.31969 2.49368 0
3.92699 3.11909 0
4.31969 3.11909 0
4.31969 2.49368 0
4.71239 2.49368 0
4.31969 3.11909 0
4.71239 3.11909 0
3.92699 3.11909 0
4.31969 3.11909 0
3.92699 3.74449 0
4.31969 3.74449 0
4.31969 3.11909 0
4.71239 3.11909 0
4.31969 3.74449 0
4.71239 3.74449 0
3.14159 3.74449 0
3.53429 3.74449 0
3.14159 4.36988 0
3.53429 4.36988 0
3.53429 3.74449 0
3.92699 3.74449 0
3.53429 4.36988 0
3.92699 4.36988 0
3.14159 4.36988 0
3.53429 4.36988 0
3.14159 4.99524 0
3.53429 4.99524 0
3.53429 4.36988 0
3.92699 4.36988 0
3.53429 4.99524 0
3.92699 4.99524 0
3.92699 3.74449 0
4.31969 3.74449 0
3.92699 4.36988 0
4.31969 4.36988 0
4.31969 3.74449 0
4.71239 3.74449 0
4.31969 4.36988 0
4.71239 4.36988 0
3.92699 4.36988 0
4.31969 4.36988 0
3.92699 4.99524 0
4.31969 4.99524 0
4.31969 4.36988 0
4.71239 4.36988 0
4.31969 4.99524 0
4.71239 4.99524 0
4.71239 2.49368 0
5.10509 2.49368 0
4.71239 3.11909 0
5.10509 3.11909 0
5.10509 2.49368 0
5.49779 2.49368 0
5.10509 3.11909 0
5.49779 3.11909 0
4.71239 3.11909 0
5.10509 3.11909 0
4.71239 3.74449 0
5.10509 3.74449 0
5.10509 3.11909 0
5.49779 3.11909 0
5.10509 3.74449 0
5.49779 3.74449 0
5.49779 2.49368 0
5.89049 2.49368 0
5.49779 3.11909 0
5.89049 3.11909 0
5.89049 2.49368 0
6.28319 2.49368 0
5.89049 3.11909 0
6.28319 3.11909 0
5.49779 3.11909 0
5.89049 3.11909 0
5.49779 3.74449 0
5.89049 3.74449 0
5.89049 3.11909 0
6.28319 3.11909 0
5.89049 3.74449 0
6.28319 3.74449 0
4.71239 3.74449 0
5.10509 3.74449 0
4.71239 4.36988 0
5.10509 4.36988 0
5.10509 3.74449 0
5.49779 3.74449 0
5.10509 4.36988 0
5.49779 4.36988 0
4.71239 4.36988 0
5.10509 4.36988 0
4.71239 4.99524 0
5.10509 4.99524 0
5.10509 4.36988 0
5.49779 4.36988 0
5.10509 4.99524 0
5.49779 4.99524 0
5.49779 3.74449 0
5.89049 3.74449 0
5.49779 4.36988 0
5.89049 4.36988 0
5.89049 3.74449 0
6.28319 3.74449 0
5.89049 4.36988 0
6.28319 4.36988 0
5.49779 4.36988 0
5.89049 4.36988 0
5.49779 4.99524 0
5.89049 4.99524 0
5.89049 4.36988 0
6.28319 4.36988 0
5.89049 4.99524 0
6.28319 4.99524 0
0 4.99524 0
0.392699 4.99524 0
0 5.62058 0
0.392699 5.62058 0
0.392699 4.99524 0
0.785398 4.99524 0
0.392699 5.62058 0
0.785398 5.62058 0
0 5.62058 0
0.392699 5.62058 0
0 6.24588 0
0.392699 6.24588 0
0.392699 5.62058 0
0.785398 5.62058 0
0.392699 6.24588 0
0.785398 6.24588 0
0.785398 4.99524 0
1.1781 4.99524 0
0.785398 5.62058 0
1.1781 5.62058 0
1.1781 4.99524 0
1.5708 4.99524 0
1.1781 5.62058 0
1.5708 5.62058 0
0.785398 5.62058 0
1.1781 5.62058 0
0.785398 6.24588 0
1.1781 6.24588 0
1.1781 5.62058 0
1.5708 5.62058 0
1.1781 6.24588 0
1.5708 6.24588 0
0 6.24588 0
0.392699 6.24588 0
0 6.87117 0
0.392699 6.87117 0
0.392699 6.24588 0
0.785398 6.24588 0
0.392699 6.87117 0
0.785398 6.87117 0
0 6.87117 0
0.392699 6.87117 0
0 7.49646 0
0.392699 7.49646 0
0.392699 6.87117 0
0.785398 6.87117 0
0.392699 7.49646 0
0.785398 7.49646 0
0.785398 6.24588 0
1.1781 6.24588 0
0.785398 6.87117 0
1.1781 6.87117 0
1.1781 6.24588 0
1.5708 6.24588 0
[...]
POINT_DATA 5120
VECTORS uf double
0 1 0
-1.84117e-14 1 0
0 1.00204 0
-1.63162e-14 1.00204 0
-1.84117e-14 1 0
-1.14098e-15 1 0
-1.63162e-14 1.00204 0
5.82285e-15 1.00204 0
0 1.00204 0
-2.64474e-15 1.00204 0
0 1.00308 0
1.20635e-14 1.00308 0
-2.64474e-15 1.00204 0
-3.68473e-15 1.00204 0
1.20635e-14 1.00308 0
3.83817e-15 1.00308 0
-1.14098e-15 1 0
1.5694e-14 1 0
5.82285e-15 1.00204 0
3.43469e-14 1.00204 0
1.5694e-14 1 0
-1.4175e-14 1 0
3.43469e-14 1.00204 0
2.08529e-14 1.00204 0
-3.68473e-15 1.00204 0
-3.19978e-14 1.00204 0
3.83817e-15 1.00308 0
-1.60939e-14 1.00308 0
-3.19978e-14 1.00204 0
-1.0889e-14 1.00204 0
-1.60939e-14 1.00308 0
4.67866e-15 1.00308 0
0 1.00308 0
3.29152e-15 1.00308 0
0 1.00436 0
1.09015e-14 1.00436 0
3.29152e-15 1.00308 0
-9.45576e-15 1.00308 0
1.09015e-14 1.00436 0
7.55461e-15 1.00436 0
0 1.00436 0
1.56392e-15 1.00436 0
0 1.00555 0
4.18505e-15 1.00555 0
1.56392e-15 1.00436 0
1.58608e-15 1.00436 0
4.18505e-15 1.00555 0
1.65096e-14 1.00555 0
-9.45576e-15 1.00308 0
-9.64622e-15 1.00308 0
7.55461e-15 1.00436 0
9.25701e-15 1.00436 0
-9.64622e-15 1.00308 0
-7.42962e-15 1.00308 0
9.25701e-15 1.00436 0
1.1331e-14 1.00436 0
1.58608e-15 1.00436 0
7.4221e-15 1.00436 0
1.65096e-14 1.00555 0
-4.82981e-15 1.00555 0
7.4221e-15 1.00436 0
-3.11947e-14 1.00436 0
-4.82981e-15 1.00555 0
-1.6183e-14 1.00555 0
-1.4175e-14 1 0
-7.44723e-15 1 0
2.08529e-14 1.00204 0
5.09707e-15 1.00204 0
-7.44723e-15 1 0
-1.44405e-14 1 0
5.09707e-15 1.00204 0
1.67331e-14 1.00204 0
-1.0889e-14 1.00204 0
-2.74941e-15 1.00204 0
4.67866e-15 1.00308 0
1.86665e-15 1.00308 0
-2.74941e-15 1.00204 0
-1.3548e-14 1.00204 0
1.86665e-15 1.00308 0
1.05169e-14 1.00308 0
-1.44405e-14 1 0
-5.09415e-15 1 0
1.67331e-14 1.00204 0
1.52433e-16 1.00204 0
-5.09415e-15 1 0
-3.97187e-15 1 0
1.52433e-16 1.00204 0
8.81472e-17 1.00204 0
-1.3548e-14 1.00204 0
-9.23075e-15 1.00204 0
1.05169e-14 1.00308 0
1.28129e-14 1.00308 0
-9.23075e-15 1.00204 0
-6.64225e-15 1.00204 0
1.28129e-14 1.00308 0
1.56037e-14 1.00308 0
-7.42962e-15 1.00308 0
2.64264e-15 1.00308 0
1.1331e-14 1.00436 0
1.3273e-14 1.00436 0
2.64264e-15 1.00308 0
-1.54569e-15 1.00308 0
1.3273e-14 1.00436 0
6.2925e-15 1.00436 0
-3.11947e-14 1.00436 0
-1.60284e-14 1.00436 0
-1.6183e-14 1.00555 0
4.53044e-15 1.00555 0
-1.60284e-14 1.00436 0
-5.14154e-15 1.00436 0
4.53044e-15 1.00555 0
1.26863e-14 1.00555 0
-1.54569e-15 1.00308 0
-7.46879e-15 1.00308 0
6.2925e-15 1.00436 0
1.77249e-14 1.00436 0
-7.46879e-15 1.00308 0
-1.11835e-14 1.00308 0
1.77249e-14 1.00436 0
1.58445e-14 1.00436 0
-5.14154e-15 1.00436 0
-8.47505e-15 1.00436 0
1.26863e-14 1.00555 0
4.81133e-15 1.00555 0
-8.47505e-15 1.00436 0
-1.02457e-14 1.00436 0
4.81133e-15 1.00555 0
7.81274e-15 1.00555 0
0 1.00555 0
-4.55602e-15 1.00555 0
0 1.00674 0
1.49406e-15 1.00674 0
-4.55602e-15 1.00555 0
-3.69748e-14 1.00555 0
1.49406e-15 1.00674 0
-1.53005e-14 1.00674 0
0 1.00674 0
-4.15609e-15 1.00674 0
0 1.00791 0
3.51078e-15 1.00791 0
-4.15609e-15 1.00674 0
3.59821e-14 1.00674 0
3.51078e-15 1.00791 0
4.62631e-14 1.00791 0
-3.69748e-14 1.00555 0
-1.30084e-14 1.00555 0
-1.53005e-14 1.00674 0
9.99022e-15 1.00674 0
-1.30084e-14 1.00555 0
3.7177e-14 1.00555 0
9.99022e-15 1.00674 0
4.07463e-14 1.00674 0
3.59821e-14 1.00674 0
-3.15347e-15 1.00674 0
4.62631e-14 1.00791 0
2.00411e-14 1.00791 0
-3.15347e-15 1.00674 0
-4.76484e-14 1.00674 0
2.00411e-14 1.00791 0
-2.60298e-14 1.00791 0
0 1.00791 0
1.44126e-14 1.00791 0
0 1.00906 0
8.33014e-15 1.00906 0
1.44126e-14 1.00791 0
-5.25937e-14 1.00791 0
8.33014e-15 1.00906 0
-4.14046e-14 1.00906 0
0 1.00906 0
-4.78225e-15 1.00906 0
0 1.0102 0
-4.56183e-15 1.0102 0
-4.78225e-15 1.00906 0
3.71551e-14 1.00906 0
-4.56183e-15 1.0102 0
4.89449e-14 1.0102 0
-5.25937e-14 1.00791 0
-1.81432e-14 1.00791 0
-4.14046e-14 1.00906 0
-7.90994e-15 1.00906 0
-1.81432e-14 1.00791 0
3.68542e-14 1.00791 0
-7.90994e-15 1.00906 0
4.74194e-14 1.00906 0
3.71551e-14 1.00906 0
1.41824e-14 1.00906 0
4.89449e-14 1.0102 0
4.60181e-15 1.0102 0
1.41824e-14 1.00906 0
-3.25521e-14 1.00906 0
4.60181e-15 1.0102 0
-2.56639e-14 1.0102 0
3.7177e-14 1.00555 0
-8.48319e-15 1.00555 0
4.07463e-14 1.00674 0
1.25547e-14 1.00674 0
-8.48319e-15 1.00555 0
-1.46768e-14 1.00555 0
1.25547e-14 1.00674 0
1.30424e-14 1.00674 0
-4.76484e-14 1.00674 0
-1.92447e-14 1.00674 0
-2.60298e-14 1.00791 0
-9.65077e-16 1.00791 0
-1.92447e-14 1.00674 0
-3.55079e-15 1.00674 0
-9.65077e-16 1.00791 0
3.43995e-15 1.00791 0
-1.46768e-14 1.00555 0
-5.27783e-15 1.00555 0
1.30424e-14 1.00674 0
7.55038e-15 1.00674 0
-5.27783e-15 1.00555 0
-1.31416e-14 1.00555 0
7.55038e-15 1.00674 0
1.54232e-14 1.00674 0
-3.55079e-15 1.00674 0
-3.60668e-15 1.00674 0
3.43995e-15 1.00791 0
6.19069e-15 1.00791 0
-3.60668e-15 1.00674 0
-9.71822e-15 1.00674 0
6.19069e-15 1.00791 0
1.29162e-14 1.00791 0
3.68542e-14 1.00791 0
1.96911e-14 1.00791 0
4.74194e-14 1.00906 0
3.03503e-14 1.00906 0
1.96911e-14 1.00791 0
-6.43345e-15 1.00791 0
3.03503e-14 1.00906 0
8.93929e-15 1.00906 0
-3.25521e-14 1.00906 0
-1.79919e-14 1.00906 0
-2.56639e-14 1.0102 0
-6.19056e-15 1.0102 0
-1.79919e-14 1.00906 0
-7.10723e-15 1.00906 0
-6.19056e-15 1.0102 0
7.80748e-15 1.0102 0
-6.43345e-15 1.00791 0
-5.3825e-15 1.00791 0
8.93929e-15 1.00906 0
6.07489e-15 1.00906 0
-5.3825e-15 1.00791 0
-1.23381e-14 1.00791 0
6.07489e-15 1.00906 0
9.76318e-15 1.00906 0
-7.10723e-15 1.00906 0
-6.3338e-15 1.00906 0
7.80748e-15 1.0102 0
2.73562e-15 1.0102 0
-6.3338e-15 1.00906 0
-1.06536e-14 1.00906 0
2.73562e-15 1.0102 0
1.24251e-14 1.0102 0
-3.97187e-15 1 0
-1.67415e-14 1 0
8.81472e-17 1.00204 0
2.34203e-14 1.00204 0
-1.67415e-14 1 0
-2.90816e-15 1 0
2.34203e-14 1.00204 0
1.05881e-14 1.00204 0
-6.64225e-15 1.00204 0
-7.62866e-15 1.00204 0
1.56037e-14 1.00308 0
4.59993e-15 1.00308 0
-7.62866e-15 1.00204 0
-9.01767e-15 1.00204 0
4.59993e-15 1.00308 0
1.71839e-15 1.00308 0
-2.90816e-15 1 0
-7.73191e-15 1 0
1.05881e-14 1.00204 0
1.44164e-14 1.00204 0
-7.73191e-15 1 0
-5.48587e-15 1 0
1.44164e-14 1.00204 0
6.80122e-15 1.00204 0
-9.01767e-15 1.00204 0
-1.48041e-14 1.00204 0
1.71839e-15 1.00308 0
9.67788e-15 1.00308 0
-1.48041e-14 1.00204 0
-5.16463e-15 1.00204 0
9.67788e-15 1.00308 0
5.61078e-15 1.00308 0
-1.11835e-14 1.00308 0
-5.08679e-15 1.00308 0
1.58445e-14 1.00436 0
1.09996e-14 1.00436 0
-5.08679e-15 1.00308 0
-2.05156e-15 1.00308 0
1.09996e-14 1.00436 0
1.0551e-14 1.00436 0
-1.02457e-14 1.00436 0
-5.42852e-15 1.00436 0
7.81274e-15 1.00555 0
9.96399e-15 1.00555 0
-5.42852e-15 1.00436 0
-7.70721e-15 1.00436 0
9.96399e-15 1.00555 0
9.28526e-15 1.00555 0
-2.05156e-15 1.00308 0
3.72606e-15 1.00308 0
1.0551e-14 1.00436 0
5.03542e-15 1.00436 0
3.72606e-15 1.00308 0
4.59909e-16 1.00308 0
5.03542e-15 1.00436 0
1.16125e-14 1.00436 0
-7.70721e-15 1.00436 0
-8.89846e-15 1.00436 0
9.28526e-15 1.00555 0
9.64602e-15 1.00555 0
-8.89846e-15 1.00436 0
-6.56034e-15 1.00436 0
9.64602e-15 1.00555 0
1.28521e-14 1.00555 0
-5.48587e-15 1 0
-6.59364e-15 1 0
6.80122e-15 1.00204 0
1.45591e-14 1.00204 0
-6.59364e-15 1 0
-1.19872e-14 1 0
1.45591e-14 1.00204 0
2.33394e-14 1.00204 0
-5.16463e-15 1.00204 0
-1.00583e-14 1.00204 0
5.61078e-15 1.00308 0
6.92298e-15 1.00308 0
-1.00583e-14 1.00204 0
-2.00459e-14 1.00204 0
6.92298e-15 1.00308 0
1.38062e-14 1.00308 0
-1.19872e-14 1 0
-7.05912e-15 1 0
2.33394e-14 1.00204 0
1.28053e-14 1.00204 0
-7.05912e-15 1 0
-3.80461e-15 1 0
1.28053e-14 1.00204 0
1.07762e-14 1.00204 0
-2.00459e-14 1.00204 0
-9.28381e-15 1.00204 0
1.38062e-14 1.00308 0
7.87815e-15 1.00308 0
-9.28381e-15 1.00204 0
-1.0401e-14 1.00204 0
7.87815e-15 1.00308 0
1.10184e-14 1.00308 0
4.59909e-16 1.00308 0
-5.62436e-15 1.00308 0
1.16125e-14 1.00436 0
9.06677e-15 1.00436 0
-5.62436e-15 1.00308 0
-1.70163e-15 1.00308 0
9.06677e-15 1.00436 0
1.19507e-14 1.00436 0
-6.56034e-15 1.00436 0
-4.16715e-16 1.00436 0
1.28521e-14 1.00555 0
1.07702e-14 1.00555 0
-4.16715e-16 1.00436 0
-1.32607e-14 1.00436 0
1.07702e-14 1.00555 0
1.47383e-14 1.00555 0
-1.70163e-15 1.00308 0
-5.42363e-15 1.00308 0
1.19507e-14 1.00436 0
1.44867e-14 1.00436 0
-5.42363e-15 1.00308 0
-6.80334e-15 1.00308 0
1.44867e-14 1.00436 0
1.32532e-14 1.00436 0
-1.32607e-14 1.00436 0
-4.5933e-15 1.00436 0
1.47383e-14 1.00555 0
9.33059e-15 1.00555 0
-4.5933e-15 1.00436 0
-3.53103e-15 1.00436 0
9.33059e-15 1.00555 0
7.19629e-15 1.00555 0
-1.31416e-14 1.00555 0
-1.36588e-14 1.00555 0
1.54232e-14 1.00674 0
1.63016e-14 1.00674 0
-1.36588e-14 1.00555 0
-1.34626e-14 1.00555 0
1.63016e-14 1.00674 0
1.31195e-14 1.00674 0
-9.71822e-15 1.00674 0
-1.34776e-14 1.00674 0
1.29162e-14 1.00791 0
8.06274e-15 1.00791 0
-1.34776e-14 1.00674 0
-5.16429e-15 1.00674 0
8.06274e-15 1.00791 0
6.96244e-15 1.00791 0
-1.34626e-14 1.00555 0
-6.06039e-15 1.00555 0
1.31195e-14 1.00674 0
8.48784e-15 1.00674 0
-6.06039e-15 1.00555 0
-1.16421e-14 1.00555 0
8.48784e-15 1.00674 0
8.27432e-15 1.00674 0
-5.16429e-15 1.00674 0
-5.54916e-15 1.00674 0
6.96244e-15 1.00791 0
7.62516e-15 1.00791 0
-5.54916e-15 1.00674 0
-3.32065e-15 1.00674 0
7.62516e-15 1.00791 0
5.67406e-15 1.00791 0
-1.23381e-14 1.00791 0
-2.11631e-15 1.00791 0
9.76318e-15 1.00906 0
7.61725e-15 1.00906 0
-2.11631e-15 1.00791 0
-5.21108e-15 1.00791 0
7.61725e-15 1.00906 0
1.08758e-14 1.00906 0
-1.06536e-14 1.00906 0
-6.20241e-15 1.00906 0
1.24251e-14 1.0102 0
1.12335e-14 1.0102 0
-6.20241e-15 1.00906 0
-1.01657e-14 1.00906 0
1.12335e-14 1.0102 0
5.0713e-15 1.0102 0
-5.21108e-15 1.00791 0
-8.94207e-15 1.00791 0
1.08758e-14 1.00906 0
6.88431e-15 1.00906 0
-8.94207e-15 1.00791 0
-2.73639e-15 1.00791 0
6.88431e-15 1.00906 0
7.04754e-15 1.00906 0
-1.01657e-14 1.00906 0
-2.90809e-15 1.00906 0
5.0713e-15 1.0102 0
7.53501e-15 1.0102 0
-2.90809e-15 1.00906 0
-3.24244e-15 1.00906 0
7.53501e-15 1.0102 0
4.32234e-15 1.0102 0
-1.16421e-14 1.00555 0
-8.19529e-15 1.00555 0
8.27432e-15 1.00674 0
1.01112e-14 1.00674 0
-8.19529e-15 1.00555 0
-7.5287e-15 1.00555 0
1.01112e-14 1.00674 0
1.16221e-14 1.00674 0
-3.32065e-15 1.00674 0
-3.88973e-15 1.00674 0
5.67406e-15 1.00791 0
6.37287e-15 1.00791 0
-3.88973e-15 1.00674 0
-1.07345e-15 1.00674 0
6.37287e-15 1.00791 0
5.41105e-15 1.00791 0
-7.5287e-15 1.00555 0
-3.12521e-15 1.00555 0
1.16221e-14 1.00674 0
7.47428e-15 1.00674 0
-3.12521e-15 1.00555 0
-2.51113e-15 1.00555 0
7.47428e-15 1.00674 0
1.08114e-14 1.00674 0
-1.07345e-15 1.00674 0
-7.28367e-15 1.00674 0
5.41105e-15 1.00791 0
1.23825e-14 1.00791 0
-7.28367e-15 1.00674 0
-5.43302e-15 1.00674 0
1.23825e-14 1.00791 0
5.55449e-15 1.00791 0
-2.73639e-15 1.00791 0
-4.47256e-15 1.00791 0
7.04754e-15 1.00906 0
3.58004e-15 1.00906 0
-4.47256e-15 1.00791 0
-9.04722e-15 1.00791 0
3.58004e-15 1.00906 0
8.23366e-15 1.00906 0
-3.24244e-15 1.00906 0
-1.23839e-15 1.00906 0
4.32234e-15 1.0102 0
5.06128e-15 1.0102 0
-1.23839e-15 1.00906 0
-6.0636e-15 1.00906 0
5.06128e-15 1.0102 0
7.97818e-15 1.0102 0
-9.04722e-15 1.00791 0
-1.01113e-14 1.00791 0
8.23366e-15 1.00906 0
1.28881e-14 1.00906 0
-1.01113e-14 1.00791 0
-2.0679e-15 1.00791 0
1.28881e-14 1.00906 0
5.69808e-15 1.00906 0
-6.0636e-15 1.00906 0
-9.44286e-15 1.00906 0
7.97818e-15 1.0102 0
8.4833e-15 1.0102 0
-9.44286e-15 1.00906 0
-5.3064e-16 1.00906 0
8.4833e-15 1.0102 0
-9.64894e-17 1.0102 0
0 1.0102 0
-3.43719e-15 1.0102 0
0 1.01133 0
7.88439e-15 1.01133 0
-3.43719e-15 1.0102 0
-3.06968e-14 1.0102 0
7.88439e-15 1.01133 0
-2.45909e-14 1.01133 0
0 1.01133 0
-7.24504e-15 1.01133 0
0 1.01247 0
-3.79075e-15 1.01247 0
-7.24504e-15 1.01133 0
7.44298e-15 1.01133 0
-3.79075e-15 1.01247 0
2.11764e-14 1.01247 0
-3.06968e-14 1.0102 0
6.61768e-15 1.0102 0
-2.45909e-14 1.01133 0
4.94207e-16 1.01133 0
6.61768e-15 1.0102 0
1.76504e-14 1.0102 0
4.94207e-16 1.01133 0
2.0496e-14 1.01133 0
7.44298e-15 1.01133 0
-1.55292e-14 1.01133 0
2.11764e-14 1.01247 0
4.27772e-16 1.01247 0
-1.55292e-14 1.01133 0
-6.69502e-15 1.01133 0
4.27772e-16 1.01247 0
4.96558e-15 1.01247 0
0 1.01247 0
-2.30498e-15 1.01247 0
0 1.01362 0
1.02656e-16 1.01362 0
-2.30498e-15 1.01247 0
-1.56288e-14 1.01247 0
1.02656e-16 1.01362 0
1.17064e-15 1.01362 0
0 1.01362 0
9.43795e-16 1.01362 0
0 1.01479 0
5.24672e-15 1.01479 0
9.43795e-16 1.01362 0
6.1381e-15 1.01362 0
5.24672e-15 1.01479 0
6.40476e-15 1.01479 0
-1.56288e-14 1.01247 0
-3.28084e-15 1.01247 0
1.17064e-15 1.01362 0
8.49277e-15 1.01362 0
-3.28084e-15 1.01247 0
-6.50213e-15 1.01247 0
8.49277e-15 1.01362 0
3.54306e-15 1.01362 0
6.1381e-15 1.01362 0
-8.98372e-15 1.01362 0
6.40476e-15 1.01479 0
5.66552e-15 1.01479 0
-8.98372e-15 1.01362 0
-3.00998e-15 1.01362 0
5.66552e-15 1.01479 0
4.48375e-15 1.01479 0
1.76504e-14 1.0102 0
-1.223e-14 1.0102 0
2.0496e-14 1.01133 0
1.04436e-16 1.01133 0
-1.223e-14 1.0102 0
-5.74161e-15 1.0102 0
1.04436e-16 1.01133 0
4.9244e-15 1.01133 0
-6.69502e-15 1.01133 0
9.03211e-16 1.01133 0
4.96558e-15 1.01247 0
1.27537e-14 1.01247 0
9.03211e-16 1.01133 0
-4.35603e-15 1.01133 0
1.27537e-14 1.01247 0
5.53907e-15 1.01247 0
-5.74161e-15 1.0102 0
-5.24111e-15 1.0102 0
4.9244e-15 1.01133 0
8.23337e-15 1.01133 0
-5.24111e-15 1.0102 0
-9.73503e-15 1.0102 0
8.23337e-15 1.01133 0
8.9139e-15 1.01133 0
-4.35603e-15 1.01133 0
-6.9074e-15 1.01133 0
5.53907e-15 1.01247 0
6.60963e-15 1.01247 0
-6.9074e-15 1.01133 0
-1.1847e-14 1.01133 0
6.60963e-15 1.01247 0
1.05135e-14 1.01247 0
-6.50213e-15 1.01247 0
-3.77153e-15 1.01247 0
3.54306e-15 1.01362 0
5.19222e-15 1.01362 0
-3.77153e-15 1.01247 0
-7.59291e-15 1.01247 0
5.19222e-15 1.01362 0
9.8789e-15 1.01362 0
-3.00998e-15 1.01362 0
-6.23776e-15 1.01362 0
4.48375e-15 1.01479 0
5.42447e-15 1.01479 0
-6.23776e-15 1.01362 0
-5.98912e-15 1.01362 0
5.42447e-15 1.01479 0
9.1628e-15 1.01479 0
-7.59291e-15 1.01247 0
-4.93862e-15 1.01247 0
9.8789e-15 1.01362 0
1.19364e-14 1.01362 0
-4.93862e-15 1.01247 0
-5.49626e-15 1.01247 0
1.19364e-14 1.01362 0
1.0092e-14 1.01362 0
-5.98912e-15 1.01362 0
-1.04013e-14 1.01362 0
9.1628e-15 1.01479 0
1.01872e-14 1.01479 0
-1.04013e-14 1.01362 0
-9.41518e-15 1.01362 0
1.01872e-14 1.01479 0
8.39063e-15 1.01479 0
0 1.01479 0
6.35403e-15 1.01479 0
0 1.01598 0
6.72919e-15 1.01598 0
6.35403e-15 1.01479 0
-1.63e-15 1.01479 0
6.72919e-15 1.01598 0
-7.30694e-16 1.01598 0
0 1.01598 0
-8.64714e-15 1.01598 0
0 1.01714 0
-1.53536e-15 1.01714 0
-8.64714e-15 1.01598 0
3.39988e-15 1.01598 0
-1.53536e-15 1.01714 0
4.5678e-15 1.01714 0
-1.63e-15 1.01479 0
-4.16057e-15 1.01479 0
-7.30694e-16 1.01598 0
1.5966e-15 1.01598 0
-4.16057e-15 1.01479 0
-8.60568e-15 1.01479 0
1.5966e-15 1.01598 0
3.01293e-15 1.01598 0
3.39988e-15 1.01598 0
-3.28572e-16 1.01598 0
4.5678e-15 1.01714 0
2.88004e-15 1.01714 0
-3.28572e-16 1.01598 0
-3.01238e-17 1.01598 0
2.88004e-15 1.01714 0
1.32156e-15 1.01714 0
0 1.01714 0
2.91192e-15 1.01714 0
0 1.01814 0
4.51609e-15 1.01814 0
2.91192e-15 1.01714 0
-8.6259e-15 1.01714 0
4.51609e-15 1.01814 0
-2.38033e-15 1.01814 0
0 1.01814 0
-1.9074e-15 1.01814 0
0 1.0185 0
-2.1621e-15 1.0185 0
-1.9074e-15 1.01814 0
-1.68393e-15 1.01814 0
-2.1621e-15 1.0185 0
8.2893e-15 1.0185 0
-8.6259e-15 1.01714 0
-1.45481e-15 1.01714 0
-2.38033e-15 1.01814 0
7.43176e-17 1.01814 0
-1.45481e-15 1.01714 0
-1.21628e-15 1.01714 0
7.43176e-17 1.01814 0
-7.47476e-16 1.01814 0
-1.68393e-15 1.01814 0
-5.0502e-15 1.01814 0
8.2893e-15 1.0185 0
-1.65444e-15 1.0185 0
-5.0502e-15 1.01814 0
-3.74366e-15 1.01814 0
-1.65444e-15 1.0185 0
-1.15416e-15 1.0185 0
-8.60568e-15 1.01479 0
-5.84551e-15 1.01479 0
3.01293e-15 1.01598 0
9.01977e-15 1.01598 0
-5.84551e-15 1.01479 0
-6.63234e-15 1.01479 0
9.01977e-15 1.01598 0
7.75121e-15 1.01598 0
-3.01238e-17 1.01598 0
-3.85836e-15 1.01598 0
1.32156e-15 1.01714 0
-6.11916e-16 1.01714 0
-3.85836e-15 1.01598 0
-7.26494e-15 1.01598 0
-6.11916e-16 1.01714 0
4.74182e-15 1.01714 0
-6.63234e-15 1.01479 0
-5.18558e-15 1.01479 0
7.75121e-15 1.01598 0
5.63856e-15 1.01598 0
-5.18558e-15 1.01479 0
-3.81885e-15 1.01479 0
5.63856e-15 1.01598 0
4.08154e-15 1.01598 0
-7.26494e-15 1.01598 0
-7.48811e-15 1.01598 0
4.74182e-15 1.01714 0
2.98782e-15 1.01714 0
-7.48811e-15 1.01598 0
-2.12557e-15 1.01598 0
2.98782e-15 1.01714 0
2.34118e-15 1.01714 0
-1.21628e-15 1.01714 0
-7.06462e-15 1.01714 0
-7.47476e-16 1.01814 0
2.99469e-15 1.01814 0
-7.06462e-15 1.01714 0
-5.91938e-15 1.01714 0
2.99469e-15 1.01814 0
3.64193e-15 1.01814 0
-3.74366e-15 1.01814 0
-5.83371e-15 1.01814 0
-1.15416e-15 1.0185 0
3.76405e-15 1.0185 0
-5.83371e-15 1.01814 0
-5.75812e-15 1.01814 0
3.76405e-15 1.0185 0
2.81462e-15 1.0185 0
-5.91938e-15 1.01714 0
-3.11013e-15 1.01714 0
3.64193e-15 1.01814 0
1.66341e-15 1.01814 0
-3.11013e-15 1.01714 0
-4.34001e-15 1.01714 0
1.66341e-15 1.01814 0
4.43849e-15 1.01814 0
-5.75812e-15 1.01814 0
-3.38438e-15 1.01814 0
2.81462e-15 1.0185 0
2.48737e-15 1.0185 0
-3.38438e-15 1.01814 0
-2.14453e-15 1.01814 0
2.48737e-15 1.0185 0
-3.84799e-15 1.0185 0
-9.73503e-15 1.0102 0
-1.09126e-14 1.0102 0
8.9139e-15 1.01133 0
8.70953e-15 1.01133 0
-1.09126e-14 1.0102 0
-6.34686e-15 1.0102 0
8.70953e-15 1.01133 0
4.72531e-15 1.01133 0
-1.1847e-14 1.01133 0
-9.66367e-15 1.01133 0
1.05135e-14 1.01247 0
1.21292e-14 1.01247 0
-9.66367e-15 1.01133 0
-2.1435e-15 1.01133 0
1.21292e-14 1.01247 0
7.9202e-15 1.01247 0
-6.34686e-15 1.0102 0
-6.36174e-15 1.0102 0
4.72531e-15 1.01133 0
7.32051e-16 1.01133 0
-6.36174e-15 1.0102 0
-8.49766e-15 1.0102 0
7.32051e-16 1.01133 0
5.96196e-15 1.01133 0
-2.1435e-15 1.01133 0
-2.91578e-15 1.01133 0
7.9202e-15 1.01247 0
8.24909e-15 1.01247 0
-2.91578e-15 1.01133 0
-2.9713e-15 1.01133 0
8.24909e-15 1.01247 0
8.46728e-15 1.01247 0
-5.49626e-15 1.01247 0
-9.46328e-15 1.01247 0
1.0092e-14 1.01362 0
1.40342e-14 1.01362 0
-9.46328e-15 1.01247 0
-8.92792e-15 1.01247 0
1.40342e-14 1.01362 0
1.0438e-14 1.01362 0
-9.41518e-15 1.01362 0
-8.83912e-15 1.01362 0
8.39063e-15 1.01479 0
8.08275e-15 1.01479 0
-8.83912e-15 1.01362 0
-5.24914e-15 1.01362 0
8.08275e-15 1.01479 0
5.9637e-15 1.01479 0
-8.92792e-15 1.01247 0
-7.34602e-15 1.01247 0
1.0438e-14 1.01362 0
9.40203e-15 1.01362 0
-7.34602e-15 1.01247 0
-5.11558e-15 1.01247 0
9.40203e-15 1.01362 0
6.14112e-15 1.01362 0
-5.24914e-15 1.01362 0
-4.58849e-15 1.01362 0
5.9637e-15 1.01479 0
7.93505e-15 1.01479 0
-4.58849e-15 1.01362 0
-2.60712e-15 1.01362 0
7.93505e-15 1.01479 0
4.13693e-15 1.01479 0
-8.49766e-15 1.0102 0
-6.46454e-15 1.0102 0
5.96196e-15 1.01133 0
6.85312e-15 1.01133 0
-6.46454e-15 1.0102 0
-4.41498e-15 1.0102 0
6.85312e-15 1.01133 0
1.07145e-14 1.01133 0
-2.9713e-15 1.01133 0
-2.1224e-15 1.01133 0
8.46728e-15 1.01247 0
6.72481e-15 1.01247 0
-2.1224e-15 1.01133 0
-1.05491e-15 1.01133 0
6.72481e-15 1.01247 0
4.30546e-15 1.01247 0
-4.41498e-15 1.0102 0
-3.96306e-15 1.0102 0
1.07145e-14 1.01133 0
9.01848e-15 1.01133 0
-3.96306e-15 1.0102 0
6.13758e-15 1.0102 0
9.01848e-15 1.01133 0
1.15212e-15 1.01133 0
-1.05491e-15 1.01133 0
-5.77881e-15 1.01133 0
4.30546e-15 1.01247 0
8.94301e-15 1.01247 0
-5.77881e-15 1.01133 0
-4.11132e-15 1.01133 0
8.94301e-15 1.01247 0
6.0424e-15 1.01247 0
-5.11558e-15 1.01247 0
-6.14209e-15 1.01247 0
6.14112e-15 1.01362 0
6.92795e-15 1.01362 0
-6.14209e-15 1.01247 0
-3.1012e-15 1.01247 0
6.92795e-15 1.01362 0
4.2937e-15 1.01362 0
-2.60712e-15 1.01362 0
-3.07713e-15 1.01362 0
4.13693e-15 1.01479 0
4.44216e-15 1.01479 0
-3.07713e-15 1.01362 0
-1.27773e-14 1.01362 0
4.44216e-15 1.01479 0
1.14396e-14 1.01479 0
-3.1012e-15 1.01247 0
-6.8463e-15 1.01247 0
4.2937e-15 1.01362 0
4.35569e-15 1.01362 0
-6.8463e-15 1.01247 0
-6.74397e-15 1.01247 0
4.35569e-15 1.01362 0
7.19055e-15 1.01362 0
-1.27773e-14 1.01362 0
-2.37346e-15 1.01362 0
1.14396e-14 1.01479 0
2.81705e-15 1.01479 0
-2.37346e-15 1.01362 0
1.0398e-17 1.01362 0
2.81705e-15 1.01479 0
3.73198e-15 1.01479 0
-3.81885e-15 1.01479 0
-8.29836e-15 1.01479 0
4.08154e-15 1.01598 0
9.39387e-15 1.01598 0
-8.29836e-15 1.01479 0
-5.31697e-15 1.01479 0
9.39387e-15 1.01598 0
4.2339e-15 1.01598 0
-2.12557e-15 1.01598 0
-5.09034e-15 1.01598 0
2.34118e-15 1.01714 0
3.52564e-15 1.01714 0
-5.09034e-15 1.01598 0
-2.07358e-15 1.01598 0
3.52564e-15 1.01714 0
2.13691e-15 1.01714 0
-5.31697e-15 1.01479 0
-3.88035e-15 1.01479 0
4.2339e-15 1.01598 0
3.46991e-15 1.01598 0
-3.88035e-15 1.01479 0
-5.24291e-15 1.01479 0
3.46991e-15 1.01598 0