# vtk DataFile Version 3.0
#This file was generated by the deal.II library on 2018/10/12 at 2:09:40
ASCII
DATASET UNSTRUCTURED_GRID

POINTS 5120 double
0 0 0
0.392699 0 0
0 0.581907 0
0.392699 0.581907 0
0.392699 0 0
0.785398 0 0
0.392699 0.581907 0
0.785398 0.581907 0
0 0.581907 0
0.392699 0.581907 0
0 1.20979 0
0.392699 1.20979 0
0.392699 0.581907 0
0.785398 0.581907 0
0.392699 1.20979 0
0.785398 1.20979 0
0.785398 0 0
1.1781 0 0
0.785398 0.581907 0
1.1781 0.581907 0
1.1781 0 0
1.5708 0 0
1.1781 0.581907 0
1.5708 0.581907 0
0.785398 0.581907 0
1.1781 0.581907 0
0.785398 1.20979 0
1.1781 1.20979 0
1.1781 0.581907 0
1.5708 0.581907 0
1.1781 1.20979 0
1.5708 1.20979 0
0 1.20979 0
0.392699 1.20979 0
0 1.8364 0
0.392699 1.8364 0
0.392699 1.20979 0
0.785398 1.20979 0
0.392699 1.8364 0
0.785398 1.8364 0
0 1.8364 0
0.392699 1.8364 0
0 2.46467 0
0.392699 2.46467 0
0.392699 1.8364 0
0.785398 1.8364 0
0.392699 2.46467 0
0.785398 2.46467 0
0.785398 1.20979 0
1.1781 1.20979 0
0.785398 1.8364 0
1.1781 1.8364 0
1.1781 1.20979 0
1.5708 1.20979 0
1.1781 1.8364 0
1.5708 1.8364 0
0.785398 1.8364 0
1.1781 1.8364 0
0.785398 2.46467 0
1.1781 2.46467 0
1.1781 1.8364 0
1.5708 1.8364 0
1.1781 2.46467 0
1.5708 2.46467 0
1.5708 0 0
1.9635 0 0
1.5708 0.581907 0
1.9635 0.581907 0
1.9635 0 0
2.35619 0 0
1.9635 0.581907 0
2.35619 0.581907 0
1.5708 0.581907 0
1.9635 0.581907 0
1.5708 1.20979 0
1.9635 1.20979 0
1.9635 0.581907 0
2.35619 0.581907 0
1.9635 1.20979 0
2.35619 1.20979 0
2.35619 0 0
2.74889 0 0
2.35619 0.581907 0
2.74889 0.581907 0
2.74889 0 0
3.14159 0 0
2.74889 0.581907 0
3.14159 0.581907 0
2.35619 0.581907 0
2.74889 0.581907 0
2.35619 1.20979 0
2.74889 1.20979 0
2.74889 0.581907 0
3.14159 0.581907 0
2.74889 1.20979 0
3.14159 1.20979 0
1.5708 1.20979 0
1.9635 1.20979 0
1.5708 1.8364 0
1.9635 1.8364 0
1.9635 1.20979 0
2.35619 1.20979 0
1.9635 1.8364 0
2.35619 1.8364 0
1.5708 1.8364 0
1.9635 1.8364 0
1.5708 2.46467 0
1.9635 2.46467 0
1.9635 1.8364 0
2.35619 1.8364 0
1.9635 2.46467 0
2.35619 2.46467 0
2.35619 1.20979 0
2.74889 1.20979 0
2.35619 1.8364 0
2.74889 1.8364 0
2.74889 1.20979 0
3.14159 1.20979 0
2.74889 1.8364 0
3.14159 1.8364 0
2.35619 1.8364 0
2.74889 1.8364 0
2.35619 2.46467 0
2.74889 2.46467 0
2.74889 1.8364 0
3.14159 1.8364 0
2.74889 2.46467 0
3.14159 2.46467 0
0 2.46467 0
0.392699 2.46467 0
0 3.09248 0
0.392699 3.09248 0
0.392699 2.46467 0
0.785398 2.46467 0
0.392699 3.09248 0
0.785398 3.09248 0
0 3.09248 0
0.392699 3.09248 0
0 3.72034 0
0.392699 3.72034 0
0.392699 3.09248 0
0.785398 3.09248 0
0.392699 3.72034 0
0.785398 3.72034 0
0.785398 2.46467 0
1.1781 2.46467 0
0.785398 3.09248 0
1.1781 3.09248 0
1.1781 2.46467 0
1.5708 2.46467 0
1.1781 3.09248 0
1.5708 3.09248 0
0.785398 3.09248 0
1.1781 3.09248 0
0.785398 3.72034 0
1.1781 3.72034 0
1.1781 3.09248 0
1.5708 3.09248 0
1.1781 3.72034 0
1.5708 3.72034 0
0 3.72034 0
0.392699 3.72034 0
0 4.34806 0
0.392699 4.34806 0
0.392699 3.72034 0
0.785398 3.72034 0
0.392699 4.34806 0
0.785398 4.34806 0
0 4.34806 0
0.392699 4.34806 0
0 4.97568 0
0.392699 4.97568 0
0.392699 4.34806 0
0.785398 4.34806 0
0.392699 4.97568 0
0.785398 4.97568 0
0.785398 3.72034 0
1.1781 3.72034 0
0.785398 4.34806 0
1.1781 4.34806 0
1.1781 3.72034 0
1.5708 3.72034 0
1.1781 4.34806 0
1.5708 4.34806 0
0.785398 4.34806 0
1.1781 4.34806 0
0.785398 4.97568 0
1.1781 4.97568 0
1.1781 4.34806 0
1.5708 4.34806 0
1.1781 4.97568 0
1.5708 4.97568 0
1.5708 2.46467 0
1.9635 2.46467 0
1.5708 3.09248 0
1.9635 3.09248 0
1.9635 2.46467 0
2.35619 2.46467 0
1.9635 3.09248 0
2.35619 3.09248 0
1.5708 3.09248 0
1.9635 3.09248 0
1.5708 3.72034 0
1.9635 3.72034 0
1.9635 3.09248 0
2.35619 3.09248 0
1.9635 3.72034 0
2.35619 3.72034 0
2.35619 2.46467 0
2.74889 2.46467 0
2.35619 3.09248 0
2.74889 3.09248 0
2.74889 2.46467 0
3.14159 2.46467 0
2.74889 3.09248 0
3.14159 3.09248 0
2.35619 3.09248 0
2.74889 3.09248 0
2.35619 3.72034 0
2.74889 3.72034 0
2.74889 3.09248 0
3.14159 3.09248 0
2.74889 3.72034 0
3.14159 3.72034 0
1.5708 3.72034 0
1.9635 3.72034 0
1.5708 4.34806 0
1.9635 4.34806 0
1.9635 3.72034 0
2.35619 3.72034 0
1.9635 4.34806 0
2.35619 4.34806 0
1.5708 4.34806 0
1.9635 4.34806 0
1.5708 4.97568 0
1.9635 4.97568 0
1.9635 4.34806 0
2.35619 4.34806 0
1.9635 4.97568 0
2.35619 4.97568 0
2.35619 3.72034 0
2.74889 3.72034 0
2.35619 4.34806 0
2.74889 4.34806 0
2.74889 3.72034 0
3.14159 3.72034 0
2.74889 4.34806 0
3.14159 4.34806 0
2.35619 4.34806 0
2.74889 4.34806 0
2.35619 4.97568 0
2.74889 4.97568 0
2.74889 4.34806 0
3.14159 4.34806 0
2.74889 4.97568 0
3.14159 4.97568 0
3.14159 0 0
3.53429 0 0
3.14159 0.581907 0
3.53429 0.581907 0
3.53429 0 0
3.92699 0 0
3.53429 0.581907 0
3.92699 0.581907 0
3.14159 0.581907 0
3.53429 0.581907 0
3.14159 1.20979 0
3.53429 1.20979 0
3.53429 0.581907 0
3.92699 0.581907 0
3.53429 1.20979 0
3.92699 1.20979 0
3.92699 0 0
4.31969 0 0
3.92699 0.581907 0
4.31969 0.581907 0
4.31969 0 0
4.71239 0 0
4.31969 0.581907 0
4.71239 0.581907 0
3.92699 0.581907 0
4.31969 0.581907 0
3.92699 1.20979 0
4.31969 1.20979 0
4.31969 0.581907 0
4.71239 0.581907 0
4.31969 1.20979 0
4.71239 1.20979 0
3.14159 1.20979 0
3.53429 1.20979 0
3.14159 1.8364 0
3.53429 1.8364 0
3.53429 1.20979 0
3.92699 1.20979 0
3.53429 1.8364 0
3.92699 1.8364 0
3.14159 1.8364 0
3.53429 1.8364 0
3.14159 2.46467 0
3.53429 2.46467 0
3.53429 1.8364 0
3.92699 1.8364 0
3.53429 2.46467 0
3.92699 2.46467 0
3.92699 1.20979 0
4.31969 1.20979 0
3.92699 1.8364 0
4.31969 1.8364 0
4.31969 1.20979 0
4.71239 1.20979 0
4.31969 1.8364 0
4.71239 1.8364 0
3.92699 1.8364 0
4.31969 1.8364 0
3.92699 2.46467 0
4.31969 2.46467 0
4.31969 1.8364 0
4.71239 1.8364 0
4.31969 2.46467 0
4.71239 2.46467 0
4.71239 0 0
5.10509 0 0
4.71239 0.581907 0
5.10509 0.581907 0
5.10509 0 0
5.49779 0 0
5.10509 0.581907 0
5.49779 0.581907 0
4.71239 0.581907 0
5.10509 0.581907 0
4.71239 1.20979 0
5.10509 1.20979 0
5.10509 0.581907 0
5.49779 0.581907 0
5.10509 1.20979 0
5.49779 1.20979 0
5.49779 0 0
5.89049 0 0
5.49779 0.581907 0
5.89049 0.581907 0
5.89049 0 0
6.28319 0 0
5.89049 0.581907 0
6.28319 0.581907 0
5.49779 0.581907 0
5.89049 0.581907 0
5.49779 1.20979 0
5.89049 1.20979 0
5.89049 0.581907 0
6.28319 0.581907 0
5.89049 1.20979 0
6.28319 1.20979 0
4.71239 1.20979 0
5.10509 1.20979 0
4.71239 1.8364 0
5.10509 1.8364 0
5.10509 1.20979 0
5.49779 1.20979 0
5.10509 1.8364 0
5.49779 1.8364 0
4.71239 1.8364 0
5.10509 1.8364 0
4.71239 2.46467 0
5.10509 2.46467 0
5.10509 1.8364 0
5.49779 1.8364 0
5.10509 2.46467 0
5.49779 2.46467 0
5.49779 1.20979 0
5.89049 1.20979 0
5.49779 1.8364 0
5.89049 1.8364 0
5.89049 1.20979 0
6.28319 1.20979 0
5.89049 1.8364 0
6.28319 1.8364 0
5.49779 1.8364 0
5.89049 1.8364 0
5.49779 2.46467 0
5.89049 2.46467 0
5.89049 1.8364 0
6.28319 1.8364 0
5.89049 2.46467 0
6.28319 2.46467 0
3.14159 2.46467 0
3.53429 2.46467 0
3.14159 3.09248 0
3.53429 3.09248 0
3.53429 2.46467 0
3.92699 2.46467 0
3.53429 3.09248 0
3.92699 3.09248 0
3.14159 3.09248 0
3.53429 3.09248 0
3.14159 3.72034 0
3.53429 3.72034 0
3.53429 3.09248 0
3.92699 3.09248 0
3.53429 3.72034 0
3.92699 3.72034 0
3.92699 2.46467 0
4.31969 2.46467 0
3.92699 3.09248 0
4.31969 3.09248 0
4.31969 2.46467 0
4.71239 2.46467 0
4.31969 3.09248 0
4.71239 3.09248 0
3.92699 3.09248 0
4.31969 3.09248 0
3.92699 3.72034 0
4.31969 3.72034 0
4.31969 3.09248 0
4.71239 3.09248 0
4.31969 3.72034 0
4.71239 3.72034 0
3.14159 3.72034 0
3.53429 3.72034 0
3.14159 4.34806 0
3.53429 4.34806 0
3.53429 3.72034 0
3.92699 3.72034 0
3.53429 4.34806 0
3.92699 4.34806 0
3.14159 4.34806 0
3.53429 4.34806 0
3.14159 4.97568 0
3.53429 4.97568 0
3.53429 4.34806 0
3.92699 4.34806 0
3.53429 4.97568 0
3.92699 4.97568 0
3.92699 3.72034 0
4.31969 3.72034 0
3.92699 4.34806 0
4.31969 4.34806 0
4.31969 3.72034 0
4.71239 3.72034 0
4.31969 4.34806 0
4.71239 4.34806 0
3.92699 4.34806 0
4.31969 4.34806 0
3.92699 4.97568 0
4.31969 4.97568 0
4.31969 4.34806 0
4.71239 4.34806 0
4.31969 4.97568 0
4.71239 4.97568 0
4.71239 2.46467 0
5.10509 2.46467 0
4.71239 3.09248 0
5.10509 3.09248 0
5.10509 2.46467 0
5.49779 2.46467 0
5.10509 3.09248 0
5.49779 3.09248 0
4.71239 3.09248 0
5.10509 3.09248 0
4.71239 3.72034 0
5.10509 3.72034 0
5.10509 3.09248 0
5.49779 3.09248 0
5.10509 3.72034 0
5.49779 3.72034 0
5.49779 2.46467 0
5.89049 2.46467 0
5.49779 3.09248 0
5.89049 3.09248 0
5.89049 2.46467 0
6.28319 2.46467 0
5.89049 3.09248 0
6.28319 3.09248 0
5.49779 3.09248 0
5.89049 3.09248 0
5.49779 3.72034 0
5.89049 3.72034 0
5.89049 3.09248 0
6.28319 3.09248 0
5.89049 3.72034 0
6.28319 3.72034 0
4.71239 3.72034 0
5.10509 3.72034 0
4.71239 4.34806 0
5.10509 4.34806 0
5.10509 3.72034 0
5.49779 3.72034 0
5.10509 4.34806 0
5.49779 4.34806 0
4.71239 4.34806 0
5.10509 4.34806 0
4.71239 4.97568 0
5.10509 4.97568 0
5.10509 4.34806 0
5.49779 4.34806 0
5.10509 4.97568 0
5.49779 4.97568 0
5.49779 3.72034 0
5.89049 3.72034 0
5.49779 4.34806 0
5.89049 4.34806 0
5.89049 3.72034 0
6.28319 3.72034 0
5.89049 4.34806 0
6.28319 4.34806 0
5.49779 4.34806 0
5.89049 4.34806 0
5.49779 4.97568 0
5.89049 4.97568 0
5.89049 4.34806 0
6.28319 4.34806 0
5.89049 4.97568 0
6.28319 4.97568 0
0 4.97568 0
0.392699 4.97568 0
0 5.60317 0
0.392699 5.60317 0
0.392699 4.97568 0
0.785398 4.97568 0
0.392699 5.60317 0
0.785398 5.60317 0
0 5.60317 0
0.392699 5.60317 0
0 6.23053 0
0.392699 6.23053 0
0.392699 5.60317 0
0.785398 5.60317 0
0.392699 6.23053 0
0.785398 6.23053 0
0.785398 4.97568 0
1.1781 4.97568 0
0.785398 5.60317 0
1.1781 5.60317 0
1.1781 4.97568 0
1.5708 4.97568 0
1.1781 5.60317 0
1.5708 5.60317 0
0.785398 5.60317 0
1.1781 5.60317 0
0.785398 6.23053 0
1.1781 6.23053 0
1.1781 5.60317 0
1.5708 5.60317 0
1.1781 6.23053 0
1.5708 6.23053 0
0 6.23053 0
0.392699 6.23053 0
0 6.8578 0
0.392699 6.8578 0
0.392699 6.23053 0
0.785398 6.23053 0
0.392699 6.8578 0
0.785398 6.8578 0
0 6.8578 0
0.392699 6.8578 0
0 7.48508 0
0.392699 7.48508 0
0.392699 6.8578 0
0.785398 6.8578 0
0.392699 7.48508 0
0.785398 7.48508 0
0.785398 6.23053 0
1.1781 6.23053 0
0.785398 6.8578 0
1.1781 6.8578 0
1.1781 6.23053 0
1.5708 6.23053 0
1.1781 6.8578 0
[...]
POINT_DATA 5120
VECTORS uf double
0 1 0
-2.47968e-13 1 0
0 1.00266 0
-2.48293e-13 1.00266 0
-2.47968e-13 1 0
1.78969e-14 1 0
-2.48293e-13 1.00266 0
2.76376e-14 1.00266 0
0 1.00266 0
2.38654e-13 1.00266 0
0 1.00404 0
2.1852e-13 1.00404 0
2.38654e-13 1.00266 0
-6.28295e-14 1.00266 0
2.1852e-13 1.00404 0
-6.97162e-14 1.00404 0
1.78969e-14 1 0
3.70482e-13 1 0
2.76376e-14 1.00266 0
3.48629e-13 1.00266 0
3.70482e-13 1 0
1.17086e-13 1 0
3.48629e-13 1.00266 0
1.15621e-13 1.00266 0
-6.28295e-14 1.00266 0
-3.43953e-13 1.00266 0
-6.97162e-14 1.00404 0
-3.34121e-13 1.00404 0
-3.43953e-13 1.00266 0
-1.12353e-13 1.00266 0
-3.34121e-13 1.00404 0
-1.00305e-13 1.00404 0
0 1.00404 0
-3.56871e-14 1.00404 0
0 1.00571 0
-4.97527e-14 1.00571 0
-3.56871e-14 1.00404 0
1.56308e-13 1.00404 0
-4.97527e-14 1.00571 0
1.56069e-13 1.00571 0
0 1.00571 0
5.77283e-14 1.00571 0
0 1.00726 0
4.74445e-14 1.00726 0
5.77283e-14 1.00571 0
-1.08208e-13 1.00571 0
4.74445e-14 1.00726 0
-8.9557e-14 1.00726 0
1.56308e-13 1.00404 0
-1.36558e-14 1.00404 0
1.56069e-13 1.00571 0
-8.85357e-15 1.00571 0
-1.36558e-14 1.00404 0
-1.81022e-14 1.00404 0
-8.85357e-15 1.00571 0
1.11989e-14 1.00571 0
-1.08208e-13 1.00571 0
9.86256e-14 1.00571 0
-8.9557e-14 1.00726 0
8.03467e-14 1.00726 0
9.86256e-14 1.00571 0
-6.69997e-14 1.00571 0
8.03467e-14 1.00726 0
-5.89096e-14 1.00726 0
1.17086e-13 1 0
-2.53644e-14 1 0
1.15621e-13 1.00266 0
-1.79026e-14 1.00266 0
-2.53644e-14 1 0
-7.27304e-15 1 0
-1.79026e-14 1.00266 0
4.55442e-15 1.00266 0
-1.12353e-13 1.00266 0
2.17747e-14 1.00266 0
-1.00305e-13 1.00404 0
1.85712e-14 1.00404 0
2.17747e-14 1.00266 0
-1.94169e-16 1.00266 0
1.85712e-14 1.00404 0
4.3736e-15 1.00404 0
-7.27304e-15 1 0
8.70673e-16 1 0
4.55442e-15 1.00266 0
7.58982e-16 1.00266 0
8.70673e-16 1 0
-8.11378e-16 1 0
7.58982e-16 1.00266 0
1.73369e-15 1.00266 0
-1.94169e-16 1.00266 0
-2.95252e-15 1.00266 0
4.3736e-15 1.00404 0
4.3083e-15 1.00404 0
-2.95252e-15 1.00266 0
-3.58284e-15 1.00266 0
4.3083e-15 1.00404 0
3.9669e-15 1.00404 0
-1.81022e-14 1.00404 0
1.20825e-13 1.00404 0
1.11989e-14 1.00571 0
1.22215e-13 1.00571 0
1.20825e-13 1.00404 0
1.7382e-15 1.00404 0
1.22215e-13 1.00571 0
2.89773e-15 1.00571 0
-6.69997e-14 1.00571 0
-1.0977e-13 1.00571 0
-5.89096e-14 1.00726 0
-1.08405e-13 1.00726 0
-1.0977e-13 1.00571 0
-7.40603e-15 1.00571 0
-1.08405e-13 1.00726 0
-3.68552e-16 1.00726 0
1.7382e-15 1.00404 0
-5.26953e-15 1.00404 0
2.89773e-15 1.00571 0
4.91724e-15 1.00571 0
-5.26953e-15 1.00404 0
9.55825e-16 1.00404 0
4.91724e-15 1.00571 0
6.31534e-15 1.00571 0
-7.40603e-15 1.00571 0
-3.39185e-15 1.00571 0
-3.68552e-16 1.00726 0
-1.1956e-15 1.00726 0
-3.39185e-15 1.00571 0
-4.7855e-15 1.00571 0
-1.1956e-15 1.00726 0
-4.60262e-15 1.00726 0
0 1.00726 0
-1.18841e-13 1.00726 0
0 1.0088 0
-1.20412e-13 1.0088 0
-1.18841e-13 1.00726 0
6.58723e-15 1.00726 0
-1.20412e-13 1.0088 0
1.66234e-14 1.0088 0
0 1.0088 0
1.3368e-13 1.0088 0
0 1.0103 0
1.3317e-13 1.0103 0
1.3368e-13 1.0088 0
4.69333e-14 1.0088 0
1.3317e-13 1.0103 0
5.11177e-14 1.0103 0
6.58723e-15 1.00726 0
-1.0267e-13 1.00726 0
1.66234e-14 1.0088 0
-9.46838e-14 1.0088 0
-1.0267e-13 1.00726 0
7.3039e-14 1.00726 0
-9.46838e-14 1.0088 0
6.40982e-14 1.0088 0
4.69333e-14 1.0088 0
9.15555e-14 1.0088 0
5.11177e-14 1.0103 0
9.78281e-14 1.0103 0
9.15555e-14 1.0088 0
-6.70361e-14 1.0088 0
9.78281e-14 1.0103 0
-6.34723e-14 1.0103 0
0 1.0103 0
9.09267e-16 1.0103 0
0 1.01178 0
-3.48595e-15 1.01178 0
9.09267e-16 1.0103 0
-2.35768e-13 1.0103 0
-3.48595e-15 1.01178 0
-2.22507e-13 1.01178 0
0 1.01178 0
1.93441e-14 1.01178 0
0 1.01323 0
1.48639e-14 1.01323 0
1.93441e-14 1.01178 0
2.32921e-13 1.01178 0
1.48639e-14 1.01323 0
2.26121e-13 1.01323 0
-2.35768e-13 1.0103 0
-9.04628e-14 1.0103 0
-2.22507e-13 1.01178 0
-7.5857e-14 1.01178 0
-9.04628e-14 1.0103 0
1.51574e-13 1.0103 0
-7.5857e-14 1.01178 0
1.39246e-13 1.01178 0
2.32921e-13 1.01178 0
3.81598e-14 1.01178 0
2.26121e-13 1.01323 0
3.90247e-14 1.01323 0
3.81598e-14 1.01178 0
-1.51871e-13 1.01178 0
3.90247e-14 1.01323 0
-1.43427e-13 1.01323 0
7.3039e-14 1.00726 0
7.77652e-14 1.00726 0
6.40982e-14 1.0088 0
8.14968e-14 1.0088 0
7.77652e-14 1.00726 0
2.17633e-15 1.00726 0
8.14968e-14 1.0088 0
5.35769e-15 1.0088 0
-6.70361e-14 1.0088 0
-1.00426e-13 1.0088 0
-6.34723e-14 1.0103 0
-9.69813e-14 1.0103 0
-1.00426e-13 1.0088 0
-5.2541e-14 1.0088 0
-9.69813e-14 1.0103 0
-4.70507e-14 1.0103 0
2.17633e-15 1.00726 0
-4.9372e-16 1.00726 0
5.35769e-15 1.0088 0
4.61916e-15 1.0088 0
-4.9372e-16 1.00726 0
-3.35406e-15 1.00726 0
4.61916e-15 1.0088 0
8.29093e-15 1.0088 0
-5.2541e-14 1.0088 0
-4.37272e-15 1.0088 0
-4.70507e-14 1.0103 0
3.97724e-15 1.0103 0
-4.37272e-15 1.0088 0
6.72039e-14 1.0088 0
3.97724e-15 1.0103 0
6.49567e-14 1.0103 0
1.51574e-13 1.0103 0
-8.6054e-15 1.0103 0
1.39246e-13 1.01178 0
1.05061e-15 1.01178 0
-8.6054e-15 1.0103 0
4.58485e-14 1.0103 0
1.05061e-15 1.01178 0
5.08286e-14 1.01178 0
-1.51871e-13 1.01178 0
-4.60992e-14 1.01178 0
-1.43427e-13 1.01323 0
-3.73511e-14 1.01323 0
-4.60992e-14 1.01178 0
-9.86682e-15 1.01178 0
-3.73511e-14 1.01323 0
-4.45094e-15 1.01323 0
4.58485e-14 1.0103 0
-1.02449e-14 1.0103 0
5.08286e-14 1.01178 0
-4.6944e-15 1.01178 0
-1.02449e-14 1.0103 0
-7.18981e-14 1.0103 0
-4.6944e-15 1.01178 0
-5.96243e-14 1.01178 0
-9.86682e-15 1.01178 0
1.64214e-14 1.01178 0
-4.45094e-15 1.01323 0
1.99344e-14 1.01323 0
1.64214e-14 1.01178 0
-8.71762e-15 1.01178 0
1.99344e-14 1.01323 0
-4.53626e-15 1.01323 0
-8.11378e-16 1 0
-5.85084e-15 1 0
1.73369e-15 1.00266 0
1.24054e-14 1.00266 0
-5.85084e-15 1 0
5.25307e-15 1 0
1.24054e-14 1.00266 0
7.07964e-15 1.00266 0
-3.58284e-15 1.00266 0
2.09924e-15 1.00266 0
3.9669e-15 1.00404 0
3.11989e-15 1.00404 0
2.09924e-15 1.00266 0
-9.78672e-15 1.00266 0
3.11989e-15 1.00404 0
4.09603e-15 1.00404 0
5.25307e-15 1 0
1.30124e-15 1 0
7.07964e-15 1.00266 0
2.78383e-15 1.00266 0
1.30124e-15 1 0
-6.71837e-15 1 0
2.78383e-15 1.00266 0
1.25647e-14 1.00266 0
-9.78672e-15 1.00266 0
-7.22141e-15 1.00266 0
4.09603e-15 1.00404 0
9.66646e-15 1.00404 0
-7.22141e-15 1.00266 0
-7.18515e-15 1.00266 0
9.66646e-15 1.00404 0
7.93042e-15 1.00404 0
9.55825e-16 1.00404 0
-2.4989e-15 1.00404 0
6.31534e-15 1.00571 0
4.33504e-15 1.00571 0
-2.4989e-15 1.00404 0
-7.24693e-15 1.00404 0
4.33504e-15 1.00571 0
1.40668e-14 1.00571 0
-4.7855e-15 1.00571 0
1.3193e-15 1.00571 0
-4.60262e-15 1.00726 0
-1.43736e-15 1.00726 0
1.3193e-15 1.00571 0
-8.34761e-17 1.00571 0
-1.43736e-15 1.00726 0
8.36494e-15 1.00726 0
-7.24693e-15 1.00404 0
8.32799e-15 1.00404 0
1.40668e-14 1.00571 0
-2.03052e-15 1.00571 0
8.32799e-15 1.00404 0
1.56565e-15 1.00404 0
-2.03052e-15 1.00571 0
9.5842e-15 1.00571 0
-8.34761e-17 1.00571 0
-1.13527e-14 1.00571 0
8.36494e-15 1.00726 0
3.39949e-15 1.00726 0
-1.13527e-14 1.00571 0
6.82409e-15 1.00571 0
3.39949e-15 1.00726 0
2.38471e-15 1.00726 0
-6.71837e-15 1 0
-3.86308e-15 1 0
1.25647e-14 1.00266 0
1.16574e-14 1.00266 0
-3.86308e-15 1 0
-1.16871e-17 1 0
1.16574e-14 1.00266 0
8.96585e-15 1.00266 0
-7.18515e-15 1.00266 0
-7.19622e-16 1.00266 0
7.93042e-15 1.00404 0
-1.80136e-15 1.00404 0
-7.19622e-16 1.00266 0
-1.12171e-14 1.00266 0
-1.80136e-15 1.00404 0
1.92669e-14 1.00404 0
-1.16871e-17 1 0
4.33681e-15 1 0
8.96585e-15 1.00266 0
4.04771e-15 1.00266 0
4.33681e-15 1 0
2.49067e-15 1 0
4.04771e-15 1.00266 0
1.024e-14 1.00266 0
-1.12171e-14 1.00266 0
6.32558e-15 1.00266 0
1.92669e-14 1.00404 0
3.48316e-15 1.00404 0
6.32558e-15 1.00266 0
-8.26289e-15 1.00266 0
3.48316e-15 1.00404 0
5.2172e-15 1.00404 0
1.56565e-15 1.00404 0
-5.85512e-15 1.00404 0
9.5842e-15 1.00571 0
1.13884e-14 1.00571 0
-5.85512e-15 1.00404 0
-2.1017e-16 1.00404 0
1.13884e-14 1.00571 0
4.46011e-15 1.00571 0
6.82409e-15 1.00571 0
-1.91518e-15 1.00571 0
2.38471e-15 1.00726 0
1.17879e-14 1.00726 0
-1.91518e-15 1.00571 0
7.90209e-16 1.00571 0
1.17879e-14 1.00726 0
1.33963e-15 1.00726 0
-2.1017e-16 1.00404 0
-8.73088e-15 1.00404 0
4.46011e-15 1.00571 0
1.19419e-14 1.00571 0
-8.73088e-15 1.00404 0
3.35092e-16 1.00404 0
1.19419e-14 1.00571 0
6.0838e-15 1.00571 0
7.90209e-16 1.00571 0
-7.08952e-16 1.00571 0
1.33963e-15 1.00726 0
3.50839e-15 1.00726 0
-7.08952e-16 1.00571 0
-1.09877e-14 1.00571 0
3.50839e-15 1.00726 0
6.12194e-15 1.00726 0
-3.35406e-15 1.00726 0
-2.53248e-15 1.00726 0
8.29093e-15 1.0088 0
6.8832e-15 1.0088 0
-2.53248e-15 1.00726 0
-1.25413e-14 1.00726 0
6.8832e-15 1.0088 0
-2.97979e-15 1.0088 0
6.72039e-14 1.0088 0
-2.35004e-14 1.0088 0
6.49567e-14 1.0103 0
-8.51075e-15 1.0103 0
-2.35004e-14 1.0088 0
3.08613e-16 1.0088 0
-8.51075e-15 1.0103 0
-1.27811e-16 1.0103 0
-1.25413e-14 1.00726 0
9.51834e-15 1.00726 0
-2.97979e-15 1.0088 0
-3.4971e-16 1.0088 0
9.51834e-15 1.00726 0
-5.49807e-15 1.00726 0
-3.4971e-16 1.0088 0
1.23317e-14 1.0088 0
3.08613e-16 1.0088 0
2.54109e-15 1.0088 0
-1.27811e-16 1.0103 0
7.43983e-16 1.0103 0
2.54109e-15 1.0088 0
-4.79929e-15 1.0088 0
7.43983e-16 1.0103 0
4.143e-15 1.0103 0
-7.18981e-14 1.0103 0
1.66417e-14 1.0103 0
-5.96243e-14 1.01178 0
2.46475e-14 1.01178 0
1.66417e-14 1.0103 0
-6.49925e-15 1.0103 0
2.46475e-14 1.01178 0
-1.73284e-15 1.01178 0
-8.71762e-15 1.01178 0
-1.98057e-14 1.01178 0
-4.53626e-15 1.01323 0
-7.05994e-15 1.01323 0
-1.98057e-14 1.01178 0
3.17573e-14 1.01178 0
-7.05994e-15 1.01323 0
3.48572e-14 1.01323 0
-6.49925e-15 1.0103 0
-4.6528e-15 1.0103 0
-1.73284e-15 1.01178 0
7.01993e-15 1.01178 0
-4.6528e-15 1.0103 0
-6.35827e-15 1.0103 0
7.01993e-15 1.01178 0
3.29177e-15 1.01178 0
3.17573e-14 1.01178 0
4.13678e-15 1.01178 0
3.48572e-14 1.01323 0
-7.44169e-16 1.01323 0
4.13678e-15 1.01178 0
-4.79339e-15 1.01178 0
-7.44169e-16 1.01323 0
3.12191e-15 1.01323 0
-5.49807e-15 1.00726 0
-6.77339e-15 1.00726 0
1.23317e-14 1.0088 0
8.86165e-15 1.0088 0
-6.77339e-15 1.00726 0
1.47176e-15 1.00726 0
8.86165e-15 1.0088 0
5.67094e-16 1.0088 0
-4.79929e-15 1.0088 0
-6.66598e-15 1.0088 0
4.143e-15 1.0103 0
5.64441e-15 1.0103 0
-6.66598e-15 1.0088 0
5.3746e-15 1.0088 0
5.64441e-15 1.0103 0
-4.6922e-15 1.0103 0
1.47176e-15 1.00726 0
6.96694e-16 1.00726 0
5.67094e-16 1.0088 0
8.08129e-15 1.0088 0
6.96694e-16 1.00726 0
6.76978e-15 1.00726 0
8.08129e-15 1.0088 0
4.52485e-15 1.0088 0
5.3746e-15 1.0088 0
-9.56908e-15 1.0088 0
-4.6922e-15 1.0103 0
1.05404e-14 1.0103 0
-9.56908e-15 1.0088 0
-7.03575e-15 1.0088 0
1.05404e-14 1.0103 0
6.34284e-15 1.0103 0
-6.35827e-15 1.0103 0
-2.97226e-15 1.0103 0
3.29177e-15 1.01178 0
2.83228e-15 1.01178 0
-2.97226e-15 1.0103 0
-6.32785e-15 1.0103 0
2.83228e-15 1.01178 0
6.51366e-15 1.01178 0
-4.79339e-15 1.01178 0
-2.75881e-15 1.01178 0
3.12191e-15 1.01323 0
1.1858e-15 1.01323 0
-2.75881e-15 1.01178 0
-1.80594e-16 1.01178 0
1.1858e-15 1.01323 0
3.96857e-15 1.01323 0
-6.32785e-15 1.0103 0
3.52847e-16 1.0103 0
6.51366e-15 1.01178 0
4.74463e-15 1.01178 0
3.52847e-16 1.0103 0
1.21378e-15 1.0103 0
4.74463e-15 1.01178 0
6.02877e-15 1.01178 0
-1.80594e-16 1.01178 0
-4.09458e-15 1.01178 0
3.96857e-15 1.01323 0
1.72349e-15 1.01323 0
-4.09458e-15 1.01178 0
3.60113e-15 1.01178 0
1.72349e-15 1.01323 0
-5.36046e-16 1.01323 0
0 1.01323 0
-9.32245e-14 1.01323 0
0 1.01467 0
-8.5846e-14 1.01467 0
-9.32245e-14 1.01323 0
-1.52828e-13 1.01323 0
-8.5846e-14 1.01467 0
-1.44667e-13 1.01467 0
0 1.01467 0
1.0829e-13 1.01467 0
0 1.01609 0
1.01452e-13 1.01609 0
1.0829e-13 1.01467 0
1.61351e-13 1.01467 0
1.01452e-13 1.01609 0
1.63237e-13 1.01609 0
-1.52828e-13 1.01323 0
5.96228e-14 1.01323 0
-1.44667e-13 1.01467 0
6.01625e-14 1.01467 0
5.96228e-14 1.01323 0
6.59317e-14 1.01323 0
6.01625e-14 1.01467 0
6.60282e-14 1.01467 0
1.61351e-13 1.01467 0
-1.78009e-13 1.01467 0
1.63237e-13 1.01609 0
-1.69501e-13 1.01609 0
-1.78009e-13 1.01467 0
-2.11187e-14 1.01467 0
-1.69501e-13 1.01609 0
-1.86074e-14 1.01609 0
0 1.01609 0
-1.00848e-13 1.01609 0
0 1.01752 0
-1.01643e-13 1.01752 0
-1.00848e-13 1.01609 0
-1.18802e-13 1.01609 0
-1.01643e-13 1.01752 0
-1.14797e-13 1.01752 0
0 1.01752 0
6.54363e-14 1.01752 0
0 1.01896 0
6.42206e-14 1.01896 0
6.54363e-14 1.01752 0
4.50657e-14 1.01752 0
6.42206e-14 1.01896 0
4.89712e-14 1.01896 0
-1.18802e-13 1.01609 0
1.3388e-13 1.01609 0
-1.14797e-13 1.01752 0
1.34036e-13 1.01752 0
1.3388e-13 1.01609 0
4.1847e-14 1.01609 0
1.34036e-13 1.01752 0
5.00891e-14 1.01752 0
4.50657e-14 1.01752 0
-8.28018e-14 1.01752 0
4.89712e-14 1.01896 0
-7.86389e-14 1.01896 0
-8.28018e-14 1.01752 0
-1.69022e-14 1.01752 0
-7.86389e-14 1.01896 0
-2.0552e-14 1.01896 0
6.59317e-14 1.01323 0
9.25724e-14 1.01323 0
6.60282e-14 1.01467 0
9.15855e-14 1.01467 0
9.25724e-14 1.01323 0
1.98792e-14 1.01323 0
9.15855e-14 1.01467 0
2.1358e-14 1.01467 0
-2.11187e-14 1.01467 0
-2.50829e-14 1.01467 0
-1.86074e-14 1.01609 0
-2.48439e-14 1.01609 0
-2.50829e-14 1.01467 0
-1.87926e-14 1.01467 0
-2.48439e-14 1.01609 0
-1.51612e-14 1.01609 0
1.98792e-14 1.01323 0
-1.49367e-14 1.01323 0
2.1358e-14 1.01467 0
-6.75549e-15 1.01467 0
-1.49367e-14 1.01323 0
9.88718e-15 1.01323 0
-6.75549e-15 1.01467 0
7.50983e-15 1.01467 0
-1.87926e-14 1.01467 0
-3.4241e-15 1.01467 0
-1.51612e-14 1.01609 0
8.81352e-15 1.01609 0
-3.4241e-15 1.01467 0
-6.33236e-15 1.01467 0
8.81352e-15 1.01609 0
-2.15791e-15 1.01609 0
4.1847e-14 1.01609 0
4.86948e-15 1.01609 0
5.00891e-14 1.01752 0
1.14425e-15 1.01752 0
4.86948e-15 1.01609 0
3.14179e-15 1.01609 0
1.14425e-15 1.01752 0
5.83985e-16 1.01752 0
-1.69022e-14 1.01752 0
-1.94822e-14 1.01752 0
-2.0552e-14 1.01896 0
-1.81963e-14 1.01896 0
-1.94822e-14 1.01752 0
-3.27524e-15 1.01752 0
-1.81963e-14 1.01896 0
1.84026e-15 1.01896 0
3.14179e-15 1.01609 0
-6.70288e-15 1.01609 0
5.83985e-16 1.01752 0
5.63117e-15 1.01752 0
-6.70288e-15 1.01609 0
-7.69339e-15 1.01609 0
5.63117e-15 1.01752 0
4.8059e-15 1.01752 0
-3.27524e-15 1.01752 0
-3.17534e-15 1.01752 0
1.84026e-15 1.01896 0
4.85005e-15 1.01896 0
-3.17534e-15 1.01752 0
-2.71972e-15 1.01752 0
4.85005e-15 1.01896 0
4.94439e-15 1.01896 0
0 1.01896 0
1.32669e-14 1.01896 0
0 1.02041 0
1.32532e-14 1.02041 0
1.32669e-14 1.01896 0
-4.11468e-14 1.01896 0
1.32532e-14 1.02041 0
-3.61473e-14 1.02041 0
0 1.02041 0
-3.48243e-14 1.02041 0
0 1.02182 0
-3.74453e-14 1.02182 0
-3.48243e-14 1.02041 0
3.7261e-14 1.02041 0
-3.74453e-14 1.02182 0
3.77617e-14 1.02182 0
-4.11468e-14 1.01896 0
1.82358e-14 1.01896 0
-3.61473e-14 1.02041 0
2.47222e-14 1.02041 0
1.82358e-14 1.01896 0
-1.82002e-14 1.01896 0
2.47222e-14 1.02041 0
-1.32199e-14 1.02041 0
3.7261e-14 1.02041 0
-2.11159e-14 1.02041 0
3.77617e-14 1.02182 0
-1.91194e-14 1.02182 0
-2.11159e-14 1.02041 0
-1.15566e-14 1.02041 0
-1.91194e-14 1.02182 0
-8.4754e-15 1.02182 0
0 1.02182 0
9.9839e-15 1.02182 0
0 1.02305 0
3.83092e-15 1.02305 0
9.9839e-15 1.02182 0
-3.56583e-14 1.02182 0
3.83092e-15 1.02305 0
-3.48975e-14 1.02305 0
0 1.02305 0
1.12316e-14 1.02305 0
0 1.02363 0
8.48879e-15 1.02363 0
1.12316e-14 1.02305 0
1.04043e-16 1.02305 0
8.48879e-15 1.02363 0
7.70368e-15 1.02363 0
-3.56583e-14 1.02182 0
1.95397e-14 1.02182 0
-3.48975e-14 1.02305 0
1.94623e-14 1.02305 0
1.95397e-14 1.02182 0
8.40457e-15 1.02182 0
1.94623e-14 1.02305 0
8.01913e-15 1.02305 0
1.04043e-16 1.02305 0
-1.02043e-14 1.02305 0
7.70368e-15 1.02363 0
-1.89833e-14 1.02363 0
-1.02043e-14 1.02305 0
1.67968e-15 1.02305 0
-1.89833e-14 1.02363 0
2.05035e-14 1.02363 0
-1.82002e-14 1.01896 0
-1.82309e-14 1.01896 0
-1.32199e-14 1.02041 0
-9.43066e-15 1.02041 0
-1.82309e-14 1.01896 0
-6.92453e-16 1.01896 0
-9.43066e-15 1.02041 0
2.22367e-15 1.02041 0
-1.15566e-14 1.02041 0
1.83596e-14 1.02041 0
-8.4754e-15 1.02182 0
1.62338e-14 1.02182 0
1.83596e-14 1.02041 0
-4.46207e-15 1.02041 0
1.62338e-14 1.02182 0
2.75625e-15 1.02182 0
-6.92453e-16 1.01896 0
-5.01589e-16 1.01896 0
2.22367e-15 1.02041 0
3.07516e-15 1.02041 0
-5.01589e-16 1.01896 0
-4.99353e-15 1.01896 0
3.07516e-15 1.02041 0
3.62918e-15 1.02041 0
-4.46207e-15 1.02041 0
-6.75226e-15 1.02041 0
2.75625e-15 1.02182 0
2.68236e-15 1.02182 0
-6.75226e-15 1.02041 0
-2.86221e-15 1.02041 0
2.68236e-15 1.02182 0
2.90723e-15 1.02182 0
8.40457e-15 1.02182 0
-2.0118e-14 1.02182 0
8.01913e-15 1.02305 0
-1.4647e-14 1.02305 0
-2.0118e-14 1.02182 0
-3.4186e-15 1.02182 0
-1.4647e-14 1.02305 0
1.76774e-15 1.02305 0
1.67968e-15 1.02305 0
7.88205e-16 1.02305 0
2.05035e-14 1.02363 0
7.8353e-15 1.02363 0
7.88205e-16 1.02305 0
-1.97358e-15 1.02305 0
7.8353e-15 1.02363 0
-1.05913e-15 1.02363 0
-3.4186e-15 1.02182 0
-8.88752e-16 1.02182 0
1.76774e-15 1.02305 0
4.78311e-16 1.02305 0
-8.88752e-16 1.02182 0
-3.30904e-16 1.02182 0
4.78311e-16 1.02305 0
1.49397e-15 1.02305 0
-1.97358e-15 1.02305 0
-4.45956e-16 1.02305 0
-1.05913e-15 1.02363 0
8.30831e-15 1.02363 0
-4.45956e-16 1.02305 0
-1.88274e-15 1.02305 0
8.30831e-15 1.02363 0
-2.00662e-14 1.02363 0
9.88718e-15 1.01323 0
2.15395e-14 1.01323 0
7.50983e-15 1.01467 0
2.18245e-14 1.01467 0
2.15395e-14 1.01323 0
-2.50044e-14 1.01323 0
2.18245e-14 1.01467 0
-2.25099e-14 1.01467 0
-6.33236e-15 1.01467 0
-1.2983e-14 1.01467 0
-2.15791e-15 1.01609 0
-4.2978e-15 1.01609 0
-1.2983e-14 1.01467 0
-1.39452e-15 1.01467 0
-4.2978e-15 1.01609 0
-2.12626e-15 1.01609 0
-2.50044e-14 1.01323 0
1.04748e-16 1.01323 0
-2.25099e-14 1.01467 0
7.78803e-18 1.01467 0
1.04748e-16 1.01323 0
2.82456e-16 1.01323 0
7.78803e-18 1.01467 0
3.08183e-15 1.01467 0
-1.39452e-15 1.01467 0
-3.32955e-15 1.01467 0
-2.12626e-15 1.01609 0
2.36038e-15 1.01609 0
-3.32955e-15 1.01467 0
-2.98139e-15 1.01467 0
2.36038e-15 1.01609 0
7.22093e-15 1.01609 0
-7.69339e-15 1.01609 0
-4.13946e-15 1.01609 0
4.8059e-15 1.01752 0
3.8884e-15 1.01752 0
-4.13946e-15 1.01609 0
-5.20059e-15 1.01609 0
3.8884e-15 1.01752 0
5.82952e-15 1.01752 0
-2.71972e-15 1.01752 0
-1.17303e-15 1.01752 0
4.94439e-15 1.01896 0
2.89463e-15 1.01896 0
-1.17303e-15 1.01752 0
1.49652e-15 1.01752 0
2.89463e-15 1.01896 0
-9.84313e-16 1.01896 0
-5.20059e-15 1.01609 0
-1.84803e-15 1.01609 0
5.82952e-15 1.01752 0
2.68447e-15 1.01752 0
-1.84803e-15 1.01609 0
-3.0614e-15 1.01609 0
2.68447e-15 1.01752 0
3.7376e-16 1.01752 0
1.49652e-15 1.01752 0
-7.10534e-15 1.01752 0
-9.84313e-16 1.01896 0
7.34735e-15 1.01896 0
-7.10534e-15 1.01752 0
7.39268e-16 1.01752 0
7.34735e-15 1.01896 0
2.02566e-15 1.01896 0
2.82456e-16 1.01323 0
-2.17668e-15 1.01323 0
3.08183e-15 1.01467 0
1.50742e-15 1.01467 0
-2.17668e-15 1.01323 0
-1.03075e-15 1.01323 0
1.50742e-15 1.01467 0
4.86103e-15 1.01467 0
-2.98139e-15 1.01467 0
1.0397e-15 1.01467 0
7.22093e-15 1.01609 0
-9.5858e-16 1.01609 0
1.0397e-15 1.01467 0
-2.24798e-15 1.01467 0
-9.5858e-16 1.01609 0
2.22719e-15 1.01609 0
-1.03075e-15 1.01323 0
-2.80667e-15 1.01323 0
4.86103e-15 1.01467 0
3.17162e-15 1.01467 0
-2.80667e-15 1.01323 0
-6.8873e-16 1.01323 0
3.17162e-15 1.01467 0
4.06138e-17 1.01467 0
-2.24798e-15 1.01467 0
-1.78212e-15 1.01467 0
2.22719e-15 1.01609 0
-1.00134e-16 1.01609 0
-1.78212e-15 1.01467 0
-4.26926e-15 1.01467 0
-1.00134e-16 1.01609 0
7.00023e-15 1.01609 0
-3.0614e-15 1.01609 0
1.7766e-16 1.01609 0
3.7376e-16 1.01752 0
1.10709e-15 1.01752 0
1.7766e-16 1.01609 0
1.38497e-15 1.01609 0
1.10709e-15 1.01752 0
2.27961e-15 1.01752 0
7.39268e-16 1.01752 0
-7.16539e-17 1.01752 0
2.02566e-15 1.01896 0
1.62232e-15 1.01896 0
-7.16539e-17 1.01752 0
-2.56102e-15 1.01752 0
1.62232e-15 1.01896 0
3.46937e-15 1.01896 0
1.38497e-15 1.01609 0
-1.40243e-15 1.01609 0
2.27961e-15 1.01752 0
6.78059e-15 1.01752 0
-1.40243e-15 1.01609 0
-3.44367e-15 1.01609 0
6.78059e-15 1.01752 0
8.45777e-15 1.01752 0
-2.56102e-15 1.01752 0
-3.29065e-15 1.01752 0
3.46937e-15 1.01896 0
-4.68712e-16 1.01896 0
-3.29065e-15 1.01752 0
4.99575e-15 1.01752 0
-4.68712e-16 1.01896 0
-8.77623e-16 1.01896 0
-4.99353e-15 1.01896 0
-8.34604e-15 1.01896 0
3.62918e-15 1.02041 0
2.11051e-15 1.02041 0
-8.34604e-15 1.01896 0
-2.64656e-15 1.01896 0
2.11051e-15 1.02041 0
-2.09862e-16 1.02041 0
-2.86221e-15 1.02041 0
-6.44949e-16 1.02041 0
2.90723e-15 1.02182 0
2.17148e-15 1.02182 0
-6.44949e-16 1.02041 0
1.60407e-15 1.02041 0
2.17148e-15 1.02182 0
-1.53789e-15 1.02182 0
-2.64656e-15 1.01896 0
9.65661e-16 1.01896 0
-2.09862e-16 1.02041 0
3.65564e-16 1.02041 0
9.65661e-16 1.01896 0
-6.97811e-15 1.01896 0
3.65564e-16 1.02041 0
5.91326e-15 1.02041 0
1.60407e-15 1.02041 0
-4.33368e-15 1.02041 0