# vtk DataFile Version 3.0
#This file was generated by the deal.II library on 2018/10/12 at 0:46:41
ASCII
DATASET UNSTRUCTURED_GRID

POINTS 5120 double
0 0 0
0.392699 0 0
0 0.60537 0
0.392699 0.60537 0
0.392699 0 0
0.785398 0 0
0.392699 0.60537 0
0.785398 0.60537 0
0 0.60537 0
0.392699 0.60537 0
0 1.23183 0
0.392699 1.23183 0
0.392699 0.60537 0
0.785398 0.60537 0
0.392699 1.23183 0
0.785398 1.23183 0
0.785398 0 0
1.1781 0 0
0.785398 0.60537 0
1.1781 0.60537 0
1.1781 0 0
1.5708 0 0
1.1781 0.60537 0
1.5708 0.60537 0
0.785398 0.60537 0
1.1781 0.60537 0
0.785398 1.23183 0
1.1781 1.23183 0
1.1781 0.60537 0
1.5708 0.60537 0
1.1781 1.23183 0
1.5708 1.23183 0
0 1.23183 0
0.392699 1.23183 0
0 1.85753 0
0.392699 1.85753 0
0.392699 1.23183 0
0.785398 1.23183 0
0.392699 1.85753 0
0.785398 1.85753 0
0 1.85753 0
0.392699 1.85753 0
0 2.48392 0
0.392699 2.48392 0
0.392699 1.85753 0
0.785398 1.85753 0
0.392699 2.48392 0
0.785398 2.48392 0
0.785398 1.23183 0
1.1781 1.23183 0
0.785398 1.85753 0
1.1781 1.85753 0
1.1781 1.23183 0
1.5708 1.23183 0
1.1781 1.85753 0
1.5708 1.85753 0
0.785398 1.85753 0
1.1781 1.85753 0
0.785398 2.48392 0
1.1781 2.48392 0
1.1781 1.85753 0
1.5708 1.85753 0
1.1781 2.48392 0
1.5708 2.48392 0
1.5708 0 0
1.9635 0 0
1.5708 0.60537 0
1.9635 0.60537 0
1.9635 0 0
2.35619 0 0
1.9635 0.60537 0
2.35619 0.60537 0
1.5708 0.60537 0
1.9635 0.60537 0
1.5708 1.23183 0
1.9635 1.23183 0
1.9635 0.60537 0
2.35619 0.60537 0
1.9635 1.23183 0
2.35619 1.23183 0
2.35619 0 0
2.74889 0 0
2.35619 0.60537 0
2.74889 0.60537 0
2.74889 0 0
3.14159 0 0
2.74889 0.60537 0
3.14159 0.60537 0
2.35619 0.60537 0
2.74889 0.60537 0
2.35619 1.23183 0
2.74889 1.23183 0
2.74889 0.60537 0
3.14159 0.60537 0
2.74889 1.23183 0
3.14159 1.23183 0
1.5708 1.23183 0
1.9635 1.23183 0
1.5708 1.85753 0
1.9635 1.85753 0
1.9635 1.23183 0
2.35619 1.23183 0
1.9635 1.85753 0
2.35619 1.85753 0
1.5708 1.85753 0
1.9635 1.85753 0
1.5708 2.48392 0
1.9635 2.48392 0
1.9635 1.85753 0
2.35619 1.85753 0
1.9635 2.48392 0
2.35619 2.48392 0
2.35619 1.23183 0
2.74889 1.23183 0
2.35619 1.85753 0
2.74889 1.85753 0
2.74889 1.23183 0
3.14159 1.23183 0
2.74889 1.85753 0
3.14159 1.85753 0
2.35619 1.85753 0
2.74889 1.85753 0
2.35619 2.48392 0
2.74889 2.48392 0
2.74889 1.85753 0
3.14159 1.85753 0
2.74889 2.48392 0
3.14159 2.48392 0
0 2.48392 0
0.392699 2.48392 0
0 3.11012 0
0.392699 3.11012 0
0.392699 2.48392 0
0.785398 2.48392 0
0.392699 3.11012 0
0.785398 3.11012 0
0 3.11012 0
0.392699 3.11012 0
0 3.73634 0
0.392699 3.73634 0
0.392699 3.11012 0
0.785398 3.11012 0
0.392699 3.73634 0
0.785398 3.73634 0
0.785398 2.48392 0
1.1781 2.48392 0
0.785398 3.11012 0
1.1781 3.11012 0
1.1781 2.48392 0
1.5708 2.48392 0
1.1781 3.11012 0
1.5708 3.11012 0
0.785398 3.11012 0
1.1781 3.11012 0
0.785398 3.73634 0
1.1781 3.73634 0
1.1781 3.11012 0
1.5708 3.11012 0
1.1781 3.73634 0
1.5708 3.73634 0
0 3.73634 0
0.392699 3.73634 0
0 4.36249 0
0.392699 4.36249 0
0.392699 3.73634 0
0.785398 3.73634 0
0.392699 4.36249 0
0.785398 4.36249 0
0 4.36249 0
0.392699 4.36249 0
0 4.98859 0
0.392699 4.98859 0
0.392699 4.36249 0
0.785398 4.36249 0
0.392699 4.98859 0
0.785398 4.98859 0
0.785398 3.73634 0
1.1781 3.73634 0
0.785398 4.36249 0
1.1781 4.36249 0
1.1781 3.73634 0
1.5708 3.73634 0
1.1781 4.36249 0
1.5708 4.36249 0
0.785398 4.36249 0
1.1781 4.36249 0
0.785398 4.98859 0
1.1781 4.98859 0
1.1781 4.36249 0
1.5708 4.36249 0
1.1781 4.98859 0
1.5708 4.98859 0
1.5708 2.48392 0
1.9635 2.48392 0
1.5708 3.11012 0
1.9635 3.11012 0
1.9635 2.48392 0
2.35619 2.48392 0
1.9635 3.11012 0
2.35619 3.11012 0
1.5708 3.11012 0
1.9635 3.11012 0
1.5708 3.73634 0
1.9635 3.73634 0
1.9635 3.11012 0
2.35619 3.11012 0
1.9635 3.73634 0
2.35619 3.73634 0
2.35619 2.48392 0
2.74889 2.48392 0
2.35619 3.11012 0
2.74889 3.11012 0
2.74889 2.48392 0
3.14159 2.48392 0
2.74889 3.11012 0
3.14159 3.11012 0
2.35619 3.11012 0
2.74889 3.11012 0
2.35619 3.73634 0
2.74889 3.73634 0
2.74889 3.11012 0
3.14159 3.11012 0
2.74889 3.73634 0
3.14159 3.73634 0
1.5708 3.73634 0
1.9635 3.73634 0
1.5708 4.36249 0
1.9635 4.36249 0
1.9635 3.73634 0
2.35619 3.73634 0
1.9635 4.36249 0
2.35619 4.36249 0
1.5708 4.36249 0
1.9635 4.36249 0
1.5708 4.98859 0
1.9635 4.98859 0
1.9635 4.36249 0
2.35619 4.36249 0
1.9635 4.98859 0
2.35619 4.98859 0
2.35619 3.73634 0
2.74889 3.73634 0
2.35619 4.36249 0
2.74889 4.36249 0
2.74889 3.73634 0
3.14159 3.73634 0
2.74889 4.36249 0
3.14159 4.36249 0
2.35619 4.36249 0
2.74889 4.36249 0
2.35619 4.98859 0
2.74889 4.98859 0
2.74889 4.36249 0
3.14159 4.36249 0
2.74889 4.98859 0
3.14159 4.98859 0
3.14159 0 0
3.53429 0 0
3.14159 0.60537 0
3.53429 0.60537 0
3.53429 0 0
3.92699 0 0
3.53429 0.60537 0
3.92699 0.60537 0
3.14159 0.60537 0
3.53429 0.60537 0
3.14159 1.23183 0
3.53429 1.23183 0
3.53429 0.60537 0
3.92699 0.60537 0
3.53429 1.23183 0
3.92699 1.23183 0
3.92699 0 0
4.31969 0 0
3.92699 0.60537 0
4.31969 0.60537 0
4.31969 0 0
4.71239 0 0
4.31969 0.60537 0
4.71239 0.60537 0
3.92699 0.60537 0
4.31969 0.60537 0
3.92699 1.23183 0
4.31969 1.23183 0
4.31969 0.60537 0
4.71239 0.60537 0
4.31969 1.23183 0
4.71239 1.23183 0
3.14159 1.23183 0
3.53429 1.23183 0
3.14159 1.85753 0
3.53429 1.85753 0
3.53429 1.23183 0
3.92699 1.23183 0
3.53429 1.85753 0
3.92699 1.85753 0
3.14159 1.85753 0
3.53429 1.85753 0
3.14159 2.48392 0
3.53429 2.48392 0
3.53429 1.85753 0
3.92699 1.85753 0
3.53429 2.48392 0
3.92699 2.48392 0
3.92699 1.23183 0
4.31969 1.23183 0
3.92699 1.85753 0
4.31969 1.85753 0
4.31969 1.23183 0
4.71239 1.23183 0
4.31969 1.85753 0
4.71239 1.85753 0
3.92699 1.85753 0
4.31969 1.85753 0
3.92699 2.48392 0
4.31969 2.48392 0
4.31969 1.85753 0
4.71239 1.85753 0
4.31969 2.48392 0
4.71239 2.48392 0
4.71239 0 0
5.10509 0 0
4.71239 0.60537 0
5.10509 0.60537 0
5.10509 0 0
5.49779 0 0
5.10509 0.60537 0
5.49779 0.60537 0
4.71239 0.60537 0
5.10509 0.60537 0
4.71239 1.23183 0
5.10509 1.23183 0
5.10509 0.60537 0
5.49779 0.60537 0
5.10509 1.23183 0
5.49779 1.23183 0
5.49779 0 0
5.89049 0 0
5.49779 0.60537 0
5.89049 0.60537 0
5.89049 0 0
6.28319 0 0
5.89049 0.60537 0
6.28319 0.60537 0
5.49779 0.60537 0
5.89049 0.60537 0
5.49779 1.23183 0
5.89049 1.23183 0
5.89049 0.60537 0
6.28319 0.60537 0
5.89049 1.23183 0
6.28319 1.23183 0
4.71239 1.23183 0
5.10509 1.23183 0
4.71239 1.85753 0
5.10509 1.85753 0
5.10509 1.23183 0
5.49779 1.23183 0
5.10509 1.85753 0
5.49779 1.85753 0
4.71239 1.85753 0
5.10509 1.85753 0
4.71239 2.48392 0
5.10509 2.48392 0
5.10509 1.85753 0
5.49779 1.85753 0
5.10509 2.48392 0
5.49779 2.48392 0
5.49779 1.23183 0
5.89049 1.23183 0
5.49779 1.85753 0
5.89049 1.85753 0
5.89049 1.23183 0
6.28319 1.23183 0
5.89049 1.85753 0
6.28319 1.85753 0
5.49779 1.85753 0
5.89049 1.85753 0
5.49779 2.48392 0
5.89049 2.48392 0
5.89049 1.85753 0
6.28319 1.85753 0
5.89049 2.48392 0
6.28319 2.48392 0
3.14159 2.48392 0
3.53429 2.48392 0
3.14159 3.11012 0
3.53429 3.11012 0
3.53429 2.48392 0
3.92699 2.48392 0
3.53429 3.11012 0
3.92699 3.11012 0
3.14159 3.11012 0
3.53429 3.11012 0
3.14159 3.73634 0
3.53429 3.73634 0
3.53429 3.11012 0
3.92699 3.11012 0
3.53429 3.73634 0
3.92699 3.73634 0
3.92699 2.48392 0
4.31969 2.48392 0
3.92699 3.11012 0
4.31969 3.11012 0
4.31969 2.48392 0
4.71239 2.48392 0
4.31969 3.11012 0
4.71239 3.11012 0
3.92699 3.11012 0
4.31969 3.11012 0
3.92699 3.73634 0
4.31969 3.73634 0
4.31969 3.11012 0
4.71239 3.11012 0
4.31969 3.73634 0
4.71239 3.73634 0
3.14159 3.73634 0
3.53429 3.73634 0
3.14159 4.36249 0
3.53429 4.36249 0
3.53429 3.73634 0
3.92699 3.73634 0
3.53429 4.36249 0
3.92699 4.36249 0
3.14159 4.36249 0
3.53429 4.36249 0
3.14159 4.98859 0
3.53429 4.98859 0
3.53429 4.36249 0
3.92699 4.36249 0
3.53429 4.98859 0
3.92699 4.98859 0
3.92699 3.73634 0
4.31969 3.73634 0
3.92699 4.36249 0
4.31969 4.36249 0
4.31969 3.73634 0
4.71239 3.73634 0
4.31969 4.36249 0
4.71239 4.36249 0
3.92699 4.36249 0
4.31969 4.36249 0
3.92699 4.98859 0
4.31969 4.98859 0
4.31969 4.36249 0
4.71239 4.36249 0
4.31969 4.98859 0
4.71239 4.98859 0
4.71239 2.48392 0
5.10509 2.48392 0
4.71239 3.11012 0
5.10509 3.11012 0
5.10509 2.48392 0
5.49779 2.48392 0
5.10509 3.11012 0
5.49779 3.11012 0
4.71239 3.11012 0
5.10509 3.11012 0
4.71239 3.73634 0
5.10509 3.73634 0
5.10509 3.11012 0
5.49779 3.11012 0
5.10509 3.73634 0
5.49779 3.73634 0
5.49779 2.48392 0
5.89049 2.48392 0
5.49779 3.11012 0
5.89049 3.11012 0
5.89049 2.48392 0
6.28319 2.48392 0
5.89049 3.11012 0
6.28319 3.11012 0
5.49779 3.11012 0
5.89049 3.11012 0
5.49779 3.73634 0
5.89049 3.73634 0
5.89049 3.11012 0
6.28319 3.11012 0
5.89049 3.73634 0
6.28319 3.73634 0
4.71239 3.73634 0
5.10509 3.73634 0
4.71239 4.36249 0
5.10509 4.36249 0
5.10509 3.73634 0
5.49779 3.73634 0
5.10509 4.36249 0
5.49779 4.36249 0
4.71239 4.36249 0
5.10509 4.36249 0
4.71239 4.98859 0
5.10509 4.98859 0
5.10509 4.36249 0
5.49779 4.36249 0
5.10509 4.98859 0
5.49779 4.98859 0
5.49779 3.73634 0
5.89049 3.73634 0
5.49779 4.36249 0
5.89049 4.36249 0
5.89049 3.73634 0
6.28319 3.73634 0
5.89049 4.36249 0
6.28319 4.36249 0
5.49779 4.36249 0
5.89049 4.36249 0
5.49779 4.98859 0
5.89049 4.98859 0
5.89049 4.36249 0
6.28319 4.36249 0
5.89049 4.98859 0
6.28319 4.98859 0
0 4.98859 0
0.392699 4.98859 0
0 5.61463 0
0.392699 5.61463 0
0.392699 4.98859 0
0.785398 4.98859 0
0.392699 5.61463 0
0.785398 5.61463 0
0 5.61463 0
0.392699 5.61463 0
0 6.24061 0
0.392699 6.24061 0
0.392699 5.61463 0
0.785398 5.61463 0
0.392699 6.24061 0
0.785398 6.24061 0
0.785398 4.98859 0
1.1781 4.98859 0
0.785398 5.61463 0
1.1781 5.61463 0
1.1781 4.98859 0
1.5708 4.98859 0
1.1781 5.61463 0
1.5708 5.61463 0
0.785398 5.61463 0
1.1781 5.61463 0
0.785398 6.24061 0
1.1781 6.24061 0
1.1781 5.61463 0
1.5708 5.61463 0
1.1781 6.24061 0
1.5708 6.24061 0
0 6.24061 0
0.392699 6.24061 0
0 6.86655 0
0.392699 6.86655 0
0.392699 6.24061 0
0.785398 6.24061 0
0.392699 6.86655 0
0.785398 6.86655 0
0 6.86655 0
0.392699 6.86655 0
0 7.49249 0
0.392699 7.49249 0
0.392699 6.86655 0
0.785398 6.86655 0
0.392699 7.49249 0
0.785398 7.49249 0
0.785398 6.24061 0
1.1781 6.24061 0
0.785398 6.86655 0
1.1781 6.86655 0
1.1781 6.24061 0
1.5708 6.24061 0
[...]
POINT_DATA 5120
VECTORS uf double
0 1 0
-7.15395e-14 1 0
0 1.00238 0
-7.39379e-14 1.00238 0
-7.15395e-14 1 0
-5.60648e-15 1 0
-7.39379e-14 1.00238 0
-1.58203e-14 1.00238 0
0 1.00238 0
3.0426e-14 1.00238 0
0 1.0036 0
2.23416e-14 1.0036 0
3.0426e-14 1.00238 0
2.04074e-14 1.00238 0
2.23416e-14 1.0036 0
1.22548e-14 1.0036 0
-5.60648e-15 1 0
1.34757e-13 1 0
-1.58203e-14 1.00238 0
1.2728e-13 1.00238 0
1.34757e-13 1 0
5.30152e-14 1 0
1.2728e-13 1.00238 0
5.53409e-14 1.00238 0
2.04074e-14 1.00238 0
-1.37912e-13 1.00238 0
1.22548e-14 1.0036 0
-1.21878e-13 1.0036 0
-1.37912e-13 1.00238 0
-5.401e-14 1.00238 0
-1.21878e-13 1.0036 0
-5.1778e-14 1.0036 0
0 1.0036 0
2.36643e-14 1.0036 0
0 1.00508 0
1.63185e-14 1.00508 0
2.36643e-14 1.0036 0
-5.5201e-15 1.0036 0
1.63185e-14 1.00508 0
-3.90861e-15 1.00508 0
0 1.00508 0
3.5655e-14 1.00508 0
0 1.00646 0
3.85863e-14 1.00646 0
3.5655e-14 1.00508 0
6.52457e-14 1.00508 0
3.85863e-14 1.00646 0
5.88372e-14 1.00646 0
-5.5201e-15 1.0036 0
-5.8762e-15 1.0036 0
-3.90861e-15 1.00508 0
9.16972e-15 1.00508 0
-5.8762e-15 1.0036 0
-3.98121e-15 1.0036 0
9.16972e-15 1.00508 0
3.31263e-15 1.00508 0
6.52457e-14 1.00508 0
2.45684e-17 1.00508 0
5.88372e-14 1.00646 0
1.07382e-14 1.00646 0
2.45684e-17 1.00508 0
-2.35176e-14 1.00508 0
1.07382e-14 1.00646 0
-2.01453e-14 1.00646 0
5.30152e-14 1 0
-1.69872e-14 1 0
5.53409e-14 1.00238 0
-8.98428e-15 1.00238 0
-1.69872e-14 1 0
-3.3904e-15 1 0
-8.98428e-15 1.00238 0
2.69404e-15 1.00238 0
-5.401e-14 1.00238 0
1.76253e-14 1.00238 0
-5.1778e-14 1.0036 0
1.09652e-14 1.0036 0
1.76253e-14 1.00238 0
-7.01508e-15 1.00238 0
1.09652e-14 1.0036 0
1.44181e-14 1.0036 0
-3.3904e-15 1 0
2.97639e-15 1 0
2.69404e-15 1.00238 0
-5.17195e-15 1.00238 0
2.97639e-15 1 0
2.53987e-16 1 0
-5.17195e-15 1.00238 0
-4.16791e-15 1.00238 0
-7.01508e-15 1.00238 0
-5.50829e-15 1.00238 0
1.44181e-14 1.0036 0
8.68386e-15 1.0036 0
-5.50829e-15 1.00238 0
4.18559e-15 1.00238 0
8.68386e-15 1.0036 0
7.0326e-15 1.0036 0
-3.98121e-15 1.0036 0
2.43994e-14 1.0036 0
3.31263e-15 1.00508 0
2.9006e-14 1.00508 0
2.43994e-14 1.0036 0
-7.34176e-15 1.0036 0
2.9006e-14 1.00508 0
6.14495e-15 1.00508 0
-2.35176e-14 1.00508 0
-4.3089e-15 1.00508 0
-2.01453e-14 1.00646 0
-7.89238e-15 1.00646 0
-4.3089e-15 1.00508 0
-3.45865e-15 1.00508 0
-7.89238e-15 1.00646 0
1.14725e-15 1.00646 0
-7.34176e-15 1.0036 0
5.73978e-16 1.0036 0
6.14495e-15 1.00508 0
4.19205e-15 1.00508 0
5.73978e-16 1.0036 0
-1.07912e-15 1.0036 0
4.19205e-15 1.00508 0
5.42649e-15 1.00508 0
-3.45865e-15 1.00508 0
-1.97841e-15 1.00508 0
1.14725e-15 1.00646 0
1.01983e-15 1.00646 0
-1.97841e-15 1.00508 0
-4.15684e-15 1.00508 0
1.01983e-15 1.00646 0
3.60017e-15 1.00646 0
0 1.00646 0
-5.12958e-14 1.00646 0
0 1.00784 0
-4.07547e-14 1.00784 0
-5.12958e-14 1.00646 0
-7.75227e-14 1.00646 0
-4.07547e-14 1.00784 0
-7.43638e-14 1.00784 0
0 1.00784 0
2.34677e-14 1.00784 0
0 1.00918 0
3.11374e-14 1.00918 0
2.34677e-14 1.00784 0
8.44697e-14 1.00784 0
3.11374e-14 1.00918 0
7.95519e-14 1.00918 0
-7.75227e-14 1.00646 0
-1.67346e-14 1.00646 0
-7.43638e-14 1.00784 0
6.50781e-15 1.00784 0
-1.67346e-14 1.00646 0
5.47361e-14 1.00646 0
6.50781e-15 1.00784 0
4.57568e-14 1.00784 0
8.44697e-14 1.00784 0
7.25973e-15 1.00784 0
7.95519e-14 1.00918 0
1.58157e-14 1.00918 0
7.25973e-15 1.00784 0
-6.38083e-14 1.00784 0
1.58157e-14 1.00918 0
-5.19746e-14 1.00918 0
0 1.00918 0
1.96564e-14 1.00918 0
0 1.0105 0
2.21077e-14 1.0105 0
1.96564e-14 1.00918 0
-1.62226e-13 1.00918 0
2.21077e-14 1.0105 0
-1.60084e-13 1.0105 0
0 1.0105 0
-1.2024e-14 1.0105 0
0 1.01181 0
-1.52668e-14 1.01181 0
-1.2024e-14 1.0105 0
1.46952e-13 1.0105 0
-1.52668e-14 1.01181 0
1.39869e-13 1.01181 0
-1.62226e-13 1.00918 0
-1.24522e-14 1.00918 0
-1.60084e-13 1.0105 0
-8.3032e-15 1.0105 0
-1.24522e-14 1.00918 0
9.62716e-14 1.00918 0
-8.3032e-15 1.0105 0
1.0795e-13 1.0105 0
1.46952e-13 1.0105 0
1.64226e-14 1.0105 0
1.39869e-13 1.01181 0
1.82249e-14 1.01181 0
1.64226e-14 1.0105 0
-1.41191e-13 1.0105 0
1.82249e-14 1.01181 0
-1.27622e-13 1.01181 0
5.47361e-14 1.00646 0
-1.75446e-14 1.00646 0
4.57568e-14 1.00784 0
-8.80846e-15 1.00784 0
-1.75446e-14 1.00646 0
-3.04304e-15 1.00646 0
-8.80846e-15 1.00784 0
1.93838e-15 1.00784 0
-6.38083e-14 1.00784 0
5.6359e-15 1.00784 0
-5.19746e-14 1.00918 0
7.64026e-15 1.00918 0
5.6359e-15 1.00784 0
5.81554e-15 1.00784 0
7.64026e-15 1.00918 0
-2.65684e-15 1.00918 0
-3.04304e-15 1.00646 0
-3.35879e-15 1.00646 0
1.93838e-15 1.00784 0
6.31904e-15 1.00784 0
-3.35879e-15 1.00646 0
-6.96406e-15 1.00646 0
6.31904e-15 1.00784 0
1.25809e-14 1.00784 0
5.81554e-15 1.00784 0
3.24981e-16 1.00784 0
-2.65684e-15 1.00918 0
2.0526e-15 1.00918 0
3.24981e-16 1.00784 0
3.86207e-15 1.00784 0
2.0526e-15 1.00918 0
4.13475e-15 1.00918 0
9.62716e-14 1.00918 0
-2.15869e-14 1.00918 0
1.0795e-13 1.0105 0
-1.51615e-14 1.0105 0
-2.15869e-14 1.00918 0
-4.69387e-15 1.00918 0
-1.51615e-14 1.0105 0
4.1861e-15 1.0105 0
-1.41191e-13 1.0105 0
-1.75225e-14 1.0105 0
-1.27622e-13 1.01181 0
-1.28608e-14 1.01181 0
-1.75225e-14 1.0105 0
1.21316e-15 1.0105 0
-1.28608e-14 1.01181 0
3.84165e-15 1.01181 0
-4.69387e-15 1.00918 0
2.63776e-15 1.00918 0
4.1861e-15 1.0105 0
3.82042e-15 1.0105 0
2.63776e-15 1.00918 0
-2.7006e-15 1.00918 0
3.82042e-15 1.0105 0
5.62982e-15 1.0105 0
1.21316e-15 1.0105 0
-4.13231e-15 1.0105 0
3.84165e-15 1.01181 0
6.6358e-15 1.01181 0
-4.13231e-15 1.0105 0
-7.47004e-15 1.0105 0
6.6358e-15 1.01181 0
5.05141e-15 1.01181 0
2.53987e-16 1 0
-1.74302e-15 1 0
-4.16791e-15 1.00238 0
1.02115e-14 1.00238 0
-1.74302e-15 1 0
6.12222e-15 1 0
1.02115e-14 1.00238 0
5.87607e-15 1.00238 0
4.18559e-15 1.00238 0
1.80295e-15 1.00238 0
7.0326e-15 1.0036 0
3.10917e-15 1.0036 0
1.80295e-15 1.00238 0
-7.87012e-15 1.00238 0
3.10917e-15 1.0036 0
3.05348e-15 1.0036 0
6.12222e-15 1 0
3.21649e-16 1 0
5.87607e-15 1.00238 0
6.28662e-15 1.00238 0
3.21649e-16 1 0
-1.1007e-16 1 0
6.28662e-15 1.00238 0
9.80996e-16 1.00238 0
-7.87012e-15 1.00238 0
-9.67904e-15 1.00238 0
3.05348e-15 1.0036 0
1.0344e-14 1.0036 0
-9.67904e-15 1.00238 0
6.14241e-15 1.00238 0
1.0344e-14 1.0036 0
3.78464e-15 1.0036 0
-1.07912e-15 1.0036 0
-8.40268e-15 1.0036 0
5.42649e-15 1.00508 0
1.08472e-14 1.00508 0
-8.40268e-15 1.0036 0
-9.38181e-16 1.0036 0
1.08472e-14 1.00508 0
9.95492e-15 1.00508 0
-4.15684e-15 1.00508 0
2.67298e-15 1.00508 0
3.60017e-15 1.00646 0
2.96637e-15 1.00646 0
2.67298e-15 1.00508 0
-2.18075e-15 1.00508 0
2.96637e-15 1.00646 0
1.0325e-14 1.00646 0
-9.38181e-16 1.0036 0
1.01916e-14 1.0036 0
9.95492e-15 1.00508 0
-8.59923e-16 1.00508 0
1.01916e-14 1.0036 0
1.11685e-15 1.0036 0
-8.59923e-16 1.00508 0
6.39518e-15 1.00508 0
-2.18075e-15 1.00508 0
-3.15407e-15 1.00508 0
1.0325e-14 1.00646 0
4.53607e-15 1.00646 0
-3.15407e-15 1.00508 0
1.45297e-15 1.00508 0
4.53607e-15 1.00646 0
5.76626e-15 1.00646 0
-1.1007e-16 1 0
-1.93941e-15 1 0
9.80996e-16 1.00238 0
1.19531e-14 1.00238 0
-1.93941e-15 1 0
3.54655e-15 1 0
1.19531e-14 1.00238 0
5.65965e-15 1.00238 0
6.14241e-15 1.00238 0
1.01941e-15 1.00238 0
3.78464e-15 1.0036 0
8.55752e-15 1.0036 0
1.01941e-15 1.00238 0
-4.55961e-15 1.00238 0
8.55752e-15 1.0036 0
1.21035e-14 1.0036 0
3.54655e-15 1 0
3.23351e-15 1 0
5.65965e-15 1.00238 0
2.77472e-15 1.00238 0
3.23351e-15 1 0
7.18075e-15 1 0
2.77472e-15 1.00238 0
3.03383e-15 1.00238 0
-4.55961e-15 1.00238 0
7.31833e-15 1.00238 0
1.21035e-14 1.0036 0
1.00601e-14 1.0036 0
7.31833e-15 1.00238 0
3.33176e-15 1.00238 0
1.00601e-14 1.0036 0
1.61227e-15 1.0036 0
1.11685e-15 1.0036 0
-1.22963e-14 1.0036 0
6.39518e-15 1.00508 0
6.94865e-15 1.00508 0
-1.22963e-14 1.0036 0
1.00001e-14 1.0036 0
6.94865e-15 1.00508 0
-6.10428e-15 1.00508 0
1.45297e-15 1.00508 0
5.50176e-15 1.00508 0
5.76626e-15 1.00646 0
2.50274e-15 1.00646 0
5.50176e-15 1.00508 0
7.84729e-16 1.00508 0
2.50274e-15 1.00646 0
1.72629e-15 1.00646 0
1.00001e-14 1.0036 0
-1.50075e-14 1.0036 0
-6.10428e-15 1.00508 0
1.19014e-14 1.00508 0
-1.50075e-14 1.0036 0
-6.79735e-15 1.0036 0
1.19014e-14 1.00508 0
8.13866e-15 1.00508 0
7.84729e-16 1.00508 0
-1.03841e-15 1.00508 0
1.72629e-15 1.00646 0
1.04147e-14 1.00646 0
-1.03841e-15 1.00508 0
2.80319e-15 1.00508 0
1.04147e-14 1.00646 0
-2.73084e-15 1.00646 0
-6.96406e-15 1.00646 0
2.45211e-15 1.00646 0
1.25809e-14 1.00784 0
1.75266e-16 1.00784 0
2.45211e-15 1.00646 0
-1.09797e-14 1.00646 0
1.75266e-16 1.00784 0
7.10607e-15 1.00784 0
3.86207e-15 1.00784 0
-7.39398e-15 1.00784 0
4.13475e-15 1.00918 0
4.74334e-15 1.00918 0
-7.39398e-15 1.00784 0
-2.44062e-15 1.00784 0
4.74334e-15 1.00918 0
1.01611e-14 1.00918 0
-1.09797e-14 1.00646 0
3.18445e-15 1.00646 0
7.10607e-15 1.00784 0
-1.6037e-15 1.00784 0
3.18445e-15 1.00646 0
-8.85044e-15 1.00646 0
-1.6037e-15 1.00784 0
1.55728e-14 1.00784 0
-2.44062e-15 1.00784 0
7.57948e-15 1.00784 0
1.01611e-14 1.00918 0
1.59522e-15 1.00918 0
7.57948e-15 1.00784 0
-9.22184e-15 1.00784 0
1.59522e-15 1.00918 0
9.60498e-15 1.00918 0
-2.7006e-15 1.00918 0
5.45528e-15 1.00918 0
5.62982e-15 1.0105 0
7.47448e-15 1.0105 0
5.45528e-15 1.00918 0
-1.10077e-14 1.00918 0
7.47448e-15 1.0105 0
1.16203e-14 1.0105 0
-7.47004e-15 1.0105 0
-5.68504e-15 1.0105 0
5.05141e-15 1.01181 0
5.97011e-15 1.01181 0
-5.68504e-15 1.0105 0
-8.45043e-16 1.0105 0
5.97011e-15 1.01181 0
1.25595e-14 1.01181 0
-1.10077e-14 1.00918 0
-9.52521e-15 1.00918 0
1.16203e-14 1.0105 0
5.95614e-15 1.0105 0
-9.52521e-15 1.00918 0
-8.67692e-15 1.00918 0
5.95614e-15 1.0105 0
8.33645e-15 1.0105 0
-8.45043e-16 1.0105 0
5.67443e-15 1.0105 0
1.25595e-14 1.01181 0
-1.06112e-16 1.01181 0
5.67443e-15 1.0105 0
-3.7847e-15 1.0105 0
-1.06112e-16 1.01181 0
2.98565e-15 1.01181 0
-8.85044e-15 1.00646 0
5.37864e-15 1.00646 0
1.55728e-14 1.00784 0
-1.04849e-15 1.00784 0
5.37864e-15 1.00646 0
2.78039e-15 1.00646 0
-1.04849e-15 1.00784 0
7.3068e-15 1.00784 0
-9.22184e-15 1.00784 0
2.80264e-16 1.00784 0
9.60498e-15 1.00918 0
1.56195e-15 1.00918 0
2.80264e-16 1.00784 0
-2.39001e-16 1.00784 0
1.56195e-15 1.00918 0
2.08618e-15 1.00918 0
2.78039e-15 1.00646 0
2.75566e-15 1.00646 0
7.3068e-15 1.00784 0
6.13425e-15 1.00784 0
2.75566e-15 1.00646 0
1.53312e-14 1.00646 0
6.13425e-15 1.00784 0
1.2089e-15 1.00784 0
-2.39001e-16 1.00784 0
-6.18525e-15 1.00784 0
2.08618e-15 1.00918 0
1.0007e-14 1.00918 0
-6.18525e-15 1.00784 0
-5.20413e-15 1.00784 0
1.0007e-14 1.00918 0
8.65821e-15 1.00918 0
-8.67692e-15 1.00918 0
1.03674e-17 1.00918 0
8.33645e-15 1.0105 0
9.16708e-16 1.0105 0
1.03674e-17 1.00918 0
-8.70283e-15 1.00918 0
9.16708e-16 1.0105 0
2.89232e-15 1.0105 0
-3.7847e-15 1.0105 0
-2.68553e-16 1.0105 0
2.98565e-15 1.01181 0
1.9415e-15 1.01181 0
-2.68553e-16 1.0105 0
1.96225e-17 1.0105 0
1.9415e-15 1.01181 0
5.68423e-15 1.01181 0
-8.70283e-15 1.00918 0
-2.28059e-15 1.00918 0
2.89232e-15 1.0105 0
-7.87219e-16 1.0105 0
-2.28059e-15 1.00918 0
-6.36389e-15 1.00918 0
-7.87219e-16 1.0105 0
6.36579e-15 1.0105 0
1.96225e-17 1.0105 0
-1.1305e-15 1.0105 0
5.68423e-15 1.01181 0
-1.51823e-15 1.01181 0
-1.1305e-15 1.0105 0
5.46468e-16 1.0105 0
-1.51823e-15 1.01181 0
-9.45806e-16 1.01181 0
0 1.01181 0
-6.10758e-15 1.01181 0
0 1.0131 0
-3.8395e-15 1.0131 0
-6.10758e-15 1.01181 0
-9.4588e-14 1.01181 0
-3.8395e-15 1.0131 0
-9.63376e-14 1.0131 0
0 1.0131 0
1.40405e-14 1.0131 0
0 1.0144 0
1.43768e-14 1.0144 0
1.40405e-14 1.0131 0
8.29915e-14 1.0131 0
1.43768e-14 1.0144 0
7.51771e-14 1.0144 0
-9.4588e-14 1.01181 0
5.01212e-15 1.01181 0
-9.63376e-14 1.0131 0
5.7667e-15 1.0131 0
5.01212e-15 1.01181 0
9.55609e-14 1.01181 0
5.7667e-15 1.0131 0
9.3809e-14 1.0131 0
8.29915e-14 1.0131 0
-2.97697e-14 1.0131 0
7.51771e-14 1.0144 0
-2.6584e-14 1.0144 0
-2.97697e-14 1.0131 0
-2.34822e-14 1.0131 0
-2.6584e-14 1.0144 0
-2.35798e-14 1.0144 0
0 1.0144 0
-2.22899e-14 1.0144 0
0 1.01569 0
-1.62656e-14 1.01569 0
-2.22899e-14 1.0144 0
-5.04102e-14 1.0144 0
-1.62656e-14 1.01569 0
-4.833e-14 1.01569 0
0 1.01569 0
-6.81774e-16 1.01569 0
0 1.01701 0
4.26033e-15 1.01701 0
-6.81774e-16 1.01569 0
1.58391e-14 1.01569 0
4.26033e-15 1.01701 0
1.99658e-14 1.01701 0
-5.04102e-14 1.0144 0
1.32612e-14 1.0144 0
-4.833e-14 1.01569 0
4.03165e-15 1.01569 0
1.32612e-14 1.0144 0
3.97873e-15 1.0144 0
4.03165e-15 1.01569 0
7.77723e-15 1.01569 0
1.58391e-14 1.01569 0
-5.12132e-15 1.01569 0
1.99658e-14 1.01701 0
-7.20767e-15 1.01701 0
-5.12132e-15 1.01569 0
-1.67747e-15 1.01569 0
-7.20767e-15 1.01701 0
-5.34888e-15 1.01701 0
9.55609e-14 1.01181 0
1.15054e-15 1.01181 0
9.3809e-14 1.0131 0
1.09317e-14 1.0131 0
1.15054e-15 1.01181 0
-1.77848e-15 1.01181 0
1.09317e-14 1.0131 0
3.10432e-15 1.0131 0
-2.34822e-14 1.0131 0
1.87152e-14 1.0131 0
-2.35798e-14 1.0144 0
2.8826e-14 1.0144 0
1.87152e-14 1.0131 0
-6.56878e-15 1.0131 0
2.8826e-14 1.0144 0
4.54019e-15 1.0144 0
-1.77848e-15 1.01181 0
1.15068e-15 1.01181 0
3.10432e-15 1.0131 0
-1.513e-15 1.0131 0
1.15068e-15 1.01181 0
4.14959e-15 1.01181 0
-1.513e-15 1.0131 0
5.87736e-15 1.0131 0
-6.56878e-15 1.0131 0
-8.34978e-16 1.0131 0
4.54019e-15 1.0144 0
4.99654e-15 1.0144 0
-8.34978e-16 1.0131 0
-5.30186e-15 1.0131 0
4.99654e-15 1.0144 0
4.46255e-15 1.0144 0
3.97873e-15 1.0144 0
-1.03356e-14 1.0144 0
7.77723e-15 1.01569 0
-2.99363e-15 1.01569 0
-1.03356e-14 1.0144 0
-4.46063e-15 1.0144 0
-2.99363e-15 1.01569 0
4.19063e-15 1.01569 0
-1.67747e-15 1.01569 0
-5.39845e-15 1.01569 0
-5.34888e-15 1.01701 0
-2.19008e-15 1.01701 0
-5.39845e-15 1.01569 0
-2.8457e-15 1.01569 0
-2.19008e-15 1.01701 0
3.30984e-15 1.01701 0
-4.46063e-15 1.0144 0
-2.7697e-15 1.0144 0
4.19063e-15 1.01569 0
4.30921e-15 1.01569 0
-2.7697e-15 1.0144 0
-6.77718e-15 1.0144 0
4.30921e-15 1.01569 0
5.24408e-15 1.01569 0
-2.8457e-15 1.01569 0
-2.0244e-15 1.01569 0
3.30984e-15 1.01701 0
2.74997e-15 1.01701 0
-2.0244e-15 1.01569 0
-3.10366e-15 1.01569 0
2.74997e-15 1.01701 0
4.89659e-15 1.01701 0
0 1.01701 0
1.77689e-14 1.01701 0
0 1.01834 0
1.7736e-14 1.01834 0
1.77689e-14 1.01701 0
-2.18474e-14 1.01701 0
1.7736e-14 1.01834 0
-2.0329e-14 1.01834 0
0 1.01834 0
-2.26239e-14 1.01834 0
0 1.01963 0
-1.87691e-14 1.01963 0
-2.26239e-14 1.01834 0
3.35099e-14 1.01834 0
-1.87691e-14 1.01963 0
3.15407e-14 1.01963 0
-2.18474e-14 1.01701 0
-8.54186e-16 1.01701 0
-2.0329e-14 1.01834 0
2.15047e-15 1.01834 0
-8.54186e-16 1.01701 0
-1.15734e-14 1.01701 0
2.15047e-15 1.01834 0
-6.83969e-15 1.01834 0
3.35099e-14 1.01834 0
1.02902e-15 1.01834 0
3.15407e-14 1.01963 0
8.33548e-15 1.01963 0
1.02902e-15 1.01834 0
3.31865e-15 1.01834 0
8.33548e-15 1.01963 0
1.87491e-15 1.01963 0
0 1.01963 0
1.44016e-14 1.01963 0
0 1.02075 0
1.25681e-14 1.02075 0
1.44016e-14 1.01963 0
-1.75896e-14 1.01963 0
1.25681e-14 1.02075 0
-1.87428e-14 1.02075 0
0 1.02075 0
-1.14176e-15 1.02075 0
0 1.02123 0
-1.23023e-14 1.02123 0
-1.14176e-15 1.02075 0
7.32241e-16 1.02075 0
-1.23023e-14 1.02123 0
1.4955e-14 1.02123 0
-1.75896e-14 1.01963 0
-4.76427e-17 1.01963 0
-1.87428e-14 1.02075 0
1.82168e-16 1.02075 0
-4.76427e-17 1.01963 0
3.34704e-15 1.01963 0
1.82168e-16 1.02075 0
2.02287e-15 1.02075 0
7.32241e-16 1.02075 0
-3.12981e-15 1.02075 0
1.4955e-14 1.02123 0
-1.18764e-14 1.02123 0
-3.12981e-15 1.02075 0
1.37879e-16 1.02075 0
-1.18764e-14 1.02123 0
1.02646e-14 1.02123 0
-1.15734e-14 1.01701 0
-4.97583e-15 1.01701 0
-6.83969e-15 1.01834 0
3.52734e-15 1.01834 0
-4.97583e-15 1.01701 0
-9.14418e-16 1.01701 0
3.52734e-15 1.01834 0
2.86395e-15 1.01834 0
3.31865e-15 1.01834 0
-2.7851e-15 1.01834 0
1.87491e-15 1.01963 0
7.20307e-16 1.01963 0
-2.7851e-15 1.01834 0
-5.18422e-15 1.01834 0
7.20307e-16 1.01963 0
5.40856e-15 1.01963 0
-9.14418e-16 1.01701 0
-4.56458e-16 1.01701 0
2.86395e-15 1.01834 0
1.27165e-15 1.01834 0
-4.56458e-16 1.01701 0
-1.34067e-15 1.01701 0
1.27165e-15 1.01834 0
2.92138e-16 1.01834 0
-5.18422e-15 1.01834 0
-5.15627e-15 1.01834 0
5.40856e-15 1.01963 0
1.67486e-15 1.01963 0
-5.15627e-15 1.01834 0
-2.2357e-15 1.01834 0
1.67486e-15 1.01963 0
2.9507e-15 1.01963 0
3.34704e-15 1.01963 0
9.58472e-17 1.01963 0
2.02287e-15 1.02075 0
4.65667e-15 1.02075 0
9.58472e-17 1.01963 0
-3.22307e-15 1.01963 0
4.65667e-15 1.02075 0
3.09821e-15 1.02075 0
1.37879e-16 1.02075 0
-3.78944e-15 1.02075 0
1.02646e-14 1.02123 0
3.50689e-15 1.02123 0
-3.78944e-15 1.02075 0
-2.10823e-16 1.02075 0
3.50689e-15 1.02123 0
-1.72385e-15 1.02123 0
-3.22307e-15 1.01963 0
-1.88261e-15 1.01963 0
3.09821e-15 1.02075 0
2.30427e-15 1.02075 0
-1.88261e-15 1.01963 0
-8.49576e-16 1.01963 0
2.30427e-15 1.02075 0
3.32791e-15 1.02075 0
-2.10823e-16 1.02075 0
-6.45083e-16 1.02075 0
-1.72385e-15 1.02123 0
4.77093e-15 1.02123 0
-6.45083e-16 1.02075 0
1.05769e-15 1.02075 0
4.77093e-15 1.02123 0
-1.19198e-14 1.02123 0
4.14959e-15 1.01181 0
1.78653e-15 1.01181 0
5.87736e-15 1.0131 0
5.19684e-15 1.0131 0
1.78653e-15 1.01181 0
-8.29342e-15 1.01181 0
5.19684e-15 1.0131 0
-2.2554e-15 1.0131 0
-5.30186e-15 1.0131 0
-3.98985e-15 1.0131 0
4.46255e-15 1.0144 0
6.33159e-15 1.0144 0
-3.98985e-15 1.0131 0
1.76585e-15 1.0131 0
6.33159e-15 1.0144 0
2.14776e-15 1.0144 0
-8.29342e-15 1.01181 0
-1.34517e-15 1.01181 0
-2.2554e-15 1.0131 0
-2.2074e-15 1.0131 0
-1.34517e-15 1.01181 0
1.9238e-15 1.01181 0
-2.2074e-15 1.0131 0
3.49182e-15 1.0131 0
1.76585e-15 1.0131 0
-1.34892e-16 1.0131 0
2.14776e-15 1.0144 0
5.29611e-16 1.0144 0
-1.34892e-16 1.0131 0
-1.74799e-15 1.0131 0
5.29611e-16 1.0144 0
-5.15623e-16 1.0144 0
-6.77718e-15 1.0144 0
-3.05666e-15 1.0144 0
5.24408e-15 1.01569 0
1.78097e-15 1.01569 0
-3.05666e-15 1.0144 0
-3.12563e-15 1.0144 0
1.78097e-15 1.01569 0
3.41911e-15 1.01569 0
-3.10366e-15 1.01569 0
-3.07844e-15 1.01569 0
4.89659e-15 1.01701 0
2.9611e-15 1.01701 0
-3.07844e-15 1.01569 0
-2.82907e-15 1.01569 0
2.9611e-15 1.01701 0
7.88356e-16 1.01701 0
-3.12563e-15 1.0144 0
-8.7482e-16 1.0144 0
3.41911e-15 1.01569 0
4.15276e-15 1.01569 0
-8.7482e-16 1.0144 0
-2.71395e-16 1.0144 0
4.15276e-15 1.01569 0
-3.73805e-16 1.01569 0
-2.82907e-15 1.01569 0
-5.26291e-16 1.01569 0
7.88356e-16 1.01701 0
3.72351e-15 1.01701 0
-5.26291e-16 1.01569 0
1.81784e-15 1.01569 0
3.72351e-15 1.01701 0
9.54884e-16 1.01701 0
1.9238e-15 1.01181 0
-6.98942e-16 1.01181 0
3.49182e-15 1.0131 0
3.16322e-15 1.0131 0
-6.98942e-16 1.01181 0
-1.0112e-15 1.01181 0
3.16322e-15 1.0131 0
8.27801e-15 1.0131 0
-1.74799e-15 1.0131 0
-3.63183e-15 1.0131 0
-5.15623e-16 1.0144 0
5.1376e-15 1.0144 0
-3.63183e-15 1.0131 0
-2.26718e-15 1.0131 0
5.1376e-15 1.0144 0
1.36327e-15 1.0144 0
-1.0112e-15 1.01181 0
1.16185e-15 1.01181 0
8.27801e-15 1.0131 0
7.74587e-16 1.0131 0
1.16185e-15 1.01181 0
3.22407e-15 1.01181 0
7.74587e-16 1.0131 0
-2.15106e-15 1.0131 0
-2.26718e-15 1.0131 0
4.99516e-15 1.0131 0
1.36327e-15 1.0144 0
-4.90174e-16 1.0144 0
4.99516e-15 1.0131 0
4.45247e-16 1.0131 0
-4.90174e-16 1.0144 0
2.30854e-15 1.0144 0
-2.71395e-16 1.0144 0
-5.53058e-15 1.0144 0
-3.73805e-16 1.01569 0
2.03026e-15 1.01569 0
-5.53058e-15 1.0144 0
-8.421e-16 1.0144 0
2.03026e-15 1.01569 0
2.23318e-15 1.01569 0
1.81784e-15 1.01569 0
1.46029e-15 1.01569 0
9.54884e-16 1.01701 0
1.16347e-15 1.01701 0
1.46029e-15 1.01569 0
-4.32937e-15 1.01569 0
1.16347e-15 1.01701 0
5.13946e-15 1.01701 0
-8.421e-16 1.0144 0
-1.65484e-15 1.0144 0
2.23318e-15 1.01569 0
2.78752e-15 1.01569 0
-1.65484e-15 1.0144 0
-3.58103e-15 1.0144 0
2.78752e-15 1.01569 0
6.74702e-15 1.01569 0
-4.32937e-15 1.01569 0
-3.85954e-15 1.01569 0
5.13946e-15 1.01701 0
1.8535e-15 1.01701 0
-3.85954e-15 1.01569 0
2.88266e-15 1.01569 0
1.8535e-15 1.01701 0
-1.16405e-16 1.01701 0
-1.34067e-15 1.01701 0
-5.65713e-15 1.01701 0
2.92138e-16 1.01834 0
3.51601e-15 1.01834 0
-5.65713e-15 1.01701 0
-4.93207e-15 1.01701 0
3.51601e-15 1.01834 0
1.68233e-15 1.01834 0
-2.2357e-15 1.01834 0
5.54138e-16 1.01834 0
2.9507e-15 1.01963 0
-3.64851e-17 1.01963 0
5.54138e-16 1.01834 0
-2.30579e-15 1.01834 0
-3.64851e-17 1.01963 0
3.07576e-15 1.01963 0
-4.93207e-15 1.01701 0
-1.80185e-15 1.01701 0
1.68233e-15 1.01834 0
1.50411e-16 1.01834 0
-1.80185e-15 1.01701 0
-3.60377e-15 1.01701 0
1.50411e-16 1.01834 0
4.41354e-15 1.01834 0
-2.30579e-15 1.01834 0
-4.4848e-15 1.01834 0
3.07576e-15 1.01963 0
1.28221e-15 1.01963 0
-4.4848e-15 1.01834 0
-4.14166e-15 1.01834 0
1.28221e-15 1.01963 0
7.934e-16 1.01963 0
-8.49576e-16 1.01963 0
-4.30242e-15 1.01963 0