# vtk DataFile Version 3.0
#This file was generated by the deal.II library on 2018/10/12 at 0:33:20
ASCII
DATASET UNSTRUCTURED_GRID

POINTS 5120 double
0 0 0
0.392699 0 0
0 0.608935 0
0.392699 0.608935 0
0.392699 0 0
0.785398 0 0
0.392699 0.608935 0
0.785398 0.608935 0
0 0.608935 0
0.392699 0.608935 0
0 1.23514 0
0.392699 1.23514 0
0.392699 0.608935 0
0.785398 0.608935 0
0.392699 1.23514 0
0.785398 1.23514 0
0.785398 0 0
1.1781 0 0
0.785398 0.608935 0
1.1781 0.608935 0
1.1781 0 0
1.5708 0 0
1.1781 0.608935 0
1.5708 0.608935 0
0.785398 0.608935 0
1.1781 0.608935 0
0.785398 1.23514 0
1.1781 1.23514 0
1.1781 0.608935 0
1.5708 0.608935 0
1.1781 1.23514 0
1.5708 1.23514 0
0 1.23514 0
0.392699 1.23514 0
0 1.86069 0
0.392699 1.86069 0
0.392699 1.23514 0
0.785398 1.23514 0
0.392699 1.86069 0
0.785398 1.86069 0
0 1.86069 0
0.392699 1.86069 0
0 2.48681 0
0.392699 2.48681 0
0.392699 1.86069 0
0.785398 1.86069 0
0.392699 2.48681 0
0.785398 2.48681 0
0.785398 1.23514 0
1.1781 1.23514 0
0.785398 1.86069 0
1.1781 1.86069 0
1.1781 1.23514 0
1.5708 1.23514 0
1.1781 1.86069 0
1.5708 1.86069 0
0.785398 1.86069 0
1.1781 1.86069 0
0.785398 2.48681 0
1.1781 2.48681 0
1.1781 1.86069 0
1.5708 1.86069 0
1.1781 2.48681 0
1.5708 2.48681 0
1.5708 0 0
1.9635 0 0
1.5708 0.608935 0
1.9635 0.608935 0
1.9635 0 0
2.35619 0 0
1.9635 0.608935 0
2.35619 0.608935 0
1.5708 0.608935 0
1.9635 0.608935 0
1.5708 1.23514 0
1.9635 1.23514 0
1.9635 0.608935 0
2.35619 0.608935 0
1.9635 1.23514 0
2.35619 1.23514 0
2.35619 0 0
2.74889 0 0
2.35619 0.608935 0
2.74889 0.608935 0
2.74889 0 0
3.14159 0 0
2.74889 0.608935 0
3.14159 0.608935 0
2.35619 0.608935 0
2.74889 0.608935 0
2.35619 1.23514 0
2.74889 1.23514 0
2.74889 0.608935 0
3.14159 0.608935 0
2.74889 1.23514 0
3.14159 1.23514 0
1.5708 1.23514 0
1.9635 1.23514 0
1.5708 1.86069 0
1.9635 1.86069 0
1.9635 1.23514 0
2.35619 1.23514 0
1.9635 1.86069 0
2.35619 1.86069 0
1.5708 1.86069 0
1.9635 1.86069 0
1.5708 2.48681 0
1.9635 2.48681 0
1.9635 1.86069 0
2.35619 1.86069 0
1.9635 2.48681 0
2.35619 2.48681 0
2.35619 1.23514 0
2.74889 1.23514 0
2.35619 1.86069 0
2.74889 1.86069 0
2.74889 1.23514 0
3.14159 1.23514 0
2.74889 1.86069 0
3.14159 1.86069 0
2.35619 1.86069 0
2.74889 1.86069 0
2.35619 2.48681 0
2.74889 2.48681 0
2.74889 1.86069 0
3.14159 1.86069 0
2.74889 2.48681 0
3.14159 2.48681 0
0 2.48681 0
0.392699 2.48681 0
0 3.11278 0
0.392699 3.11278 0
0.392699 2.48681 0
0.785398 2.48681 0
0.392699 3.11278 0
0.785398 3.11278 0
0 3.11278 0
0.392699 3.11278 0
0 3.73875 0
0.392699 3.73875 0
0.392699 3.11278 0
0.785398 3.11278 0
0.392699 3.73875 0
0.785398 3.73875 0
0.785398 2.48681 0
1.1781 2.48681 0
0.785398 3.11278 0
1.1781 3.11278 0
1.1781 2.48681 0
1.5708 2.48681 0
1.1781 3.11278 0
1.5708 3.11278 0
0.785398 3.11278 0
1.1781 3.11278 0
0.785398 3.73875 0
1.1781 3.73875 0
1.1781 3.11278 0
1.5708 3.11278 0
1.1781 3.73875 0
1.5708 3.73875 0
0 3.73875 0
0.392699 3.73875 0
0 4.36467 0
0.392699 4.36467 0
0.392699 3.73875 0
0.785398 3.73875 0
0.392699 4.36467 0
0.785398 4.36467 0
0 4.36467 0
0.392699 4.36467 0
0 4.99055 0
0.392699 4.99055 0
0.392699 4.36467 0
0.785398 4.36467 0
0.392699 4.99055 0
0.785398 4.99055 0
0.785398 3.73875 0
1.1781 3.73875 0
0.785398 4.36467 0
1.1781 4.36467 0
1.1781 3.73875 0
1.5708 3.73875 0
1.1781 4.36467 0
1.5708 4.36467 0
0.785398 4.36467 0
1.1781 4.36467 0
0.785398 4.99055 0
1.1781 4.99055 0
1.1781 4.36467 0
1.5708 4.36467 0
1.1781 4.99055 0
1.5708 4.99055 0
1.5708 2.48681 0
1.9635 2.48681 0
1.5708 3.11278 0
1.9635 3.11278 0
1.9635 2.48681 0
2.35619 2.48681 0
1.9635 3.11278 0
2.35619 3.11278 0
1.5708 3.11278 0
1.9635 3.11278 0
1.5708 3.73875 0
1.9635 3.73875 0
1.9635 3.11278 0
2.35619 3.11278 0
1.9635 3.73875 0
2.35619 3.73875 0
2.35619 2.48681 0
2.74889 2.48681 0
2.35619 3.11278 0
2.74889 3.11278 0
2.74889 2.48681 0
3.14159 2.48681 0
2.74889 3.11278 0
3.14159 3.11278 0
2.35619 3.11278 0
2.74889 3.11278 0
2.35619 3.73875 0
2.74889 3.73875 0
2.74889 3.11278 0
3.14159 3.11278 0
2.74889 3.73875 0
3.14159 3.73875 0
1.5708 3.73875 0
1.9635 3.73875 0
1.5708 4.36467 0
1.9635 4.36467 0
1.9635 3.73875 0
2.35619 3.73875 0
1.9635 4.36467 0
2.35619 4.36467 0
1.5708 4.36467 0
1.9635 4.36467 0
1.5708 4.99055 0
1.9635 4.99055 0
1.9635 4.36467 0
2.35619 4.36467 0
1.9635 4.99055 0
2.35619 4.99055 0
2.35619 3.73875 0
2.74889 3.73875 0
2.35619 4.36467 0
2.74889 4.36467 0
2.74889 3.73875 0
3.14159 3.73875 0
2.74889 4.36467 0
3.14159 4.36467 0
2.35619 4.36467 0
2.74889 4.36467 0
2.35619 4.99055 0
2.74889 4.99055 0
2.74889 4.36467 0
3.14159 4.36467 0
2.74889 4.99055 0
3.14159 4.99055 0
3.14159 0 0
3.53429 0 0
3.14159 0.608935 0
3.53429 0.608935 0
3.53429 0 0
3.92699 0 0
3.53429 0.608935 0
3.92699 0.608935 0
3.14159 0.608935 0
3.53429 0.608935 0
3.14159 1.23514 0
3.53429 1.23514 0
3.53429 0.608935 0
3.92699 0.608935 0
3.53429 1.23514 0
3.92699 1.23514 0
3.92699 0 0
4.31969 0 0
3.92699 0.608935 0
4.31969 0.608935 0
4.31969 0 0
4.71239 0 0
4.31969 0.608935 0
4.71239 0.608935 0
3.92699 0.608935 0
4.31969 0.608935 0
3.92699 1.23514 0
4.31969 1.23514 0
4.31969 0.608935 0
4.71239 0.608935 0
4.31969 1.23514 0
4.71239 1.23514 0
3.14159 1.23514 0
3.53429 1.23514 0
3.14159 1.86069 0
3.53429 1.86069 0
3.53429 1.23514 0
3.92699 1.23514 0
3.53429 1.86069 0
3.92699 1.86069 0
3.14159 1.86069 0
3.53429 1.86069 0
3.14159 2.48681 0
3.53429 2.48681 0
3.53429 1.86069 0
3.92699 1.86069 0
3.53429 2.48681 0
3.92699 2.48681 0
3.92699 1.23514 0
4.31969 1.23514 0
3.92699 1.86069 0
4.31969 1.86069 0
4.31969 1.23514 0
4.71239 1.23514 0
4.31969 1.86069 0
4.71239 1.86069 0
3.92699 1.86069 0
4.31969 1.86069 0
3.92699 2.48681 0
4.31969 2.48681 0
4.31969 1.86069 0
4.71239 1.86069 0
4.31969 2.48681 0
4.71239 2.48681 0
4.71239 0 0
5.10509 0 0
4.71239 0.608935 0
5.10509 0.608935 0
5.10509 0 0
5.49779 0 0
5.10509 0.608935 0
5.49779 0.608935 0
4.71239 0.608935 0
5.10509 0.608935 0
4.71239 1.23514 0
5.10509 1.23514 0
5.10509 0.608935 0
5.49779 0.608935 0
5.10509 1.23514 0
5.49779 1.23514 0
5.49779 0 0
5.89049 0 0
5.49779 0.608935 0
5.89049 0.608935 0
5.89049 0 0
6.28319 0 0
5.89049 0.608935 0
6.28319 0.608935 0
5.49779 0.608935 0
5.89049 0.608935 0
5.49779 1.23514 0
5.89049 1.23514 0
5.89049 0.608935 0
6.28319 0.608935 0
5.89049 1.23514 0
6.28319 1.23514 0
4.71239 1.23514 0
5.10509 1.23514 0
4.71239 1.86069 0
5.10509 1.86069 0
5.10509 1.23514 0
5.49779 1.23514 0
5.10509 1.86069 0
5.49779 1.86069 0
4.71239 1.86069 0
5.10509 1.86069 0
4.71239 2.48681 0
5.10509 2.48681 0
5.10509 1.86069 0
5.49779 1.86069 0
5.10509 2.48681 0
5.49779 2.48681 0
5.49779 1.23514 0
5.89049 1.23514 0
5.49779 1.86069 0
5.89049 1.86069 0
5.89049 1.23514 0
6.28319 1.23514 0
5.89049 1.86069 0
6.28319 1.86069 0
5.49779 1.86069 0
5.89049 1.86069 0
5.49779 2.48681 0
5.89049 2.48681 0
5.89049 1.86069 0
6.28319 1.86069 0
5.89049 2.48681 0
6.28319 2.48681 0
3.14159 2.48681 0
3.53429 2.48681 0
3.14159 3.11278 0
3.53429 3.11278 0
3.53429 2.48681 0
3.92699 2.48681 0
3.53429 3.11278 0
3.92699 3.11278 0
3.14159 3.11278 0
3.53429 3.11278 0
3.14159 3.73875 0
3.53429 3.73875 0
3.53429 3.11278 0
3.92699 3.11278 0
3.53429 3.73875 0
3.92699 3.73875 0
3.92699 2.48681 0
4.31969 2.48681 0
3.92699 3.11278 0
4.31969 3.11278 0
4.31969 2.48681 0
4.71239 2.48681 0
4.31969 3.11278 0
4.71239 3.11278 0
3.92699 3.11278 0
4.31969 3.11278 0
3.92699 3.73875 0
4.31969 3.73875 0
4.31969 3.11278 0
4.71239 3.11278 0
4.31969 3.73875 0
4.71239 3.73875 0
3.14159 3.73875 0
3.53429 3.73875 0
3.14159 4.36467 0
3.53429 4.36467 0
3.53429 3.73875 0
3.92699 3.73875 0
3.53429 4.36467 0
3.92699 4.36467 0
3.14159 4.36467 0
3.53429 4.36467 0
3.14159 4.99055 0
3.53429 4.99055 0
3.53429 4.36467 0
3.92699 4.36467 0
3.53429 4.99055 0
3.92699 4.99055 0
3.92699 3.73875 0
4.31969 3.73875 0
3.92699 4.36467 0
4.31969 4.36467 0
4.31969 3.73875 0
4.71239 3.73875 0
4.31969 4.36467 0
4.71239 4.36467 0
3.92699 4.36467 0
4.31969 4.36467 0
3.92699 4.99055 0
4.31969 4.99055 0
4.31969 4.36467 0
4.71239 4.36467 0
4.31969 4.99055 0
4.71239 4.99055 0
4.71239 2.48681 0
5.10509 2.48681 0
4.71239 3.11278 0
5.10509 3.11278 0
5.10509 2.48681 0
5.49779 2.48681 0
5.10509 3.11278 0
5.49779 3.11278 0
4.71239 3.11278 0
5.10509 3.11278 0
4.71239 3.73875 0
5.10509 3.73875 0
5.10509 3.11278 0
5.49779 3.11278 0
5.10509 3.73875 0
5.49779 3.73875 0
5.49779 2.48681 0
5.89049 2.48681 0
5.49779 3.11278 0
5.89049 3.11278 0
5.89049 2.48681 0
6.28319 2.48681 0
5.89049 3.11278 0
6.28319 3.11278 0
5.49779 3.11278 0
5.89049 3.11278 0
5.49779 3.73875 0
5.89049 3.73875 0
5.89049 3.11278 0
6.28319 3.11278 0
5.89049 3.73875 0
6.28319 3.73875 0
4.71239 3.73875 0
5.10509 3.73875 0
4.71239 4.36467 0
5.10509 4.36467 0
5.10509 3.73875 0
5.49779 3.73875 0
5.10509 4.36467 0
5.49779 4.36467 0
4.71239 4.36467 0
5.10509 4.36467 0
4.71239 4.99055 0
5.10509 4.99055 0
5.10509 4.36467 0
5.49779 4.36467 0
5.10509 4.99055 0
5.49779 4.99055 0
5.49779 3.73875 0
5.89049 3.73875 0
5.49779 4.36467 0
5.89049 4.36467 0
5.89049 3.73875 0
6.28319 3.73875 0
5.89049 4.36467 0
6.28319 4.36467 0
5.49779 4.36467 0
5.89049 4.36467 0
5.49779 4.99055 0
5.89049 4.99055 0
5.89049 4.36467 0
6.28319 4.36467 0
5.89049 4.99055 0
6.28319 4.99055 0
0 4.99055 0
0.392699 4.99055 0
0 5.61638 0
0.392699 5.61638 0
0.392699 4.99055 0
0.785398 4.99055 0
0.392699 5.61638 0
0.785398 5.61638 0
0 5.61638 0
0.392699 5.61638 0
0 6.24215 0
0.392699 6.24215 0
0.392699 5.61638 0
0.785398 5.61638 0
0.392699 6.24215 0
0.785398 6.24215 0
0.785398 4.99055 0
1.1781 4.99055 0
0.785398 5.61638 0
1.1781 5.61638 0
1.1781 4.99055 0
1.5708 4.99055 0
1.1781 5.61638 0
1.5708 5.61638 0
0.785398 5.61638 0
1.1781 5.61638 0
0.785398 6.24215 0
1.1781 6.24215 0
1.1781 5.61638 0
1.5708 5.61638 0
1.1781 6.24215 0
1.5708 6.24215 0
0 6.24215 0
0.392699 6.24215 0
0 6.86789 0
0.392699 6.86789 0
0.392699 6.24215 0
0.785398 6.24215 0
0.392699 6.86789 0
0.785398 6.86789 0
0 6.86789 0
0.392699 6.86789 0
0 7.49364 0
0.392699 7.49364 0
0.392699 6.86789 0
0.785398 6.86789 0
0.392699 7.49364 0
0.785398 7.49364 0
0.785398 6.24215 0
1.1781 6.24215 0
0.785398 6.86789 0
[...]
POINT_DATA 5120
VECTORS uf double
0 1 0
-4.73204e-14 1 0
0 1.00231 0
-5.47543e-14 1.00231 0
-4.73204e-14 1 0
-6.37822e-15 1 0
-5.47543e-14 1.00231 0
-9.08877e-15 1.00231 0
0 1.00231 0
8.66706e-15 1.00231 0
0 1.00349 0
1.26867e-14 1.00349 0
8.66706e-15 1.00231 0
1.90878e-14 1.00231 0
1.26867e-14 1.00349 0
1.70784e-14 1.00349 0
-6.37822e-15 1 0
9.16055e-14 1 0
-9.08877e-15 1.00231 0
9.85707e-14 1.00231 0
9.16055e-14 1 0
2.23904e-14 1 0
9.85707e-14 1.00231 0
2.66294e-14 1.00231 0
1.90878e-14 1.00231 0
-9.76249e-14 1.00231 0
1.70784e-14 1.00349 0
-8.59844e-14 1.00349 0
-9.76249e-14 1.00231 0
-2.86403e-14 1.00231 0
-8.59844e-14 1.00349 0
-1.80746e-14 1.00349 0
0 1.00349 0
1.81526e-14 1.00349 0
0 1.00493 0
1.35849e-14 1.00493 0
1.81526e-14 1.00349 0
-2.34656e-14 1.00349 0
1.35849e-14 1.00493 0
-1.43728e-14 1.00493 0
0 1.00493 0
3.20579e-14 1.00493 0
0 1.00626 0
3.46717e-14 1.00626 0
3.20579e-14 1.00493 0
6.3558e-14 1.00493 0
3.46717e-14 1.00626 0
6.02443e-14 1.00626 0
-2.34656e-14 1.00349 0
-7.37867e-15 1.00349 0
-1.43728e-14 1.00493 0
2.04576e-15 1.00493 0
-7.37867e-15 1.00349 0
-5.24901e-15 1.00349 0
2.04576e-15 1.00493 0
6.29868e-15 1.00493 0
6.3558e-14 1.00493 0
5.74868e-15 1.00493 0
6.02443e-14 1.00626 0
7.66232e-15 1.00626 0
5.74868e-15 1.00493 0
-2.56946e-14 1.00493 0
7.66232e-15 1.00626 0
-1.23406e-14 1.00626 0
2.23904e-14 1 0
-2.78275e-14 1 0
2.66294e-14 1.00231 0
-9.31402e-16 1.00231 0
-2.78275e-14 1 0
-6.70313e-15 1 0
-9.31402e-16 1.00231 0
4.67972e-15 1.00231 0
-2.86403e-14 1.00231 0
1.46432e-14 1.00231 0
-1.80746e-14 1.00349 0
2.2971e-14 1.00349 0
1.46432e-14 1.00231 0
-4.67321e-15 1.00231 0
2.2971e-14 1.00349 0
9.51467e-15 1.00349 0
-6.70313e-15 1 0
2.02179e-15 1 0
4.67972e-15 1.00231 0
6.51337e-16 1.00231 0
2.02179e-15 1 0
2.25358e-17 1 0
6.51337e-16 1.00231 0
2.04226e-16 1.00231 0
-4.67321e-15 1.00231 0
-6.77268e-15 1.00231 0
9.51467e-15 1.00349 0
2.1593e-15 1.00349 0
-6.77268e-15 1.00231 0
2.63845e-16 1.00231 0
2.1593e-15 1.00349 0
3.21191e-17 1.00349 0
-5.24901e-15 1.00349 0
5.70562e-15 1.00349 0
6.29868e-15 1.00493 0
3.00745e-14 1.00493 0
5.70562e-15 1.00349 0
-4.06985e-15 1.00349 0
3.00745e-14 1.00493 0
6.68165e-15 1.00493 0
-2.56946e-14 1.00493 0
-9.67825e-15 1.00493 0
-1.23406e-14 1.00626 0
7.06265e-15 1.00626 0
-9.67825e-15 1.00493 0
-4.73228e-15 1.00493 0
7.06265e-15 1.00626 0
7.77632e-15 1.00626 0
-4.06985e-15 1.00349 0
5.6963e-15 1.00349 0
6.68165e-15 1.00493 0
6.81078e-15 1.00493 0
5.6963e-15 1.00349 0
5.36232e-15 1.00349 0
6.81078e-15 1.00493 0
9.57938e-15 1.00493 0
-4.73228e-15 1.00493 0
-6.74861e-15 1.00493 0
7.77632e-15 1.00626 0
6.09106e-15 1.00626 0
-6.74861e-15 1.00493 0
-7.37967e-15 1.00493 0
6.09106e-15 1.00626 0
5.21061e-15 1.00626 0
0 1.00626 0
-2.91789e-14 1.00626 0
0 1.0076 0
-3.28231e-14 1.0076 0
-2.91789e-14 1.00626 0
-6.95679e-14 1.00626 0
-3.28231e-14 1.0076 0
-6.02407e-14 1.0076 0
0 1.0076 0
2.02835e-14 1.0076 0
0 1.0089 0
1.74676e-14 1.0089 0
2.02835e-14 1.0076 0
8.14218e-14 1.0076 0
1.74676e-14 1.0089 0
8.7757e-14 1.0089 0
-6.95679e-14 1.00626 0
-1.24535e-14 1.00626 0
-6.02407e-14 1.0076 0
3.72543e-15 1.0076 0
-1.24535e-14 1.00626 0
4.99036e-14 1.00626 0
3.72543e-15 1.0076 0
4.75771e-14 1.0076 0
8.14218e-14 1.0076 0
7.38686e-15 1.0076 0
8.7757e-14 1.0089 0
1.68138e-14 1.0089 0
7.38686e-15 1.0076 0
-5.69638e-14 1.0076 0
1.68138e-14 1.0089 0
-5.02949e-14 1.0089 0
0 1.0089 0
1.31232e-14 1.0089 0
0 1.01019 0
1.21336e-14 1.01019 0
1.31232e-14 1.0089 0
-1.42831e-13 1.0089 0
1.21336e-14 1.01019 0
-1.45043e-13 1.01019 0
0 1.01019 0
-5.03009e-15 1.01019 0
0 1.01146 0
-9.11666e-15 1.01146 0
-5.03009e-15 1.01019 0
1.16596e-13 1.01019 0
-9.11666e-15 1.01146 0
1.22227e-13 1.01146 0
-1.42831e-13 1.0089 0
-1.01114e-14 1.0089 0
-1.45043e-13 1.01019 0
-8.2532e-15 1.01019 0
-1.01114e-14 1.0089 0
8.68818e-14 1.0089 0
-8.2532e-15 1.01019 0
9.0755e-14 1.01019 0
1.16596e-13 1.01019 0
1.13982e-14 1.01019 0
1.22227e-13 1.01146 0
6.03996e-15 1.01146 0
1.13982e-14 1.01019 0
-1.20734e-13 1.01019 0
6.03996e-15 1.01146 0
-1.16106e-13 1.01146 0
4.99036e-14 1.00626 0
-2.90579e-14 1.00626 0
4.75771e-14 1.0076 0
-4.83487e-15 1.0076 0
-2.90579e-14 1.00626 0
-1.12407e-14 1.00626 0
-4.83487e-15 1.0076 0
3.41543e-15 1.0076 0
-5.69638e-14 1.0076 0
3.82056e-15 1.0076 0
-5.02949e-14 1.0089 0
1.0169e-14 1.0089 0
3.82056e-15 1.0076 0
-6.29908e-16 1.0076 0
1.0169e-14 1.0089 0
4.57283e-15 1.0089 0
-1.12407e-14 1.00626 0
-7.62104e-15 1.00626 0
3.41543e-15 1.0076 0
1.89601e-15 1.0076 0
-7.62104e-15 1.00626 0
-1.22831e-14 1.00626 0
1.89601e-15 1.0076 0
1.00397e-14 1.0076 0
-6.29908e-16 1.0076 0
3.60123e-15 1.0076 0
4.57283e-15 1.0089 0
1.24308e-15 1.0089 0
3.60123e-15 1.0076 0
2.26741e-15 1.0076 0
1.24308e-15 1.0089 0
6.14621e-15 1.0089 0
8.68818e-14 1.0089 0
-1.01323e-14 1.0089 0
9.0755e-14 1.01019 0
-3.70003e-15 1.01019 0
-1.01323e-14 1.0089 0
-2.1653e-15 1.0089 0
-3.70003e-15 1.01019 0
8.83872e-16 1.01019 0
-1.20734e-13 1.01019 0
-1.30428e-14 1.01019 0
-1.16106e-13 1.01146 0
-1.45193e-14 1.01146 0
-1.30428e-14 1.01019 0
-1.62398e-15 1.01019 0
-1.45193e-14 1.01146 0
4.28294e-15 1.01146 0
-2.1653e-15 1.0089 0
9.56804e-16 1.0089 0
8.83872e-16 1.01019 0
3.94963e-15 1.01019 0
9.56804e-16 1.0089 0
-3.78702e-15 1.0089 0
3.94963e-15 1.01019 0
6.68365e-15 1.01019 0
-1.62398e-15 1.01019 0
-4.63767e-15 1.01019 0
4.28294e-15 1.01146 0
4.09539e-15 1.01146 0
-4.63767e-15 1.01019 0
-6.84468e-15 1.01019 0
4.09539e-15 1.01146 0
5.8828e-15 1.01146 0
2.25358e-17 1 0
-4.91448e-15 1 0
2.04226e-16 1.00231 0
1.14175e-14 1.00231 0
-4.91448e-15 1 0
7.81124e-15 1 0
1.14175e-14 1.00231 0
1.81672e-15 1.00231 0
2.63845e-16 1.00231 0
-2.19794e-16 1.00231 0
3.21191e-17 1.00349 0
4.80468e-15 1.00349 0
-2.19794e-16 1.00231 0
-3.55364e-15 1.00231 0
4.80468e-15 1.00349 0
3.62747e-16 1.00349 0
7.81124e-15 1 0
6.93233e-15 1 0
1.81672e-15 1.00231 0
4.05528e-15 1.00231 0
6.93233e-15 1 0
-1.15245e-15 1 0
4.05528e-15 1.00231 0
7.61756e-15 1.00231 0
-3.55364e-15 1.00231 0
-9.44677e-15 1.00231 0
3.62747e-16 1.00349 0
9.17978e-15 1.00349 0
-9.44677e-15 1.00231 0
-5.60331e-16 1.00231 0
9.17978e-15 1.00349 0
5.28879e-15 1.00349 0
5.36232e-15 1.00349 0
-4.73608e-15 1.00349 0
9.57938e-15 1.00493 0
1.25554e-14 1.00493 0
-4.73608e-15 1.00349 0
5.73782e-15 1.00349 0
1.25554e-14 1.00493 0
9.64695e-15 1.00493 0
-7.37967e-15 1.00493 0
-3.75633e-15 1.00493 0
5.21061e-15 1.00626 0
6.17633e-15 1.00626 0
-3.75633e-15 1.00493 0
-3.20174e-15 1.00493 0
6.17633e-15 1.00626 0
4.05756e-15 1.00626 0
5.73782e-15 1.00349 0
7.93998e-15 1.00349 0
9.64695e-15 1.00493 0
5.89532e-15 1.00493 0
7.93998e-15 1.00349 0
-2.12693e-15 1.00349 0
5.89532e-15 1.00493 0
1.04481e-14 1.00493 0
-3.20174e-15 1.00493 0
-1.24675e-14 1.00493 0
4.05756e-15 1.00626 0
7.71967e-15 1.00626 0
-1.24675e-14 1.00493 0
4.31137e-16 1.00493 0
7.71967e-15 1.00626 0
8.30742e-15 1.00626 0
-1.15245e-15 1 0
-1.26582e-15 1 0
7.61756e-15 1.00231 0
1.38832e-14 1.00231 0
-1.26582e-15 1 0
8.26958e-16 1 0
1.38832e-14 1.00231 0
1.15278e-14 1.00231 0
-5.60331e-16 1.00231 0
-5.35274e-15 1.00231 0
5.28879e-15 1.00349 0
5.40539e-15 1.00349 0
-5.35274e-15 1.00231 0
-9.84499e-15 1.00231 0
5.40539e-15 1.00349 0
1.23809e-14 1.00349 0
8.26958e-16 1 0
-6.24266e-17 1 0
1.15278e-14 1.00231 0
9.97081e-15 1.00231 0
-6.24266e-17 1 0
8.67311e-15 1 0
9.97081e-15 1.00231 0
-2.70447e-15 1.00231 0
-9.84499e-15 1.00231 0
2.17989e-15 1.00231 0
1.23809e-14 1.00349 0
1.54432e-15 1.00349 0
2.17989e-15 1.00231 0
6.25971e-15 1.00231 0
1.54432e-15 1.00349 0
5.9919e-15 1.00349 0
-2.12693e-15 1.00349 0
-9.02872e-15 1.00349 0
1.04481e-14 1.00493 0
1.28709e-14 1.00493 0
-9.02872e-15 1.00349 0
6.31546e-15 1.00349 0
1.28709e-14 1.00493 0
4.62389e-15 1.00493 0
4.31137e-16 1.00493 0
2.2894e-15 1.00493 0
8.30742e-15 1.00626 0
4.58738e-15 1.00626 0
2.2894e-15 1.00493 0
-1.39818e-15 1.00493 0
4.58738e-15 1.00626 0
2.74697e-15 1.00626 0
6.31546e-15 1.00349 0
-1.78149e-15 1.00349 0
4.62389e-15 1.00493 0
1.261e-14 1.00493 0
-1.78149e-15 1.00349 0
-1.05902e-14 1.00349 0
1.261e-14 1.00493 0
1.37046e-14 1.00493 0
-1.39818e-15 1.00493 0
-7.60025e-16 1.00493 0
2.74697e-15 1.00626 0
1.15221e-14 1.00626 0
-7.60025e-16 1.00493 0
1.27264e-18 1.00493 0
1.15221e-14 1.00626 0
4.68022e-15 1.00626 0
-1.22831e-14 1.00626 0
-6.06926e-15 1.00626 0
1.00397e-14 1.0076 0
9.11512e-15 1.0076 0
-6.06926e-15 1.00626 0
-1.06397e-14 1.00626 0
9.11512e-15 1.0076 0
1.06395e-14 1.0076 0
2.26741e-15 1.0076 0
-1.42695e-14 1.0076 0
6.14621e-15 1.0089 0
5.80711e-15 1.0089 0
-1.42695e-14 1.0076 0
-4.57203e-16 1.0076 0
5.80711e-15 1.0089 0
2.01242e-15 1.0089 0
-1.06397e-14 1.00626 0
-1.72e-15 1.00626 0
1.06395e-14 1.0076 0
5.57888e-15 1.0076 0
-1.72e-15 1.00626 0
-1.22192e-14 1.00626 0
5.57888e-15 1.0076 0
9.36929e-15 1.0076 0
-4.57203e-16 1.0076 0
-1.57035e-16 1.0076 0
2.01242e-15 1.0089 0
2.60377e-15 1.0089 0
-1.57035e-16 1.0076 0
-1.92966e-15 1.0076 0
2.60377e-15 1.0089 0
7.14911e-15 1.0089 0
-3.78702e-15 1.0089 0
1.28117e-15 1.0089 0
6.68365e-15 1.01019 0
8.494e-15 1.01019 0
1.28117e-15 1.0089 0
-1.72006e-15 1.0089 0
8.494e-15 1.01019 0
7.26215e-15 1.01019 0
-6.84468e-15 1.01019 0
-2.11822e-15 1.01019 0
5.8828e-15 1.01146 0
7.05017e-15 1.01146 0
-2.11822e-15 1.01019 0
8.28138e-16 1.01019 0
7.05017e-15 1.01146 0
7.40277e-15 1.01146 0
-1.72006e-15 1.0089 0
-6.46279e-15 1.0089 0
7.26215e-15 1.01019 0
8.12889e-15 1.01019 0
-6.46279e-15 1.0089 0
-4.09772e-15 1.0089 0
8.12889e-15 1.01019 0
6.6399e-15 1.01019 0
8.28138e-16 1.01019 0
4.54122e-15 1.01019 0
7.40277e-15 1.01146 0
-1.1992e-15 1.01146 0
4.54122e-15 1.01019 0
-5.00134e-15 1.01019 0
-1.1992e-15 1.01146 0
7.96246e-15 1.01146 0
-1.22192e-14 1.00626 0
-2.44128e-15 1.00626 0
9.36929e-15 1.0076 0
1.66191e-15 1.0076 0
-2.44128e-15 1.00626 0
-3.56975e-16 1.00626 0
1.66191e-15 1.0076 0
4.94504e-15 1.0076 0
-1.92966e-15 1.0076 0
-3.5947e-16 1.0076 0
7.14911e-15 1.0089 0
3.13628e-15 1.0089 0
-3.5947e-16 1.0076 0
2.7072e-15 1.0076 0
3.13628e-15 1.0089 0
-1.70284e-15 1.0089 0
-3.56975e-16 1.00626 0
-1.82974e-15 1.00626 0
4.94504e-15 1.0076 0
3.73678e-15 1.0076 0
-1.82974e-15 1.00626 0
-5.84812e-16 1.00626 0
3.73678e-15 1.0076 0
8.85749e-15 1.0076 0
2.7072e-15 1.0076 0
-5.21733e-15 1.0076 0
-1.70284e-15 1.0089 0
9.92712e-15 1.0089 0
-5.21733e-15 1.0076 0
-2.84934e-15 1.0076 0
9.92712e-15 1.0089 0
7.25684e-15 1.0089 0
-4.09772e-15 1.0089 0
3.04286e-15 1.0089 0
6.6399e-15 1.01019 0
-2.36887e-16 1.01019 0
3.04286e-15 1.0089 0
-3.83127e-15 1.0089 0
-2.36887e-16 1.01019 0
5.6024e-15 1.01019 0
-5.00134e-15 1.01019 0
1.47392e-16 1.01019 0
7.96246e-15 1.01146 0
4.42712e-15 1.01146 0
1.47392e-16 1.01019 0
-3.17183e-15 1.01019 0
4.42712e-15 1.01146 0
7.04769e-15 1.01146 0
-3.83127e-15 1.0089 0
-3.05575e-15 1.0089 0
5.6024e-15 1.01019 0
4.11316e-15 1.01019 0
-3.05575e-15 1.0089 0
-3.15682e-15 1.0089 0
4.11316e-15 1.01019 0
1.67477e-15 1.01019 0
-3.17183e-15 1.01019 0
-1.04758e-15 1.01019 0
7.04769e-15 1.01146 0
-1.30907e-15 1.01146 0
-1.04758e-15 1.01019 0
4.14635e-15 1.01019 0
-1.30907e-15 1.01146 0
-5.80627e-15 1.01146 0
0 1.01146 0
-8.48624e-15 1.01146 0
0 1.01272 0
1.35283e-15 1.01272 0
-8.48624e-15 1.01146 0
-8.12828e-14 1.01146 0
1.35283e-15 1.01272 0
-7.53441e-14 1.01272 0
0 1.01272 0
9.82145e-15 1.01272 0
0 1.01398 0
1.11361e-14 1.01398 0
9.82145e-15 1.01272 0
5.76907e-14 1.01272 0
1.11361e-14 1.01398 0
5.63098e-14 1.01398 0
-8.12828e-14 1.01146 0
1.01084e-14 1.01146 0
-7.53441e-14 1.01272 0
5.79113e-15 1.01272 0
1.01084e-14 1.01146 0
7.83691e-14 1.01146 0
5.79113e-15 1.01272 0
7.77977e-14 1.01272 0
5.76907e-14 1.01272 0
-2.77063e-14 1.01272 0
5.63098e-14 1.01398 0
-2.18437e-14 1.01398 0
-2.77063e-14 1.01272 0
-1.69742e-14 1.01272 0
-2.18437e-14 1.01398 0
-1.26563e-14 1.01398 0
0 1.01398 0
-1.80965e-14 1.01398 0
0 1.01524 0
-1.5344e-14 1.01524 0
-1.80965e-14 1.01398 0
-3.74049e-14 1.01398 0
-1.5344e-14 1.01524 0
-2.61297e-14 1.01524 0
0 1.01524 0
2.99111e-15 1.01524 0
0 1.01653 0
7.68894e-15 1.01653 0
2.99111e-15 1.01524 0
1.7324e-14 1.01524 0
7.68894e-15 1.01653 0
2.08152e-14 1.01653 0
-3.74049e-14 1.01398 0
9.47872e-15 1.01398 0
-2.61297e-14 1.01524 0
1.0627e-14 1.01524 0
9.47872e-15 1.01398 0
-1.36228e-15 1.01398 0
1.0627e-14 1.01524 0
1.26612e-14 1.01524 0
1.7324e-14 1.01524 0
-5.92114e-15 1.01524 0
2.08152e-14 1.01653 0
7.35966e-16 1.01653 0
-5.92114e-15 1.01524 0
-6.54544e-15 1.01524 0
7.35966e-16 1.01653 0
-1.99368e-15 1.01653 0
7.83691e-14 1.01146 0
-1.01724e-14 1.01146 0
7.77977e-14 1.01272 0
-2.9661e-15 1.01272 0
-1.01724e-14 1.01146 0
-3.04089e-15 1.01146 0
-2.9661e-15 1.01272 0
-1.01653e-15 1.01272 0
-1.69742e-14 1.01272 0
2.04152e-14 1.01272 0
-1.26563e-14 1.01398 0
2.91573e-14 1.01398 0
2.04152e-14 1.01272 0
-1.6999e-16 1.01272 0
2.91573e-14 1.01398 0
4.41062e-15 1.01398 0
-3.04089e-15 1.01146 0
-2.49812e-15 1.01146 0
-1.01653e-15 1.01272 0
3.70867e-15 1.01272 0
-2.49812e-15 1.01146 0
-3.83384e-15 1.01146 0
3.70867e-15 1.01272 0
4.82212e-15 1.01272 0
-1.6999e-16 1.01272 0
-5.18507e-15 1.01272 0
4.41062e-15 1.01398 0
8.21983e-15 1.01398 0
-5.18507e-15 1.01272 0
-3.30612e-15 1.01272 0
8.21983e-15 1.01398 0
8.67915e-15 1.01398 0
-1.36228e-15 1.01398 0
-9.10001e-15 1.01398 0
1.26612e-14 1.01524 0
-1.95548e-17 1.01524 0
-9.10001e-15 1.01398 0
-4.17977e-15 1.01398 0
-1.95548e-17 1.01524 0
6.05957e-15 1.01524 0
-6.54544e-15 1.01524 0
-5.11251e-15 1.01524 0
-1.99368e-15 1.01653 0
-1.46717e-15 1.01653 0
-5.11251e-15 1.01524 0
-5.00734e-15 1.01524 0
-1.46717e-15 1.01653 0
3.47668e-15 1.01653 0
-4.17977e-15 1.01398 0
-5.04982e-15 1.01398 0
6.05957e-15 1.01524 0
5.60416e-15 1.01524 0
-5.04982e-15 1.01398 0
-9.08971e-15 1.01398 0
5.60416e-15 1.01524 0
7.40361e-15 1.01524 0
-5.00734e-15 1.01524 0
-5.27437e-15 1.01524 0
3.47668e-15 1.01653 0
6.04604e-15 1.01653 0
-5.27437e-15 1.01524 0
-5.63423e-15 1.01524 0
6.04604e-15 1.01653 0
5.02844e-15 1.01653 0
0 1.01653 0
1.03326e-14 1.01653 0
0 1.01782 0
6.4238e-15 1.01782 0
1.03326e-14 1.01653 0
-2.643e-14 1.01653 0
6.4238e-15 1.01782 0
-2.38827e-14 1.01782 0
0 1.01782 0
-1.72739e-14 1.01782 0
0 1.01909 0
-1.15103e-14 1.01909 0
-1.72739e-14 1.01782 0
2.39586e-14 1.01782 0
-1.15103e-14 1.01909 0
2.57015e-14 1.01909 0
-2.643e-14 1.01653 0
-5.36225e-15 1.01653 0
-2.38827e-14 1.01782 0
-2.28011e-15 1.01782 0
-5.36225e-15 1.01653 0
-1.19631e-14 1.01653 0
-2.28011e-15 1.01782 0
-2.82352e-15 1.01782 0
2.39586e-14 1.01782 0
4.08057e-15 1.01782 0
2.57015e-14 1.01909 0
6.78779e-15 1.01909 0
4.08057e-15 1.01782 0
-1.61497e-15 1.01782 0
6.78779e-15 1.01909 0
3.24057e-15 1.01909 0
0 1.01909 0
1.16682e-14 1.01909 0
0 1.02019 0
9.90302e-15 1.02019 0
1.16682e-14 1.01909 0
-1.5168e-14 1.01909 0
9.90302e-15 1.02019 0
-1.20914e-14 1.02019 0
0 1.02019 0
-7.85475e-16 1.02019 0
0 1.02064 0
-9.21016e-15 1.02064 0
-7.85475e-16 1.02019 0
2.74088e-15 1.02019 0
-9.21016e-15 1.02064 0
1.36544e-14 1.02064 0
-1.5168e-14 1.01909 0
4.59618e-16 1.01909 0
-1.20914e-14 1.02019 0
1.79325e-15 1.02019 0
4.59618e-16 1.01909 0
1.88829e-15 1.01909 0
1.79325e-15 1.02019 0
1.92574e-15 1.02019 0
2.74088e-15 1.02019 0
-4.36334e-15 1.02019 0
1.36544e-14 1.02064 0
-7.58339e-15 1.02064 0
-4.36334e-15 1.02019 0
-8.83705e-16 1.02019 0
-7.58339e-15 1.02064 0
7.78456e-15 1.02064 0
-1.19631e-14 1.01653 0
-3.70371e-15 1.01653 0
-2.82352e-15 1.01782 0
6.16334e-15 1.01782 0
-3.70371e-15 1.01653 0
1.12897e-15 1.01653 0
6.16334e-15 1.01782 0
1.17865e-15 1.01782 0
-1.61497e-15 1.01782 0
-7.31344e-15 1.01782 0
3.24057e-15 1.01909 0
-2.41068e-15 1.01909 0
-7.31344e-15 1.01782 0
-3.60258e-15 1.01782 0
-2.41068e-15 1.01909 0
3.08779e-15 1.01909 0
1.12897e-15 1.01653 0
-2.1334e-15 1.01653 0
1.17865e-15 1.01782 0
2.47014e-15 1.01782 0
-2.1334e-15 1.01653 0
-1.96399e-15 1.01653 0
2.47014e-15 1.01782 0
1.03822e-15 1.01782 0
-3.60258e-15 1.01782 0
-6.83556e-15 1.01782 0
3.08779e-15 1.01909 0
3.56944e-15 1.01909 0
-6.83556e-15 1.01782 0
-5.22125e-16 1.01782 0
3.56944e-15 1.01909 0
2.44617e-15 1.01909 0
1.88829e-15 1.01909 0
-1.22416e-17 1.01909 0
1.92574e-15 1.02019 0
5.43777e-15 1.02019 0
-1.22416e-17 1.01909 0
-1.63719e-15 1.01909 0
5.43777e-15 1.02019 0
8.78336e-16 1.02019 0
-8.83705e-16 1.02019 0
-4.04227e-15 1.02019 0
7.78456e-15 1.02064 0
2.46722e-15 1.02064 0
-4.04227e-15 1.02019 0
-1.22634e-15 1.02019 0
2.46722e-15 1.02064 0
1.29761e-15 1.02064 0
-1.63719e-15 1.01909 0
-2.17235e-15 1.01909 0
8.78336e-16 1.02019 0
1.07517e-15 1.02019 0
-2.17235e-15 1.01909 0
-3.04042e-15 1.01909 0
1.07517e-15 1.02019 0
4.54987e-15 1.02019 0
-1.22634e-15 1.02019 0
-2.2517e-15 1.02019 0
1.29761e-15 1.02064 0
5.53032e-15 1.02064 0
-2.2517e-15 1.02019 0
1.3019e-15 1.02019 0
5.53032e-15 1.02064 0
-1.0651e-14 1.02064 0
-3.83384e-15 1.01146 0
-4.28631e-15 1.01146 0
4.82212e-15 1.01272 0
8.85102e-15 1.01272 0
-4.28631e-15 1.01146 0
-7.38401e-15 1.01146 0
8.85102e-15 1.01272 0
-1.43862e-15 1.01272 0
-3.30612e-15 1.01272 0
-6.32491e-15 1.01272 0
8.67915e-15 1.01398 0
7.63912e-15 1.01398 0
-6.32491e-15 1.01272 0
3.17433e-15 1.01272 0
7.63912e-15 1.01398 0
5.70811e-15 1.01398 0
-7.38401e-15 1.01146 0
-3.42719e-15 1.01146 0
-1.43862e-15 1.01272 0
3.16502e-15 1.01272 0
-3.42719e-15 1.01146 0
-4.62464e-15 1.01146 0
3.16502e-15 1.01272 0
4.81849e-15 1.01272 0
3.17433e-15 1.01272 0
-3.6838e-15 1.01272 0
5.70811e-15 1.01398 0
4.77115e-15 1.01398 0
-3.6838e-15 1.01272 0
-9.56602e-16 1.01272 0
4.77115e-15 1.01398 0
3.89878e-15 1.01398 0
-9.08971e-15 1.01398 0
-5.70759e-15 1.01398 0
7.40361e-15 1.01524 0
5.84338e-15 1.01524 0
-5.70759e-15 1.01398 0
-8.87265e-15 1.01398 0
5.84338e-15 1.01524 0
6.58313e-15 1.01524 0
-5.63423e-15 1.01524 0
-4.99898e-15 1.01524 0
5.02844e-15 1.01653 0
5.21766e-15 1.01653 0
-4.99898e-15 1.01524 0
-2.71898e-15 1.01524 0
5.21766e-15 1.01653 0
-3.5618e-16 1.01653 0
-8.87265e-15 1.01398 0
-4.49515e-15 1.01398 0
6.58313e-15 1.01524 0
8.5457e-15 1.01524 0
-4.49515e-15 1.01398 0
-6.63505e-15 1.01398 0
8.5457e-15 1.01524 0
2.42963e-15 1.01524 0
-2.71898e-15 1.01524 0
-2.4763e-15 1.01524 0
-3.5618e-16 1.01653 0
1.39207e-15 1.01653 0
-2.4763e-15 1.01524 0
7.13322e-16 1.01524 0
1.39207e-15 1.01653 0
1.55601e-15 1.01653 0
-4.62464e-15 1.01146 0
-5.5426e-15 1.01146 0
4.81849e-15 1.01272 0
4.91739e-15 1.01272 0
-5.5426e-15 1.01146 0
-1.92994e-16 1.01146 0
4.91739e-15 1.01272 0
2.31121e-15 1.01272 0
-9.56602e-16 1.01272 0
-1.87225e-15 1.01272 0
3.89878e-15 1.01398 0
4.23851e-15 1.01398 0
-1.87225e-15 1.01272 0
2.42945e-15 1.01272 0
4.23851e-15 1.01398 0
3.42097e-15 1.01398 0
-1.92994e-16 1.01146 0
-1.85785e-15 1.01146 0
2.31121e-15 1.01272 0
4.66994e-15 1.01272 0
-1.85785e-15 1.01146 0
8.73161e-15 1.01146 0
4.66994e-15 1.01272 0
-4.96942e-15 1.01272 0
2.42945e-15 1.01272 0
-2.59162e-15 1.01272 0
3.42097e-15 1.01398 0
6.21212e-15 1.01398 0
-2.59162e-15 1.01272 0
1.3197e-15 1.01272 0
6.21212e-15 1.01398 0
3.00947e-15 1.01398 0
-6.63505e-15 1.01398 0
-5.28344e-15 1.01398 0
2.42963e-15 1.01524 0
3.43397e-15 1.01524 0
-5.28344e-15 1.01398 0
-1.83499e-15 1.01398 0
3.43397e-15 1.01524 0
2.92595e-15 1.01524 0
7.13322e-16 1.01524 0
-7.7872e-16 1.01524 0
1.55601e-15 1.01653 0
3.39327e-15 1.01653 0
-7.7872e-16 1.01524 0
-5.83363e-15 1.01524 0
3.39327e-15 1.01653 0
5.34128e-15 1.01653 0
-1.83499e-15 1.01398 0
-3.75624e-15 1.01398 0
2.92595e-15 1.01524 0
3.0378e-15 1.01524 0
-3.75624e-15 1.01398 0
-3.16023e-15 1.01398 0
3.0378e-15 1.01524 0
4.19808e-15 1.01524 0
-5.83363e-15 1.01524 0
1.46512e-17 1.01524 0
5.34128e-15 1.01653 0
4.06525e-16 1.01653 0
1.46512e-17 1.01524 0
6.45158e-15 1.01524 0
4.06525e-16 1.01653 0
-2.31711e-15 1.01653 0
-1.96399e-15 1.01653 0
-6.79014e-15 1.01653 0
1.03822e-15 1.01782 0
4.48537e-15 1.01782 0
-6.79014e-15 1.01653 0
-3.87069e-15 1.01653 0
4.48537e-15 1.01782 0
1.61241e-15 1.01782 0
-5.22125e-16 1.01782 0
-8.84414e-16 1.01782 0
2.44617e-15 1.01909 0
1.3371e-15 1.01909 0
-8.84414e-16 1.01782 0
-2.52881e-15 1.01782 0
1.3371e-15 1.01909 0
2.68342e-15 1.01909 0
-3.87069e-15 1.01653 0
-1.13694e-15 1.01653 0
1.61241e-15 1.01782 0
1.22043e-15 1.01782 0
-1.13694e-15 1.01653 0
-4.74449e-15 1.01653 0
1.22043e-15 1.01782 0
3.62892e-15 1.01782 0
-2.52881e-15 1.01782 0
-5.33141e-15 1.01782 0