# vtk DataFile Version 3.0
#This file was generated by the deal.II library on 2018/10/12 at 0:19:30
ASCII
DATASET UNSTRUCTURED_GRID

POINTS 5120 double
0 0 0
0.392699 0 0
0 0.612415 0
0.392699 0.612415 0
0.392699 0 0
0.785398 0 0
0.392699 0.612415 0
0.785398 0.612415 0
0 0.612415 0
0.392699 0.612415 0
0 1.23836 0
0.392699 1.23836 0
0.392699 0.612415 0
0.785398 0.612415 0
0.392699 1.23836 0
0.785398 1.23836 0
0.785398 0 0
1.1781 0 0
0.785398 0.612415 0
1.1781 0.612415 0
1.1781 0 0
1.5708 0 0
1.1781 0.612415 0
1.5708 0.612415 0
0.785398 0.612415 0
1.1781 0.612415 0
0.785398 1.23836 0
1.1781 1.23836 0
1.1781 0.612415 0
1.5708 0.612415 0
1.1781 1.23836 0
1.5708 1.23836 0
0 1.23836 0
0.392699 1.23836 0
0 1.86378 0
0.392699 1.86378 0
0.392699 1.23836 0
0.785398 1.23836 0
0.392699 1.86378 0
0.785398 1.86378 0
0 1.86378 0
0.392699 1.86378 0
0 2.48963 0
0.392699 2.48963 0
0.392699 1.86378 0
0.785398 1.86378 0
0.392699 2.48963 0
0.785398 2.48963 0
0.785398 1.23836 0
1.1781 1.23836 0
0.785398 1.86378 0
1.1781 1.86378 0
1.1781 1.23836 0
1.5708 1.23836 0
1.1781 1.86378 0
1.5708 1.86378 0
0.785398 1.86378 0
1.1781 1.86378 0
0.785398 2.48963 0
1.1781 2.48963 0
1.1781 1.86378 0
1.5708 1.86378 0
1.1781 2.48963 0
1.5708 2.48963 0
1.5708 0 0
1.9635 0 0
1.5708 0.612415 0
1.9635 0.612415 0
1.9635 0 0
2.35619 0 0
1.9635 0.612415 0
2.35619 0.612415 0
1.5708 0.612415 0
1.9635 0.612415 0
1.5708 1.23836 0
1.9635 1.23836 0
1.9635 0.612415 0
2.35619 0.612415 0
1.9635 1.23836 0
2.35619 1.23836 0
2.35619 0 0
2.74889 0 0
2.35619 0.612415 0
2.74889 0.612415 0
2.74889 0 0
3.14159 0 0
2.74889 0.612415 0
3.14159 0.612415 0
2.35619 0.612415 0
2.74889 0.612415 0
2.35619 1.23836 0
2.74889 1.23836 0
2.74889 0.612415 0
3.14159 0.612415 0
2.74889 1.23836 0
3.14159 1.23836 0
1.5708 1.23836 0
1.9635 1.23836 0
1.5708 1.86378 0
1.9635 1.86378 0
1.9635 1.23836 0
2.35619 1.23836 0
1.9635 1.86378 0
2.35619 1.86378 0
1.5708 1.86378 0
1.9635 1.86378 0
1.5708 2.48963 0
1.9635 2.48963 0
1.9635 1.86378 0
2.35619 1.86378 0
1.9635 2.48963 0
2.35619 2.48963 0
2.35619 1.23836 0
2.74889 1.23836 0
2.35619 1.86378 0
2.74889 1.86378 0
2.74889 1.23836 0
3.14159 1.23836 0
2.74889 1.86378 0
3.14159 1.86378 0
2.35619 1.86378 0
2.74889 1.86378 0
2.35619 2.48963 0
2.74889 2.48963 0
2.74889 1.86378 0
3.14159 1.86378 0
2.74889 2.48963 0
3.14159 2.48963 0
0 2.48963 0
0.392699 2.48963 0
0 3.11536 0
0.392699 3.11536 0
0.392699 2.48963 0
0.785398 2.48963 0
0.392699 3.11536 0
0.785398 3.11536 0
0 3.11536 0
0.392699 3.11536 0
0 3.7411 0
0.392699 3.7411 0
0.392699 3.11536 0
0.785398 3.11536 0
0.392699 3.7411 0
0.785398 3.7411 0
0.785398 2.48963 0
1.1781 2.48963 0
0.785398 3.11536 0
1.1781 3.11536 0
1.1781 2.48963 0
1.5708 2.48963 0
1.1781 3.11536 0
1.5708 3.11536 0
0.785398 3.11536 0
1.1781 3.11536 0
0.785398 3.7411 0
1.1781 3.7411 0
1.1781 3.11536 0
1.5708 3.11536 0
1.1781 3.7411 0
1.5708 3.7411 0
0 3.7411 0
0.392699 3.7411 0
0 4.3668 0
0.392699 4.3668 0
0.392699 3.7411 0
0.785398 3.7411 0
0.392699 4.3668 0
0.785398 4.3668 0
0 4.3668 0
0.392699 4.3668 0
0 4.99246 0
0.392699 4.99246 0
0.392699 4.3668 0
0.785398 4.3668 0
0.392699 4.99246 0
0.785398 4.99246 0
0.785398 3.7411 0
1.1781 3.7411 0
0.785398 4.3668 0
1.1781 4.3668 0
1.1781 3.7411 0
1.5708 3.7411 0
1.1781 4.3668 0
1.5708 4.3668 0
0.785398 4.3668 0
1.1781 4.3668 0
0.785398 4.99246 0
1.1781 4.99246 0
1.1781 4.3668 0
1.5708 4.3668 0
1.1781 4.99246 0
1.5708 4.99246 0
1.5708 2.48963 0
1.9635 2.48963 0
1.5708 3.11536 0
1.9635 3.11536 0
1.9635 2.48963 0
2.35619 2.48963 0
1.9635 3.11536 0
2.35619 3.11536 0
1.5708 3.11536 0
1.9635 3.11536 0
1.5708 3.7411 0
1.9635 3.7411 0
1.9635 3.11536 0
2.35619 3.11536 0
1.9635 3.7411 0
2.35619 3.7411 0
2.35619 2.48963 0
2.74889 2.48963 0
2.35619 3.11536 0
2.74889 3.11536 0
2.74889 2.48963 0
3.14159 2.48963 0
2.74889 3.11536 0
3.14159 3.11536 0
2.35619 3.11536 0
2.74889 3.11536 0
2.35619 3.7411 0
2.74889 3.7411 0
2.74889 3.11536 0
3.14159 3.11536 0
2.74889 3.7411 0
3.14159 3.7411 0
1.5708 3.7411 0
1.9635 3.7411 0
1.5708 4.3668 0
1.9635 4.3668 0
1.9635 3.7411 0
2.35619 3.7411 0
1.9635 4.3668 0
2.35619 4.3668 0
1.5708 4.3668 0
1.9635 4.3668 0
1.5708 4.99246 0
1.9635 4.99246 0
1.9635 4.3668 0
2.35619 4.3668 0
1.9635 4.99246 0
2.35619 4.99246 0
2.35619 3.7411 0
2.74889 3.7411 0
2.35619 4.3668 0
2.74889 4.3668 0
2.74889 3.7411 0
3.14159 3.7411 0
2.74889 4.3668 0
3.14159 4.3668 0
2.35619 4.3668 0
2.74889 4.3668 0
2.35619 4.99246 0
2.74889 4.99246 0
2.74889 4.3668 0
3.14159 4.3668 0
2.74889 4.99246 0
3.14159 4.99246 0
3.14159 0 0
3.53429 0 0
3.14159 0.612415 0
3.53429 0.612415 0
3.53429 0 0
3.92699 0 0
3.53429 0.612415 0
3.92699 0.612415 0
3.14159 0.612415 0
3.53429 0.612415 0
3.14159 1.23836 0
3.53429 1.23836 0
3.53429 0.612415 0
3.92699 0.612415 0
3.53429 1.23836 0
3.92699 1.23836 0
3.92699 0 0
4.31969 0 0
3.92699 0.612415 0
4.31969 0.612415 0
4.31969 0 0
4.71239 0 0
4.31969 0.612415 0
4.71239 0.612415 0
3.92699 0.612415 0
4.31969 0.612415 0
3.92699 1.23836 0
4.31969 1.23836 0
4.31969 0.612415 0
4.71239 0.612415 0
4.31969 1.23836 0
4.71239 1.23836 0
3.14159 1.23836 0
3.53429 1.23836 0
3.14159 1.86378 0
3.53429 1.86378 0
3.53429 1.23836 0
3.92699 1.23836 0
3.53429 1.86378 0
3.92699 1.86378 0
3.14159 1.86378 0
3.53429 1.86378 0
3.14159 2.48963 0
3.53429 2.48963 0
3.53429 1.86378 0
3.92699 1.86378 0
3.53429 2.48963 0
3.92699 2.48963 0
3.92699 1.23836 0
4.31969 1.23836 0
3.92699 1.86378 0
4.31969 1.86378 0
4.31969 1.23836 0
4.71239 1.23836 0
4.31969 1.86378 0
4.71239 1.86378 0
3.92699 1.86378 0
4.31969 1.86378 0
3.92699 2.48963 0
4.31969 2.48963 0
4.31969 1.86378 0
4.71239 1.86378 0
4.31969 2.48963 0
4.71239 2.48963 0
4.71239 0 0
5.10509 0 0
4.71239 0.612415 0
5.10509 0.612415 0
5.10509 0 0
5.49779 0 0
5.10509 0.612415 0
5.49779 0.612415 0
4.71239 0.612415 0
5.10509 0.612415 0
4.71239 1.23836 0
5.10509 1.23836 0
5.10509 0.612415 0
5.49779 0.612415 0
5.10509 1.23836 0
5.49779 1.23836 0
5.49779 0 0
5.89049 0 0
5.49779 0.612415 0
5.89049 0.612415 0
5.89049 0 0
6.28319 0 0
5.89049 0.612415 0
6.28319 0.612415 0
5.49779 0.612415 0
5.89049 0.612415 0
5.49779 1.23836 0
5.89049 1.23836 0
5.89049 0.612415 0
6.28319 0.612415 0
5.89049 1.23836 0
6.28319 1.23836 0
4.71239 1.23836 0
5.10509 1.23836 0
4.71239 1.86378 0
5.10509 1.86378 0
5.10509 1.23836 0
5.49779 1.23836 0
5.10509 1.86378 0
5.49779 1.86378 0
4.71239 1.86378 0
5.10509 1.86378 0
4.71239 2.48963 0
5.10509 2.48963 0
5.10509 1.86378 0
5.49779 1.86378 0
5.10509 2.48963 0
5.49779 2.48963 0
5.49779 1.23836 0
5.89049 1.23836 0
5.49779 1.86378 0
5.89049 1.86378 0
5.89049 1.23836 0
6.28319 1.23836 0
5.89049 1.86378 0
6.28319 1.86378 0
5.49779 1.86378 0
5.89049 1.86378 0
5.49779 2.48963 0
5.89049 2.48963 0
5.89049 1.86378 0
6.28319 1.86378 0
5.89049 2.48963 0
6.28319 2.48963 0
3.14159 2.48963 0
3.53429 2.48963 0
3.14159 3.11536 0
3.53429 3.11536 0
3.53429 2.48963 0
3.92699 2.48963 0
3.53429 3.11536 0
3.92699 3.11536 0
3.14159 3.11536 0
3.53429 3.11536 0
3.14159 3.7411 0
3.53429 3.7411 0
3.53429 3.11536 0
3.92699 3.11536 0
3.53429 3.7411 0
3.92699 3.7411 0
3.92699 2.48963 0
4.31969 2.48963 0
3.92699 3.11536 0
4.31969 3.11536 0
4.31969 2.48963 0
4.71239 2.48963 0
4.31969 3.11536 0
4.71239 3.11536 0
3.92699 3.11536 0
4.31969 3.11536 0
3.92699 3.7411 0
4.31969 3.7411 0
4.31969 3.11536 0
4.71239 3.11536 0
4.31969 3.7411 0
4.71239 3.7411 0
3.14159 3.7411 0
3.53429 3.7411 0
3.14159 4.3668 0
3.53429 4.3668 0
3.53429 3.7411 0
3.92699 3.7411 0
3.53429 4.3668 0
3.92699 4.3668 0
3.14159 4.3668 0
3.53429 4.3668 0
3.14159 4.99246 0
3.53429 4.99246 0
3.53429 4.3668 0
3.92699 4.3668 0
3.53429 4.99246 0
3.92699 4.99246 0
3.92699 3.7411 0
4.31969 3.7411 0
3.92699 4.3668 0
4.31969 4.3668 0
4.31969 3.7411 0
4.71239 3.7411 0
4.31969 4.3668 0
4.71239 4.3668 0
3.92699 4.3668 0
4.31969 4.3668 0
3.92699 4.99246 0
4.31969 4.99246 0
4.31969 4.3668 0
4.71239 4.3668 0
4.31969 4.99246 0
4.71239 4.99246 0
4.71239 2.48963 0
5.10509 2.48963 0
4.71239 3.11536 0
5.10509 3.11536 0
5.10509 2.48963 0
5.49779 2.48963 0
5.10509 3.11536 0
5.49779 3.11536 0
4.71239 3.11536 0
5.10509 3.11536 0
4.71239 3.7411 0
5.10509 3.7411 0
5.10509 3.11536 0
5.49779 3.11536 0
5.10509 3.7411 0
5.49779 3.7411 0
5.49779 2.48963 0
5.89049 2.48963 0
5.49779 3.11536 0
5.89049 3.11536 0
5.89049 2.48963 0
6.28319 2.48963 0
5.89049 3.11536 0
6.28319 3.11536 0
5.49779 3.11536 0
5.89049 3.11536 0
5.49779 3.7411 0
5.89049 3.7411 0
5.89049 3.11536 0
6.28319 3.11536 0
5.89049 3.7411 0
6.28319 3.7411 0
4.71239 3.7411 0
5.10509 3.7411 0
4.71239 4.3668 0
5.10509 4.3668 0
5.10509 3.7411 0
5.49779 3.7411 0
5.10509 4.3668 0
5.49779 4.3668 0
4.71239 4.3668 0
5.10509 4.3668 0
4.71239 4.99246 0
5.10509 4.99246 0
5.10509 4.3668 0
5.49779 4.3668 0
5.10509 4.99246 0
5.49779 4.99246 0
5.49779 3.7411 0
5.89049 3.7411 0
5.49779 4.3668 0
5.89049 4.3668 0
5.89049 3.7411 0
6.28319 3.7411 0
5.89049 4.3668 0
6.28319 4.3668 0
5.49779 4.3668 0
5.89049 4.3668 0
5.49779 4.99246 0
5.89049 4.99246 0
5.89049 4.3668 0
6.28319 4.3668 0
5.89049 4.99246 0
6.28319 4.99246 0
0 4.99246 0
0.392699 4.99246 0
0 5.61809 0
0.392699 5.61809 0
0.392699 4.99246 0
0.785398 4.99246 0
0.392699 5.61809 0
0.785398 5.61809 0
0 5.61809 0
0.392699 5.61809 0
0 6.24367 0
0.392699 6.24367 0
0.392699 5.61809 0
0.785398 5.61809 0
0.392699 6.24367 0
0.785398 6.24367 0
0.785398 4.99246 0
1.1781 4.99246 0
0.785398 5.61809 0
1.1781 5.61809 0
1.1781 4.99246 0
1.5708 4.99246 0
1.1781 5.61809 0
1.5708 5.61809 0
0.785398 5.61809 0
1.1781 5.61809 0
0.785398 6.24367 0
1.1781 6.24367 0
1.1781 5.61809 0
1.5708 5.61809 0
1.1781 6.24367 0
1.5708 6.24367 0
0 6.24367 0
0.392699 6.24367 0
0 6.86922 0
0.392699 6.86922 0
0.392699 6.24367 0
0.785398 6.24367 0
0.392699 6.86922 0
0.785398 6.86922 0
0 6.86922 0
0.392699 6.86922 0
0 7.49477 0
0.392699 7.49477 0
0.392699 6.86922 0
0.785398 6.86922 0
0.392699 7.49477 0
0.785398 7.49477 0
0.785398 6.24367 0
1.1781 6.24367 0
0.785398 6.86922 0
1.1781 6.86922 0
1.1781 6.24367 0
1.5708 6.24367 0
1.1781 6.86922 0
1.5708 6.86922 0
0.785398 6.86922 0
1.1781 6.86922 0
[...]
POINT_DATA 5120
VECTORS uf double
0 1 0
-3.75844e-14 1 0
0 1.00222 0
-3.09495e-14 1.00222 0
-3.75844e-14 1 0
-1.38313e-14 1 0
-3.09495e-14 1.00222 0
5.22943e-16 1.00222 0
0 1.00222 0
3.40509e-15 1.00222 0
0 1.00335 0
4.20279e-15 1.00335 0
3.40509e-15 1.00222 0
9.53401e-15 1.00222 0
4.20279e-15 1.00335 0
2.16026e-14 1.00335 0
-1.38313e-14 1 0
5.61754e-14 1 0
5.22943e-16 1.00222 0
5.94876e-14 1.00222 0
5.61754e-14 1 0
-6.09393e-15 1 0
5.94876e-14 1.00222 0
1.05691e-14 1.00222 0
9.53401e-15 1.00222 0
-6.27067e-14 1.00222 0
2.16026e-14 1.00335 0
-5.34857e-14 1.00335 0
-6.27067e-14 1.00222 0
-1.40214e-14 1.00222 0
-5.34857e-14 1.00335 0
9.12722e-15 1.00335 0
0 1.00335 0
9.71811e-15 1.00335 0
0 1.00474 0
7.94219e-15 1.00474 0
9.71811e-15 1.00335 0
-2.08027e-14 1.00335 0
7.94219e-15 1.00474 0
-1.40784e-14 1.00474 0
0 1.00474 0
2.4181e-14 1.00474 0
0 1.00603 0
2.83112e-14 1.00603 0
2.4181e-14 1.00474 0
3.96696e-14 1.00474 0
2.83112e-14 1.00603 0
3.52708e-14 1.00603 0
-2.08027e-14 1.00335 0
-9.01811e-15 1.00335 0
-1.40784e-14 1.00474 0
4.07139e-15 1.00474 0
-9.01811e-15 1.00335 0
-1.0438e-14 1.00335 0
4.07139e-15 1.00474 0
5.75437e-15 1.00474 0
3.96696e-14 1.00474 0
2.60549e-15 1.00474 0
3.52708e-14 1.00603 0
9.01536e-15 1.00603 0
2.60549e-15 1.00474 0
-2.49651e-14 1.00474 0
9.01536e-15 1.00603 0
-1.64351e-14 1.00603 0
-6.09393e-15 1 0
-2.01542e-14 1 0
1.05691e-14 1.00222 0
-9.72234e-15 1.00222 0
-2.01542e-14 1 0
-6.18905e-15 1 0
-9.72234e-15 1.00222 0
2.86466e-15 1.00222 0
-1.40214e-14 1.00222 0
1.00803e-14 1.00222 0
9.12722e-15 1.00335 0
1.99395e-14 1.00335 0
1.00803e-14 1.00222 0
-4.15715e-15 1.00222 0
1.99395e-14 1.00335 0
7.32245e-15 1.00335 0
-6.18905e-15 1 0
-1.94762e-15 1 0
2.86466e-15 1.00222 0
6.20408e-15 1.00222 0
-1.94762e-15 1 0
-1.3439e-15 1 0
6.20408e-15 1.00222 0
8.29793e-15 1.00222 0
-4.15715e-15 1.00222 0
-1.64423e-14 1.00222 0
7.32245e-15 1.00335 0
1.1137e-14 1.00335 0
-1.64423e-14 1.00222 0
-1.15069e-14 1.00222 0
1.1137e-14 1.00335 0
7.95649e-15 1.00335 0
-1.0438e-14 1.00335 0
4.2888e-16 1.00335 0
5.75437e-15 1.00474 0
1.44899e-14 1.00474 0
4.2888e-16 1.00335 0
1.97065e-15 1.00335 0
1.44899e-14 1.00474 0
-2.71941e-15 1.00474 0
-2.49651e-14 1.00474 0
-2.27114e-15 1.00474 0
-1.64351e-14 1.00603 0
1.22703e-15 1.00603 0
-2.27114e-15 1.00474 0
4.42302e-15 1.00474 0
1.22703e-15 1.00603 0
1.5315e-15 1.00603 0
1.97065e-15 1.00335 0
-2.25855e-15 1.00335 0
-2.71941e-15 1.00474 0
4.51097e-15 1.00474 0
-2.25855e-15 1.00335 0
-2.89818e-15 1.00335 0
4.51097e-15 1.00474 0
8.78961e-15 1.00474 0
4.42302e-15 1.00474 0
4.19348e-16 1.00474 0
1.5315e-15 1.00603 0
3.69469e-15 1.00603 0
4.19348e-16 1.00474 0
-1.0367e-14 1.00474 0
3.69469e-15 1.00603 0
8.35599e-15 1.00603 0
0 1.00603 0
-1.36314e-14 1.00603 0
0 1.00731 0
-1.8738e-14 1.00731 0
-1.36314e-14 1.00603 0
-4.26196e-14 1.00603 0
-1.8738e-14 1.00731 0
-4.51392e-14 1.00731 0
0 1.00731 0
1.55231e-14 1.00731 0
0 1.00857 0
6.75866e-15 1.00857 0
1.55231e-14 1.00731 0
7.23592e-14 1.00731 0
6.75866e-15 1.00857 0
6.78648e-14 1.00857 0
-4.26196e-14 1.00603 0
-6.4868e-15 1.00603 0
-4.51392e-14 1.00731 0
2.89818e-15 1.00731 0
-6.4868e-15 1.00603 0
5.2147e-14 1.00603 0
2.89818e-15 1.00731 0
4.77439e-14 1.00731 0
7.23592e-14 1.00731 0
2.33255e-15 1.00731 0
6.78648e-14 1.00857 0
1.50232e-14 1.00857 0
2.33255e-15 1.00731 0
-5.22113e-14 1.00731 0
1.50232e-14 1.00857 0
-3.95573e-14 1.00857 0
0 1.00857 0
1.22149e-14 1.00857 0
0 1.00981 0
1.33294e-14 1.00981 0
1.22149e-14 1.00857 0
-1.0082e-13 1.00857 0
1.33294e-14 1.00981 0
-9.9227e-14 1.00981 0
0 1.00981 0
-7.60335e-15 1.00981 0
0 1.01104 0
-8.19225e-16 1.01104 0
-7.60335e-15 1.00981 0
8.31324e-14 1.00981 0
-8.19225e-16 1.01104 0
8.31101e-14 1.01104 0
-1.0082e-13 1.00857 0
-7.32677e-15 1.00857 0
-9.9227e-14 1.00981 0
-5.41266e-15 1.00981 0
-7.32677e-15 1.00857 0
6.38545e-14 1.00857 0
-5.41266e-15 1.00981 0
7.46832e-14 1.00981 0
8.31324e-14 1.00981 0
1.16864e-14 1.00981 0
8.31101e-14 1.01104 0
8.34376e-15 1.01104 0
1.16864e-14 1.00981 0
-9.10514e-14 1.00981 0
8.34376e-15 1.01104 0
-8.16417e-14 1.01104 0
5.2147e-14 1.00603 0
-9.4793e-15 1.00603 0
4.77439e-14 1.00731 0
-9.25265e-15 1.00731 0
-9.4793e-15 1.00603 0
-8.39476e-15 1.00603 0
-9.25265e-15 1.00731 0
7.80595e-15 1.00731 0
-5.22113e-14 1.00731 0
1.26874e-15 1.00731 0
-3.95573e-14 1.00857 0
3.97277e-15 1.00857 0
1.26874e-15 1.00731 0
-3.69518e-15 1.00731 0
3.97277e-15 1.00857 0
4.21642e-15 1.00857 0
-8.39476e-15 1.00603 0
-3.17745e-15 1.00603 0
7.80595e-15 1.00731 0
2.85054e-15 1.00731 0
-3.17745e-15 1.00603 0
-9.46408e-15 1.00603 0
2.85054e-15 1.00731 0
1.12419e-14 1.00731 0
-3.69518e-15 1.00731 0
-4.92489e-15 1.00731 0
4.21642e-15 1.00857 0
1.28671e-14 1.00857 0
-4.92489e-15 1.00731 0
1.67928e-15 1.00731 0
1.28671e-14 1.00857 0
3.8629e-15 1.00857 0
6.38545e-14 1.00857 0
1.17451e-14 1.00857 0
7.46832e-14 1.00981 0
2.26773e-14 1.00981 0
1.17451e-14 1.00857 0
-3.03163e-16 1.00857 0
2.26773e-14 1.00981 0
-4.55142e-17 1.00981 0
-9.10514e-14 1.00981 0
-2.23424e-14 1.00981 0
-8.16417e-14 1.01104 0
-9.59402e-15 1.01104 0
-2.23424e-14 1.00981 0
2.67439e-15 1.00981 0
-9.59402e-15 1.01104 0
4.45644e-15 1.01104 0
-3.03163e-16 1.00857 0
-8.74009e-15 1.00857 0
-4.55142e-17 1.00981 0
6.6735e-15 1.00981 0
-8.74009e-15 1.00857 0
-3.30949e-15 1.00857 0
6.6735e-15 1.00981 0
8.10735e-15 1.00981 0
2.67439e-15 1.00981 0
-7.63062e-15 1.00981 0
4.45644e-15 1.01104 0
5.47508e-15 1.01104 0
-7.63062e-15 1.00981 0
-9.85934e-15 1.00981 0
5.47508e-15 1.01104 0
8.58096e-15 1.01104 0
-1.3439e-15 1 0
-3.81752e-15 1 0
8.29793e-15 1.00222 0
8.25239e-15 1.00222 0
-3.81752e-15 1 0
-9.09472e-16 1 0
8.25239e-15 1.00222 0
8.06661e-15 1.00222 0
-1.15069e-14 1.00222 0
-8.61931e-17 1.00222 0
7.95649e-15 1.00335 0
3.97453e-15 1.00335 0
-8.61931e-17 1.00222 0
-8.78002e-15 1.00222 0
3.97453e-15 1.00335 0
6.5736e-15 1.00335 0
-9.09472e-16 1 0
1.53125e-15 1 0
8.06661e-15 1.00222 0
6.29274e-15 1.00222 0
1.53125e-15 1 0
-4.84096e-15 1 0
6.29274e-15 1.00222 0
1.40812e-14 1.00222 0
-8.78002e-15 1.00222 0
-1.58569e-14 1.00222 0
6.5736e-15 1.00335 0
1.5751e-14 1.00335 0
-1.58569e-14 1.00222 0
-1.02367e-14 1.00222 0
1.5751e-14 1.00335 0
1.02309e-14 1.00335 0
-2.89818e-15 1.00335 0
-5.72437e-15 1.00335 0
8.78961e-15 1.00474 0
6.80883e-15 1.00474 0
-5.72437e-15 1.00335 0
-1.15317e-15 1.00335 0
6.80883e-15 1.00474 0
2.4402e-15 1.00474 0
-1.0367e-14 1.00474 0
-3.7793e-15 1.00474 0
8.35599e-15 1.00603 0
7.74392e-15 1.00603 0
-3.7793e-15 1.00474 0
1.84803e-15 1.00474 0
7.74392e-15 1.00603 0
2.09981e-15 1.00603 0
-1.15317e-15 1.00335 0
4.77951e-15 1.00335 0
2.4402e-15 1.00474 0
-1.00013e-15 1.00474 0
4.77951e-15 1.00335 0
-5.56028e-15 1.00335 0
-1.00013e-15 1.00474 0
8.14164e-15 1.00474 0
1.84803e-15 1.00474 0
-8.78511e-15 1.00474 0
2.09981e-15 1.00603 0
9.06039e-15 1.00603 0
-8.78511e-15 1.00474 0
-9.74329e-16 1.00474 0
9.06039e-15 1.00603 0
8.58603e-15 1.00603 0
-4.84096e-15 1 0
-3.38327e-15 1 0
1.40812e-14 1.00222 0
1.60062e-14 1.00222 0
-3.38327e-15 1 0
-2.86267e-15 1 0
1.60062e-14 1.00222 0
1.17936e-14 1.00222 0
-1.02367e-14 1.00222 0
-1.2247e-14 1.00222 0
1.02309e-14 1.00335 0
1.07592e-14 1.00335 0
-1.2247e-14 1.00222 0
-1.23571e-14 1.00222 0
1.07592e-14 1.00335 0
1.6862e-14 1.00335 0
-2.86267e-15 1 0
1.64003e-15 1 0
1.17936e-14 1.00222 0
2.16974e-15 1.00222 0
1.64003e-15 1 0
4.33795e-15 1 0
2.16974e-15 1.00222 0
4.76286e-15 1.00222 0
-1.23571e-14 1.00222 0
1.23682e-15 1.00222 0
1.6862e-14 1.00335 0
2.5594e-15 1.00335 0
1.23682e-15 1.00222 0
-2.83544e-15 1.00222 0
2.5594e-15 1.00335 0
1.36808e-16 1.00335 0
-5.56028e-15 1.00335 0
-1.19477e-14 1.00335 0
8.14164e-15 1.00474 0
1.01911e-14 1.00474 0
-1.19477e-14 1.00335 0
-2.08003e-15 1.00335 0
1.01911e-14 1.00474 0
-6.21866e-16 1.00474 0
-9.74329e-16 1.00474 0
1.09582e-15 1.00474 0
8.58603e-15 1.00603 0
4.4966e-15 1.00603 0
1.09582e-15 1.00474 0
8.01028e-16 1.00474 0
4.4966e-15 1.00603 0
-2.14631e-15 1.00603 0
-2.08003e-15 1.00335 0
-4.36602e-15 1.00335 0
-6.21866e-16 1.00474 0
9.88573e-15 1.00474 0
-4.36602e-15 1.00335 0
-1.12322e-15 1.00335 0
9.88573e-15 1.00474 0
5.42054e-15 1.00474 0
8.01028e-16 1.00474 0
-4.97146e-15 1.00474 0
-2.14631e-15 1.00603 0
1.03848e-14 1.00603 0
-4.97146e-15 1.00474 0
-2.79722e-15 1.00474 0
1.03848e-14 1.00603 0
5.23169e-15 1.00603 0
-9.46408e-15 1.00603 0
-5.49902e-15 1.00603 0
1.12419e-14 1.00731 0
9.3302e-15 1.00731 0
-5.49902e-15 1.00603 0
-6.36664e-15 1.00603 0
9.3302e-15 1.00731 0
2.71273e-15 1.00731 0
1.67928e-15 1.00731 0
-1.31587e-14 1.00731 0
3.8629e-15 1.00857 0
7.49452e-15 1.00857 0
-1.31587e-14 1.00731 0
4.08222e-15 1.00731 0
7.49452e-15 1.00857 0
3.39741e-15 1.00857 0
-6.36664e-15 1.00603 0
1.08064e-15 1.00603 0
2.71273e-15 1.00731 0
8.49782e-16 1.00731 0
1.08064e-15 1.00603 0
-6.974e-15 1.00603 0
8.49782e-16 1.00731 0
4.99735e-15 1.00731 0
4.08222e-15 1.00731 0
-3.15677e-15 1.00731 0
3.39741e-15 1.00857 0
5.84709e-15 1.00857 0
-3.15677e-15 1.00731 0
-1.07299e-15 1.00731 0
5.84709e-15 1.00857 0
5.75691e-15 1.00857 0
-3.30949e-15 1.00857 0
-3.17098e-16 1.00857 0
8.10735e-15 1.00981 0
3.91949e-15 1.00981 0
-3.17098e-16 1.00857 0
-6.20781e-15 1.00857 0
3.91949e-15 1.00981 0
1.08262e-14 1.00981 0
-9.85934e-15 1.00981 0
-1.14354e-15 1.00981 0
8.58096e-15 1.01104 0
9.11553e-15 1.01104 0
-1.14354e-15 1.00981 0
-6.87777e-15 1.00981 0
9.11553e-15 1.01104 0
1.08863e-14 1.01104 0
-6.20781e-15 1.00857 0
-9.51661e-15 1.00857 0
1.08262e-14 1.00981 0
9.95259e-15 1.00981 0
-9.51661e-15 1.00857 0
-3.71275e-15 1.00857 0
9.95259e-15 1.00981 0
6.73092e-15 1.00981 0
-6.87777e-15 1.00981 0
1.31394e-15 1.00981 0
1.08863e-14 1.01104 0
6.24231e-15 1.01104 0
1.31394e-15 1.00981 0
-4.52141e-15 1.00981 0
6.24231e-15 1.01104 0
4.38199e-15 1.01104 0
-6.974e-15 1.00603 0
-3.04069e-15 1.00603 0
4.99735e-15 1.00731 0
1.03795e-14 1.00731 0
-3.04069e-15 1.00603 0
5.02854e-15 1.00603 0
1.03795e-14 1.00731 0
7.20758e-15 1.00731 0
-1.07299e-15 1.00731 0
-2.97244e-15 1.00731 0
5.75691e-15 1.00857 0
3.99533e-15 1.00857 0
-2.97244e-15 1.00731 0
-6.36301e-16 1.00731 0
3.99533e-15 1.00857 0
6.35275e-15 1.00857 0
5.02854e-15 1.00603 0
-4.51274e-15 1.00603 0
7.20758e-15 1.00731 0
1.01715e-14 1.00731 0
-4.51274e-15 1.00603 0
8.52848e-15 1.00603 0
1.01715e-14 1.00731 0
1.80187e-16 1.00731 0
-6.36301e-16 1.00731 0
-7.19831e-15 1.00731 0
6.35275e-15 1.00857 0
1.50391e-14 1.00857 0
-7.19831e-15 1.00731 0
-1.11927e-15 1.00731 0
1.50391e-14 1.00857 0
8.47114e-15 1.00857 0
-3.71275e-15 1.00857 0
1.802e-15 1.00857 0
6.73092e-15 1.00981 0
-1.70788e-15 1.00981 0
1.802e-15 1.00857 0
-1.06951e-14 1.00857 0
-1.70788e-15 1.00981 0
9.55739e-15 1.00981 0
-4.52141e-15 1.00981 0
-2.46338e-15 1.00981 0
4.38199e-15 1.01104 0
8.30979e-15 1.01104 0
-2.46338e-15 1.00981 0
-5.45194e-15 1.00981 0
8.30979e-15 1.01104 0
4.24014e-15 1.01104 0
-1.06951e-14 1.00857 0
-7.63242e-15 1.00857 0
9.55739e-15 1.00981 0
4.56445e-15 1.00981 0
-7.63242e-15 1.00857 0
-2.09274e-15 1.00857 0
4.56445e-15 1.00981 0
2.52882e-15 1.00981 0
-5.45194e-15 1.00981 0
-3.91559e-15 1.00981 0
4.24014e-15 1.01104 0
4.5969e-15 1.01104 0
-3.91559e-15 1.00981 0
6.55148e-15 1.00981 0
4.5969e-15 1.01104 0
-7.09333e-15 1.01104 0
0 1.01104 0
-9.33646e-15 1.01104 0
0 1.01226 0
2.75686e-15 1.01226 0
-9.33646e-15 1.01104 0
-5.74596e-14 1.01104 0
2.75686e-15 1.01226 0
-5.07555e-14 1.01226 0
0 1.01226 0
-2.6814e-16 1.01226 0
0 1.01348 0
9.23702e-15 1.01348 0
-2.6814e-16 1.01226 0
3.45954e-14 1.01226 0
9.23702e-15 1.01348 0
3.32908e-14 1.01348 0
-5.74596e-14 1.01104 0
5.49417e-15 1.01104 0
-5.07555e-14 1.01226 0
2.64574e-15 1.01226 0
5.49417e-15 1.01104 0
5.4795e-14 1.01104 0
2.64574e-15 1.01226 0
5.80151e-14 1.01226 0
3.45954e-14 1.01226 0
-2.46507e-14 1.01226 0
3.32908e-14 1.01348 0
-1.68527e-14 1.01348 0
-2.46507e-14 1.01226 0
-1.51056e-14 1.01226 0
-1.68527e-14 1.01348 0
-5.95539e-15 1.01348 0
0 1.01348 0
-1.60845e-14 1.01348 0
0 1.0147 0
-6.7499e-15 1.0147 0
-1.60845e-14 1.01348 0
-2.13838e-14 1.01348 0
-6.7499e-15 1.0147 0
-1.45302e-14 1.0147 0
0 1.0147 0
5.84722e-15 1.0147 0
0 1.01595 0
1.20061e-14 1.01595 0
5.84722e-15 1.0147 0
1.96816e-14 1.0147 0
1.20061e-14 1.01595 0
1.92133e-14 1.01595 0
-2.13838e-14 1.01348 0
9.23603e-15 1.01348 0
-1.45302e-14 1.0147 0
1.27981e-14 1.0147 0
9.23603e-15 1.01348 0
3.73024e-15 1.01348 0
1.27981e-14 1.0147 0
6.33792e-15 1.0147 0
1.96816e-14 1.0147 0
-6.09356e-15 1.0147 0
1.92133e-14 1.01595 0
-4.94822e-16 1.01595 0
-6.09356e-15 1.0147 0
-4.53418e-15 1.0147 0
-4.94822e-16 1.01595 0
-2.9074e-15 1.01595 0
5.4795e-14 1.01104 0
-1.42162e-14 1.01104 0
5.80151e-14 1.01226 0
-7.55689e-15 1.01226 0
-1.42162e-14 1.01104 0
-5.94223e-15 1.01104 0
-7.55689e-15 1.01226 0
9.76101e-15 1.01226 0
-1.51056e-14 1.01226 0
1.88348e-14 1.01226 0
-5.95539e-15 1.01348 0
2.30443e-14 1.01348 0
1.88348e-14 1.01226 0
-6.87251e-15 1.01226 0
2.30443e-14 1.01348 0
6.53045e-15 1.01348 0
-5.94223e-15 1.01104 0
9.42264e-16 1.01104 0
9.76101e-15 1.01226 0
5.18565e-15 1.01226 0
9.42264e-16 1.01104 0
-2.33977e-15 1.01104 0
5.18565e-15 1.01226 0
4.86929e-15 1.01226 0
-6.87251e-15 1.01226 0
-7.5642e-15 1.01226 0
6.53045e-15 1.01348 0
6.86744e-15 1.01348 0
-7.5642e-15 1.01226 0
-9.74516e-15 1.01226 0
6.86744e-15 1.01348 0
5.8397e-15 1.01348 0
3.73024e-15 1.01348 0
-8.99374e-15 1.01348 0
6.33792e-15 1.0147 0
2.23717e-15 1.0147 0
-8.99374e-15 1.01348 0
-4.78156e-15 1.01348 0
2.23717e-15 1.0147 0
6.5379e-15 1.0147 0
-4.53418e-15 1.0147 0
-8.70366e-15 1.0147 0
-2.9074e-15 1.01595 0
1.95486e-16 1.01595 0
-8.70366e-15 1.0147 0
-4.65791e-15 1.0147 0
1.95486e-16 1.01595 0
2.69551e-15 1.01595 0
-4.78156e-15 1.01348 0
-3.04202e-15 1.01348 0
6.5379e-15 1.0147 0
6.79774e-15 1.0147 0
-3.04202e-15 1.01348 0
-2.62157e-15 1.01348 0
6.79774e-15 1.0147 0
4.94881e-15 1.0147 0
-4.65791e-15 1.0147 0
-8.09366e-15 1.0147 0
2.69551e-15 1.01595 0
3.58331e-15 1.01595 0
-8.09366e-15 1.0147 0
-6.15121e-15 1.0147 0
3.58331e-15 1.01595 0
3.01129e-15 1.01595 0
0 1.01595 0
3.63227e-15 1.01595 0
0 1.01721 0
2.99175e-15 1.01721 0
3.63227e-15 1.01595 0
-2.13846e-14 1.01595 0
2.99175e-15 1.01721 0
-1.73581e-14 1.01721 0
0 1.01721 0
-1.43189e-14 1.01721 0
0 1.01844 0
-4.47319e-15 1.01844 0
-1.43189e-14 1.01721 0
1.70982e-14 1.01721 0
-4.47319e-15 1.01844 0
1.54541e-14 1.01844 0
-2.13846e-14 1.01595 0
-1.9903e-15 1.01595 0
-1.73581e-14 1.01721 0
2.17513e-15 1.01721 0
-1.9903e-15 1.01595 0
-9.08077e-15 1.01595 0
2.17513e-15 1.01721 0
1.23785e-15 1.01721 0
1.70982e-14 1.01721 0
-4.70533e-16 1.01721 0
1.54541e-14 1.01844 0
4.82097e-15 1.01844 0
-4.70533e-16 1.01721 0
6.76714e-16 1.01721 0
4.82097e-15 1.01844 0
2.25804e-15 1.01844 0
0 1.01844 0
5.86485e-15 1.01844 0
0 1.01951 0
5.09799e-15 1.01951 0
5.86485e-15 1.01844 0
-1.06561e-14 1.01844 0
5.09799e-15 1.01951 0
-1.06072e-14 1.01951 0
0 1.01951 0
1.41152e-16 1.01951 0
0 1.01993 0
-5.95815e-15 1.01993 0
1.41152e-16 1.01951 0
1.62373e-15 1.01951 0
-5.95815e-15 1.01993 0
1.46316e-14 1.01993 0
-1.06561e-14 1.01844 0
2.96685e-16 1.01844 0
-1.06072e-14 1.01951 0
-1.18166e-16 1.01951 0
2.96685e-16 1.01844 0
-1.23088e-15 1.01844 0
-1.18166e-16 1.01951 0
-1.26503e-15 1.01951 0
1.62373e-15 1.01951 0
-5.31574e-15 1.01951 0
1.46316e-14 1.01993 0
-5.26451e-15 1.01993 0
-5.31574e-15 1.01951 0
-3.70918e-15 1.01951 0
-5.26451e-15 1.01993 0
5.73347e-15 1.01993 0
-9.08077e-15 1.01595 0
-2.20155e-15 1.01595 0
1.23785e-15 1.01721 0
7.82733e-15 1.01721 0
-2.20155e-15 1.01595 0
-1.12245e-15 1.01595 0
7.82733e-15 1.01721 0
3.88116e-15 1.01721 0
6.76714e-16 1.01721 0
-2.96426e-15 1.01721 0
2.25804e-15 1.01844 0
-1.88568e-15 1.01844 0
-2.96426e-15 1.01721 0
-1.75216e-15 1.01721 0
-1.88568e-15 1.01844 0
2.48055e-15 1.01844 0
-1.12245e-15 1.01595 0
-2.67807e-15 1.01595 0
3.88116e-15 1.01721 0
2.11488e-15 1.01721 0
-2.67807e-15 1.01595 0
-1.80584e-15 1.01595 0
2.11488e-15 1.01721 0
4.66745e-15 1.01721 0
-1.75216e-15 1.01721 0
-7.50299e-15 1.01721 0
2.48055e-15 1.01844 0
4.80005e-15 1.01844 0
-7.50299e-15 1.01721 0
-5.62479e-15 1.01721 0
4.80005e-15 1.01844 0
6.3195e-15 1.01844 0
-1.23088e-15 1.01844 0
-3.1368e-15 1.01844 0
-1.26503e-15 1.01951 0
-1.84416e-16 1.01951 0
-3.1368e-15 1.01844 0
-3.11597e-15 1.01844 0
-1.84416e-16 1.01951 0
9.89755e-16 1.01951 0
-3.70918e-15 1.01951 0
-5.20878e-15 1.01951 0
5.73347e-15 1.01993 0
5.52497e-15 1.01993 0
-5.20878e-15 1.01951 0
-1.62224e-15 1.01951 0
5.52497e-15 1.01993 0
-3.56628e-17 1.01993 0
-3.11597e-15 1.01844 0
-1.80081e-15 1.01844 0
9.89755e-16 1.01951 0
-1.29449e-15 1.01951 0
-1.80081e-15 1.01844 0
-3.81358e-15 1.01844 0
-1.29449e-15 1.01951 0
3.0628e-15 1.01951 0
-1.62224e-15 1.01951 0
-3.12033e-15 1.01951 0
-3.56628e-17 1.01993 0
5.86453e-15 1.01993 0
-3.12033e-15 1.01951 0
1.19594e-15 1.01951 0
5.86453e-15 1.01993 0
-9.60486e-15 1.01993 0
-2.33977e-15 1.01104 0
-3.24244e-15 1.01104 0
4.86929e-15 1.01226 0
6.94133e-15 1.01226 0
-3.24244e-15 1.01104 0
-4.84292e-15 1.01104 0
6.94133e-15 1.01226 0
3.23939e-15 1.01226 0
-9.74516e-15 1.01226 0
-5.58182e-15 1.01226 0
5.8397e-15 1.01348 0
5.78038e-15 1.01348 0
-5.58182e-15 1.01226 0
9.43471e-16 1.01226 0
5.78038e-15 1.01348 0
3.37987e-15 1.01348 0
-4.84292e-15 1.01104 0
-1.02445e-14 1.01104 0
3.23939e-15 1.01226 0
8.3311e-15 1.01226 0
-1.02445e-14 1.01104 0
3.82941e-16 1.01104 0
8.3311e-15 1.01226 0
3.30473e-15 1.01226 0
9.43471e-16 1.01226 0
-6.7048e-15 1.01226 0
3.37987e-15 1.01348 0
7.64425e-15 1.01348 0
-6.7048e-15 1.01226 0
-2.48085e-15 1.01226 0
7.64425e-15 1.01348 0
3.50791e-15 1.01348 0
-2.62157e-15 1.01348 0
-5.43669e-15 1.01348 0
4.94881e-15 1.0147 0
8.37101e-15 1.0147 0
-5.43669e-15 1.01348 0
-5.2795e-15 1.01348 0
8.37101e-15 1.0147 0
6.48511e-15 1.0147 0
-6.15121e-15 1.0147 0
-7.44598e-15 1.0147 0
3.01129e-15 1.01595 0
3.99947e-15 1.01595 0
-7.44598e-15 1.0147 0
-2.81445e-15 1.0147 0
3.99947e-15 1.01595 0
6.49063e-16 1.01595 0
-5.2795e-15 1.01348 0
-5.32601e-15 1.01348 0
6.48511e-15 1.0147 0
6.91151e-15 1.0147 0
-5.32601e-15 1.01348 0
-2.89468e-15 1.01348 0
6.91151e-15 1.0147 0
3.09962e-15 1.0147 0
-2.81445e-15 1.0147 0
-1.81778e-15 1.0147 0
6.49063e-16 1.01595 0
2.59828e-15 1.01595 0
-1.81778e-15 1.0147 0
1.76563e-17 1.0147 0
2.59828e-15 1.01595 0
1.445e-15 1.01595 0
3.82941e-16 1.01104 0
-7.98554e-15 1.01104 0
3.30473e-15 1.01226 0
8.68515e-15 1.01226 0
-7.98554e-15 1.01104 0
1.88225e-16 1.01104 0
8.68515e-15 1.01226 0
1.03395e-14 1.01226 0
-2.48085e-15 1.01226 0
-5.91131e-15 1.01226 0
3.50791e-15 1.01348 0
8.90467e-15 1.01348 0
-5.91131e-15 1.01226 0
-4.70553e-15 1.01226 0
8.90467e-15 1.01348 0
7.06042e-15 1.01348 0
1.88225e-16 1.01104 0
3.30466e-15 1.01104 0
1.03395e-14 1.01226 0
2.45159e-15 1.01226 0
3.30466e-15 1.01104 0
5.61135e-15 1.01104 0
2.45159e-15 1.01226 0
2.2747e-15 1.01226 0
-4.70553e-15 1.01226 0
-3.19459e-17 1.01226 0
7.06042e-15 1.01348 0
5.32621e-15 1.01348 0
-3.19459e-17 1.01226 0
-4.23958e-15 1.01226 0
5.32621e-15 1.01348 0
5.00037e-15 1.01348 0
-2.89468e-15 1.01348 0
-4.44917e-15 1.01348 0
3.09962e-15 1.0147 0
4.36785e-15 1.0147 0
-4.44917e-15 1.01348 0
-2.28829e-15 1.01348 0
4.36785e-15 1.0147 0
3.03289e-15 1.0147 0
1.76563e-17 1.0147 0
-1.68605e-15 1.0147 0
1.445e-15 1.01595 0
3.00961e-15 1.01595 0
-1.68605e-15 1.0147 0
-7.15816e-15 1.0147 0
3.00961e-15 1.01595 0
5.31476e-15 1.01595 0
-2.28829e-15 1.01348 0
-3.5561e-15 1.01348 0
3.03289e-15 1.0147 0
1.51361e-15 1.0147 0
-3.5561e-15 1.01348 0
-3.61783e-15 1.01348 0
1.51361e-15 1.0147 0
3.67158e-15 1.0147 0
-7.15816e-15 1.0147 0
-1.67367e-15 1.0147 0
5.31476e-15 1.01595 0
-1.33653e-16 1.01595 0
-1.67367e-15 1.0147 0
3.28966e-15 1.0147 0
-1.33653e-16 1.01595 0
-4.57146e-16 1.01595 0
-1.80584e-15 1.01595 0
-4.93616e-15 1.01595 0
4.66745e-15 1.01721 0
2.80585e-15 1.01721 0
-4.93616e-15 1.01595 0
-3.50711e-15 1.01595 0
2.80585e-15 1.01721 0
2.28335e-15 1.01721 0
-5.62479e-15 1.01721 0
-4.64853e-16 1.01721 0
6.3195e-15 1.01844 0
1.67845e-15 1.01844 0
-4.64853e-16 1.01721 0
-3.63367e-15 1.01721 0
1.67845e-15 1.01844 0
4.84001e-15 1.01844 0
-3.50711e-15 1.01595 0
1.0315e-15 1.01595 0
2.28335e-15 1.01721 0
-1.5415e-17 1.01721 0
1.0315e-15 1.01595 0
-6.12628e-15 1.01595 0
-1.5415e-17 1.01721 0