# vtk DataFile Version 3.0
#This file was generated by the deal.II library on 2018/10/12 at 0:39:59
ASCII
DATASET UNSTRUCTURED_GRID

POINTS 5120 double
0 0 0
0.392699 0 0
0 0.607162 0
0.392699 0.607162 0
0.392699 0 0
0.785398 0 0
0.392699 0.607162 0
0.785398 0.607162 0
0 0.607162 0
0.392699 0.607162 0
0 1.2335 0
0.392699 1.2335 0
0.392699 0.607162 0
0.785398 0.607162 0
0.392699 1.2335 0
0.785398 1.2335 0
0.785398 0 0
1.1781 0 0
0.785398 0.607162 0
1.1781 0.607162 0
1.1781 0 0
1.5708 0 0
1.1781 0.607162 0
1.5708 0.607162 0
0.785398 0.607162 0
1.1781 0.607162 0
0.785398 1.2335 0
1.1781 1.2335 0
1.1781 0.607162 0
1.5708 0.607162 0
1.1781 1.2335 0
1.5708 1.2335 0
0 1.2335 0
0.392699 1.2335 0
0 1.85912 0
0.392699 1.85912 0
0.392699 1.2335 0
0.785398 1.2335 0
0.392699 1.85912 0
0.785398 1.85912 0
0 1.85912 0
0.392699 1.85912 0
0 2.48537 0
0.392699 2.48537 0
0.392699 1.85912 0
0.785398 1.85912 0
0.392699 2.48537 0
0.785398 2.48537 0
0.785398 1.2335 0
1.1781 1.2335 0
0.785398 1.85912 0
1.1781 1.85912 0
1.1781 1.2335 0
1.5708 1.2335 0
1.1781 1.85912 0
1.5708 1.85912 0
0.785398 1.85912 0
1.1781 1.85912 0
0.785398 2.48537 0
1.1781 2.48537 0
1.1781 1.85912 0
1.5708 1.85912 0
1.1781 2.48537 0
1.5708 2.48537 0
1.5708 0 0
1.9635 0 0
1.5708 0.607162 0
1.9635 0.607162 0
1.9635 0 0
2.35619 0 0
1.9635 0.607162 0
2.35619 0.607162 0
1.5708 0.607162 0
1.9635 0.607162 0
1.5708 1.2335 0
1.9635 1.2335 0
1.9635 0.607162 0
2.35619 0.607162 0
1.9635 1.2335 0
2.35619 1.2335 0
2.35619 0 0
2.74889 0 0
2.35619 0.607162 0
2.74889 0.607162 0
2.74889 0 0
3.14159 0 0
2.74889 0.607162 0
3.14159 0.607162 0
2.35619 0.607162 0
2.74889 0.607162 0
2.35619 1.2335 0
2.74889 1.2335 0
2.74889 0.607162 0
3.14159 0.607162 0
2.74889 1.2335 0
3.14159 1.2335 0
1.5708 1.2335 0
1.9635 1.2335 0
1.5708 1.85912 0
1.9635 1.85912 0
1.9635 1.2335 0
2.35619 1.2335 0
1.9635 1.85912 0
2.35619 1.85912 0
1.5708 1.85912 0
1.9635 1.85912 0
1.5708 2.48537 0
1.9635 2.48537 0
1.9635 1.85912 0
2.35619 1.85912 0
1.9635 2.48537 0
2.35619 2.48537 0
2.35619 1.2335 0
2.74889 1.2335 0
2.35619 1.85912 0
2.74889 1.85912 0
2.74889 1.2335 0
3.14159 1.2335 0
2.74889 1.85912 0
3.14159 1.85912 0
2.35619 1.85912 0
2.74889 1.85912 0
2.35619 2.48537 0
2.74889 2.48537 0
2.74889 1.85912 0
3.14159 1.85912 0
2.74889 2.48537 0
3.14159 2.48537 0
0 2.48537 0
0.392699 2.48537 0
0 3.11146 0
0.392699 3.11146 0
0.392699 2.48537 0
0.785398 2.48537 0
0.392699 3.11146 0
0.785398 3.11146 0
0 3.11146 0
0.392699 3.11146 0
0 3.73755 0
0.392699 3.73755 0
0.392699 3.11146 0
0.785398 3.11146 0
0.392699 3.73755 0
0.785398 3.73755 0
0.785398 2.48537 0
1.1781 2.48537 0
0.785398 3.11146 0
1.1781 3.11146 0
1.1781 2.48537 0
1.5708 2.48537 0
1.1781 3.11146 0
1.5708 3.11146 0
0.785398 3.11146 0
1.1781 3.11146 0
0.785398 3.73755 0
1.1781 3.73755 0
1.1781 3.11146 0
1.5708 3.11146 0
1.1781 3.73755 0
1.5708 3.73755 0
0 3.73755 0
0.392699 3.73755 0
0 4.36359 0
0.392699 4.36359 0
0.392699 3.73755 0
0.785398 3.73755 0
0.392699 4.36359 0
0.785398 4.36359 0
0 4.36359 0
0.392699 4.36359 0
0 4.98958 0
0.392699 4.98958 0
0.392699 4.36359 0
0.785398 4.36359 0
0.392699 4.98958 0
0.785398 4.98958 0
0.785398 3.73755 0
1.1781 3.73755 0
0.785398 4.36359 0
1.1781 4.36359 0
1.1781 3.73755 0
1.5708 3.73755 0
1.1781 4.36359 0
1.5708 4.36359 0
0.785398 4.36359 0
1.1781 4.36359 0
0.785398 4.98958 0
1.1781 4.98958 0
1.1781 4.36359 0
1.5708 4.36359 0
1.1781 4.98958 0
1.5708 4.98958 0
1.5708 2.48537 0
1.9635 2.48537 0
1.5708 3.11146 0
1.9635 3.11146 0
1.9635 2.48537 0
2.35619 2.48537 0
1.9635 3.11146 0
2.35619 3.11146 0
1.5708 3.11146 0
1.9635 3.11146 0
1.5708 3.73755 0
1.9635 3.73755 0
1.9635 3.11146 0
2.35619 3.11146 0
1.9635 3.73755 0
2.35619 3.73755 0
2.35619 2.48537 0
2.74889 2.48537 0
2.35619 3.11146 0
2.74889 3.11146 0
2.74889 2.48537 0
3.14159 2.48537 0
2.74889 3.11146 0
3.14159 3.11146 0
2.35619 3.11146 0
2.74889 3.11146 0
2.35619 3.73755 0
2.74889 3.73755 0
2.74889 3.11146 0
3.14159 3.11146 0
2.74889 3.73755 0
3.14159 3.73755 0
1.5708 3.73755 0
1.9635 3.73755 0
1.5708 4.36359 0
1.9635 4.36359 0
1.9635 3.73755 0
2.35619 3.73755 0
1.9635 4.36359 0
2.35619 4.36359 0
1.5708 4.36359 0
1.9635 4.36359 0
1.5708 4.98958 0
1.9635 4.98958 0
1.9635 4.36359 0
2.35619 4.36359 0
1.9635 4.98958 0
2.35619 4.98958 0
2.35619 3.73755 0
2.74889 3.73755 0
2.35619 4.36359 0
2.74889 4.36359 0
2.74889 3.73755 0
3.14159 3.73755 0
2.74889 4.36359 0
3.14159 4.36359 0
2.35619 4.36359 0
2.74889 4.36359 0
2.35619 4.98958 0
2.74889 4.98958 0
2.74889 4.36359 0
3.14159 4.36359 0
2.74889 4.98958 0
3.14159 4.98958 0
3.14159 0 0
3.53429 0 0
3.14159 0.607162 0
3.53429 0.607162 0
3.53429 0 0
3.92699 0 0
3.53429 0.607162 0
3.92699 0.607162 0
3.14159 0.607162 0
3.53429 0.607162 0
3.14159 1.2335 0
3.53429 1.2335 0
3.53429 0.607162 0
3.92699 0.607162 0
3.53429 1.2335 0
3.92699 1.2335 0
3.92699 0 0
4.31969 0 0
3.92699 0.607162 0
4.31969 0.607162 0
4.31969 0 0
4.71239 0 0
4.31969 0.607162 0
4.71239 0.607162 0
3.92699 0.607162 0
4.31969 0.607162 0
3.92699 1.2335 0
4.31969 1.2335 0
4.31969 0.607162 0
4.71239 0.607162 0
4.31969 1.2335 0
4.71239 1.2335 0
3.14159 1.2335 0
3.53429 1.2335 0
3.14159 1.85912 0
3.53429 1.85912 0
3.53429 1.2335 0
3.92699 1.2335 0
3.53429 1.85912 0
3.92699 1.85912 0
3.14159 1.85912 0
3.53429 1.85912 0
3.14159 2.48537 0
3.53429 2.48537 0
3.53429 1.85912 0
3.92699 1.85912 0
3.53429 2.48537 0
3.92699 2.48537 0
3.92699 1.2335 0
4.31969 1.2335 0
3.92699 1.85912 0
4.31969 1.85912 0
4.31969 1.2335 0
4.71239 1.2335 0
4.31969 1.85912 0
4.71239 1.85912 0
3.92699 1.85912 0
4.31969 1.85912 0
3.92699 2.48537 0
4.31969 2.48537 0
4.31969 1.85912 0
4.71239 1.85912 0
4.31969 2.48537 0
4.71239 2.48537 0
4.71239 0 0
5.10509 0 0
4.71239 0.607162 0
5.10509 0.607162 0
5.10509 0 0
5.49779 0 0
5.10509 0.607162 0
5.49779 0.607162 0
4.71239 0.607162 0
5.10509 0.607162 0
4.71239 1.2335 0
5.10509 1.2335 0
5.10509 0.607162 0
5.49779 0.607162 0
5.10509 1.2335 0
5.49779 1.2335 0
5.49779 0 0
5.89049 0 0
5.49779 0.607162 0
5.89049 0.607162 0
5.89049 0 0
6.28319 0 0
5.89049 0.607162 0
6.28319 0.607162 0
5.49779 0.607162 0
5.89049 0.607162 0
5.49779 1.2335 0
5.89049 1.2335 0
5.89049 0.607162 0
6.28319 0.607162 0
5.89049 1.2335 0
6.28319 1.2335 0
4.71239 1.2335 0
5.10509 1.2335 0
4.71239 1.85912 0
5.10509 1.85912 0
5.10509 1.2335 0
5.49779 1.2335 0
5.10509 1.85912 0
5.49779 1.85912 0
4.71239 1.85912 0
5.10509 1.85912 0
4.71239 2.48537 0
5.10509 2.48537 0
5.10509 1.85912 0
5.49779 1.85912 0
5.10509 2.48537 0
5.49779 2.48537 0
5.49779 1.2335 0
5.89049 1.2335 0
5.49779 1.85912 0
5.89049 1.85912 0
5.89049 1.2335 0
6.28319 1.2335 0
5.89049 1.85912 0
6.28319 1.85912 0
5.49779 1.85912 0
5.89049 1.85912 0
5.49779 2.48537 0
5.89049 2.48537 0
5.89049 1.85912 0
6.28319 1.85912 0
5.89049 2.48537 0
6.28319 2.48537 0
3.14159 2.48537 0
3.53429 2.48537 0
3.14159 3.11146 0
3.53429 3.11146 0
3.53429 2.48537 0
3.92699 2.48537 0
3.53429 3.11146 0
3.92699 3.11146 0
3.14159 3.11146 0
3.53429 3.11146 0
3.14159 3.73755 0
3.53429 3.73755 0
3.53429 3.11146 0
3.92699 3.11146 0
3.53429 3.73755 0
3.92699 3.73755 0
3.92699 2.48537 0
4.31969 2.48537 0
3.92699 3.11146 0
4.31969 3.11146 0
4.31969 2.48537 0
4.71239 2.48537 0
4.31969 3.11146 0
4.71239 3.11146 0
3.92699 3.11146 0
4.31969 3.11146 0
3.92699 3.73755 0
4.31969 3.73755 0
4.31969 3.11146 0
4.71239 3.11146 0
4.31969 3.73755 0
4.71239 3.73755 0
3.14159 3.73755 0
3.53429 3.73755 0
3.14159 4.36359 0
3.53429 4.36359 0
3.53429 3.73755 0
3.92699 3.73755 0
3.53429 4.36359 0
3.92699 4.36359 0
3.14159 4.36359 0
3.53429 4.36359 0
3.14159 4.98958 0
3.53429 4.98958 0
3.53429 4.36359 0
3.92699 4.36359 0
3.53429 4.98958 0
3.92699 4.98958 0
3.92699 3.73755 0
4.31969 3.73755 0
3.92699 4.36359 0
4.31969 4.36359 0
4.31969 3.73755 0
4.71239 3.73755 0
4.31969 4.36359 0
4.71239 4.36359 0
3.92699 4.36359 0
4.31969 4.36359 0
3.92699 4.98958 0
4.31969 4.98958 0
4.31969 4.36359 0
4.71239 4.36359 0
4.31969 4.98958 0
4.71239 4.98958 0
4.71239 2.48537 0
5.10509 2.48537 0
4.71239 3.11146 0
5.10509 3.11146 0
5.10509 2.48537 0
5.49779 2.48537 0
5.10509 3.11146 0
5.49779 3.11146 0
4.71239 3.11146 0
5.10509 3.11146 0
4.71239 3.73755 0
5.10509 3.73755 0
5.10509 3.11146 0
5.49779 3.11146 0
5.10509 3.73755 0
5.49779 3.73755 0
5.49779 2.48537 0
5.89049 2.48537 0
5.49779 3.11146 0
5.89049 3.11146 0
5.89049 2.48537 0
6.28319 2.48537 0
5.89049 3.11146 0
6.28319 3.11146 0
5.49779 3.11146 0
5.89049 3.11146 0
5.49779 3.73755 0
5.89049 3.73755 0
5.89049 3.11146 0
6.28319 3.11146 0
5.89049 3.73755 0
6.28319 3.73755 0
4.71239 3.73755 0
5.10509 3.73755 0
4.71239 4.36359 0
5.10509 4.36359 0
5.10509 3.73755 0
5.49779 3.73755 0
5.10509 4.36359 0
5.49779 4.36359 0
4.71239 4.36359 0
5.10509 4.36359 0
4.71239 4.98958 0
5.10509 4.98958 0
5.10509 4.36359 0
5.49779 4.36359 0
5.10509 4.98958 0
5.49779 4.98958 0
5.49779 3.73755 0
5.89049 3.73755 0
5.49779 4.36359 0
5.89049 4.36359 0
5.89049 3.73755 0
6.28319 3.73755 0
5.89049 4.36359 0
6.28319 4.36359 0
5.49779 4.36359 0
5.89049 4.36359 0
5.49779 4.98958 0
5.89049 4.98958 0
5.89049 4.36359 0
6.28319 4.36359 0
5.89049 4.98958 0
6.28319 4.98958 0
0 4.98958 0
0.392699 4.98958 0
0 5.61551 0
0.392699 5.61551 0
0.392699 4.98958 0
0.785398 4.98958 0
0.392699 5.61551 0
0.785398 5.61551 0
0 5.61551 0
0.392699 5.61551 0
0 6.24138 0
0.392699 6.24138 0
0.392699 5.61551 0
0.785398 5.61551 0
0.392699 6.24138 0
0.785398 6.24138 0
0.785398 4.98958 0
1.1781 4.98958 0
0.785398 5.61551 0
1.1781 5.61551 0
1.1781 4.98958 0
1.5708 4.98958 0
1.1781 5.61551 0
1.5708 5.61551 0
0.785398 5.61551 0
1.1781 5.61551 0
0.785398 6.24138 0
1.1781 6.24138 0
1.1781 5.61551 0
1.5708 5.61551 0
1.1781 6.24138 0
1.5708 6.24138 0
0 6.24138 0
0.392699 6.24138 0
0 6.86722 0
0.392699 6.86722 0
0.392699 6.24138 0
0.785398 6.24138 0
0.392699 6.86722 0
0.785398 6.86722 0
0 6.86722 0
0.392699 6.86722 0
0 7.49306 0
0.392699 7.49306 0
0.392699 6.86722 0
0.785398 6.86722 0
0.392699 7.49306 0
0.785398 7.49306 0
0.785398 6.24138 0
1.1781 6.24138 0
0.785398 6.86722 0
1.1781 6.86722 0
1.1781 6.24138 0
1.5708 6.24138 0
[...]
POINT_DATA 5120
VECTORS uf double
0 1 0
-5.80061e-14 1 0
0 1.00235 0
-6.71574e-14 1.00235 0
-5.80061e-14 1 0
-1.00163e-14 1 0
-6.71574e-14 1.00235 0
-2.76949e-15 1.00235 0
0 1.00235 0
2.36183e-14 1.00235 0
0 1.00355 0
1.67771e-14 1.00355 0
2.36183e-14 1.00235 0
1.7609e-14 1.00235 0
1.67771e-14 1.00355 0
1.0363e-14 1.00355 0
-1.00163e-14 1 0
1.14849e-13 1 0
-2.76949e-15 1.00235 0
1.1629e-13 1.00235 0
1.14849e-13 1 0
4.78157e-14 1 0
1.1629e-13 1.00235 0
4.88761e-14 1.00235 0
1.7609e-14 1.00235 0
-1.25239e-13 1.00235 0
1.0363e-14 1.00355 0
-9.61581e-14 1.00355 0
-1.25239e-13 1.00235 0
-4.71645e-14 1.00235 0
-9.61581e-14 1.00355 0
-4.39267e-14 1.00355 0
0 1.00355 0
1.71094e-14 1.00355 0
0 1.00501 0
1.83372e-14 1.00501 0
1.71094e-14 1.00355 0
-1.71905e-14 1.00355 0
1.83372e-14 1.00501 0
-1.06889e-14 1.00501 0
0 1.00501 0
3.52046e-14 1.00501 0
0 1.00637 0
3.9449e-14 1.00637 0
3.52046e-14 1.00501 0
7.11419e-14 1.00501 0
3.9449e-14 1.00637 0
6.58158e-14 1.00637 0
-1.71905e-14 1.00355 0
-1.13395e-14 1.00355 0
-1.06889e-14 1.00501 0
6.60275e-15 1.00501 0
-1.13395e-14 1.00355 0
-6.33649e-15 1.00355 0
6.60275e-15 1.00501 0
7.72198e-15 1.00501 0
7.11419e-14 1.00501 0
4.88576e-15 1.00501 0
6.58158e-14 1.00637 0
3.20054e-15 1.00637 0
4.88576e-15 1.00501 0
-2.92864e-14 1.00501 0
3.20054e-15 1.00637 0
-1.10017e-14 1.00637 0
4.78157e-14 1 0
-1.3234e-14 1 0
4.88761e-14 1.00235 0
-1.65819e-14 1.00235 0
-1.3234e-14 1 0
-5.20671e-15 1 0
-1.65819e-14 1.00235 0
1.40472e-15 1.00235 0
-4.71645e-14 1.00235 0
1.85404e-14 1.00235 0
-4.39267e-14 1.00355 0
1.52486e-14 1.00355 0
1.85404e-14 1.00235 0
-2.48061e-15 1.00235 0
1.52486e-14 1.00355 0
9.63276e-15 1.00355 0
-5.20671e-15 1 0
-7.98401e-16 1 0
1.40472e-15 1.00235 0
4.14055e-15 1.00235 0
-7.98401e-16 1 0
1.96501e-16 1 0
4.14055e-15 1.00235 0
7.12523e-16 1.00235 0
-2.48061e-15 1.00235 0
-5.34485e-15 1.00235 0
9.63276e-15 1.00355 0
7.58603e-15 1.00355 0
-5.34485e-15 1.00235 0
-2.26673e-16 1.00235 0
7.58603e-15 1.00355 0
1.20331e-14 1.00355 0
-6.33649e-15 1.00355 0
2.2483e-14 1.00355 0
7.72198e-15 1.00501 0
2.99027e-14 1.00501 0
2.2483e-14 1.00355 0
1.69264e-15 1.00355 0
2.99027e-14 1.00501 0
-5.50747e-16 1.00501 0
-2.92864e-14 1.00501 0
-2.41566e-15 1.00501 0
-1.10017e-14 1.00637 0
-8.20241e-15 1.00637 0
-2.41566e-15 1.00501 0
-5.25035e-16 1.00501 0
-8.20241e-15 1.00637 0
6.07332e-16 1.00637 0
1.69264e-15 1.00355 0
-2.39683e-15 1.00355 0
-5.50747e-16 1.00501 0
2.55179e-15 1.00501 0
-2.39683e-15 1.00355 0
-8.65258e-15 1.00355 0
2.55179e-15 1.00501 0
1.21394e-14 1.00501 0
-5.25035e-16 1.00501 0
1.85394e-15 1.00501 0
6.07332e-16 1.00637 0
3.67109e-15 1.00637 0
1.85394e-15 1.00501 0
-6.77772e-15 1.00501 0
3.67109e-15 1.00637 0
9.48762e-15 1.00637 0
0 1.00637 0
-4.20289e-14 1.00637 0
0 1.00772 0
-4.16573e-14 1.00772 0
-4.20289e-14 1.00637 0
-7.44783e-14 1.00637 0
-4.16573e-14 1.00772 0
-7.17977e-14 1.00772 0
0 1.00772 0
2.48876e-14 1.00772 0
0 1.00905 0
2.16108e-14 1.00905 0
2.48876e-14 1.00772 0
8.52899e-14 1.00772 0
2.16108e-14 1.00905 0
7.96316e-14 1.00905 0
-7.44783e-14 1.00637 0
-4.7924e-15 1.00637 0
-7.17977e-14 1.00772 0
1.45393e-15 1.00772 0
-4.7924e-15 1.00637 0
5.46627e-14 1.00637 0
1.45393e-15 1.00772 0
4.47303e-14 1.00772 0
8.52899e-14 1.00772 0
8.53374e-15 1.00772 0
7.96316e-14 1.00905 0
1.30456e-14 1.00905 0
8.53374e-15 1.00772 0
-6.57702e-14 1.00772 0
1.30456e-14 1.00905 0
-4.86433e-14 1.00905 0
0 1.00905 0
1.90945e-14 1.00905 0
0 1.01035 0
1.72462e-14 1.01035 0
1.90945e-14 1.00905 0
-1.51147e-13 1.00905 0
1.72462e-14 1.01035 0
-1.52576e-13 1.01035 0
0 1.01035 0
-9.87205e-15 1.01035 0
0 1.01164 0
-1.33024e-14 1.01164 0
-9.87205e-15 1.01035 0
1.34397e-13 1.01035 0
-1.33024e-14 1.01164 0
1.32883e-13 1.01164 0
-1.51147e-13 1.00905 0
-9.45911e-15 1.00905 0
-1.52576e-13 1.01035 0
-5.6037e-15 1.01035 0
-9.45911e-15 1.00905 0
9.38432e-14 1.00905 0
-5.6037e-15 1.01035 0
1.01799e-13 1.01035 0
1.34397e-13 1.01035 0
1.09221e-14 1.01035 0
1.32883e-13 1.01164 0
1.44436e-14 1.01164 0
1.09221e-14 1.01035 0
-1.32742e-13 1.01035 0
1.44436e-14 1.01164 0
-1.21328e-13 1.01164 0
5.46627e-14 1.00637 0
-1.52872e-14 1.00637 0
4.47303e-14 1.00772 0
-1.34956e-14 1.00772 0
-1.52872e-14 1.00637 0
-3.16767e-15 1.00637 0
-1.34956e-14 1.00772 0
6.24075e-15 1.00772 0
-6.57702e-14 1.00772 0
5.28355e-15 1.00772 0
-4.86433e-14 1.00905 0
8.31379e-15 1.00905 0
5.28355e-15 1.00772 0
-2.47051e-15 1.00772 0
8.31379e-15 1.00905 0
3.03832e-15 1.00905 0
-3.16767e-15 1.00637 0
-6.73757e-15 1.00637 0
6.24075e-15 1.00772 0
5.24608e-15 1.00772 0
-6.73757e-15 1.00637 0
-1.19914e-14 1.00637 0
5.24608e-15 1.00772 0
1.06719e-14 1.00772 0
-2.47051e-15 1.00772 0
-4.00595e-16 1.00772 0
3.03832e-15 1.00905 0
2.02049e-15 1.00905 0
-4.00595e-16 1.00772 0
-1.76131e-15 1.00772 0
2.02049e-15 1.00905 0
1.05679e-14 1.00905 0
9.38432e-14 1.00905 0
-1.46307e-14 1.00905 0
1.01799e-13 1.01035 0
-1.33827e-14 1.01035 0
-1.46307e-14 1.00905 0
-1.83565e-15 1.00905 0
-1.33827e-14 1.01035 0
-1.76925e-16 1.01035 0
-1.32742e-13 1.01035 0
-1.06043e-14 1.01035 0
-1.21328e-13 1.01164 0
-1.543e-14 1.01164 0
-1.06043e-14 1.01035 0
3.20007e-16 1.01035 0
-1.543e-14 1.01164 0
5.39767e-15 1.01164 0
-1.83565e-15 1.00905 0
4.16224e-15 1.00905 0
-1.76925e-16 1.01035 0
1.68909e-15 1.01035 0
4.16224e-15 1.00905 0
-4.97957e-15 1.00905 0
1.68909e-15 1.01035 0
5.93771e-15 1.01035 0
3.20007e-16 1.01035 0
-2.08256e-15 1.01035 0
5.39767e-15 1.01164 0
1.28716e-15 1.01164 0
-2.08256e-15 1.01035 0
-3.95419e-15 1.01035 0
1.28716e-15 1.01164 0
6.10639e-15 1.01164 0
1.96501e-16 1 0
-5.61163e-15 1 0
7.12523e-16 1.00235 0
1.06632e-14 1.00235 0
-5.61163e-15 1 0
3.26141e-15 1 0
1.06632e-14 1.00235 0
2.46122e-15 1.00235 0
-2.26673e-16 1.00235 0
5.56784e-15 1.00235 0
1.20331e-14 1.00355 0
5.61212e-15 1.00355 0
5.56784e-15 1.00235 0
-6.56591e-16 1.00235 0
5.61212e-15 1.00355 0
8.75712e-15 1.00355 0
3.26141e-15 1 0
1.25232e-15 1 0
2.46122e-15 1.00235 0
8.60867e-15 1.00235 0
1.25232e-15 1 0
-4.92305e-15 1 0
8.60867e-15 1.00235 0
9.60439e-15 1.00235 0
-6.56591e-16 1.00235 0
-7.54142e-15 1.00235 0
8.75712e-15 1.00355 0
1.04756e-14 1.00355 0
-7.54142e-15 1.00235 0
3.95738e-15 1.00235 0
1.04756e-14 1.00355 0
1.79094e-15 1.00355 0
-8.65258e-15 1.00355 0
-8.37004e-15 1.00355 0
1.21394e-14 1.00501 0
7.19773e-15 1.00501 0
-8.37004e-15 1.00355 0
1.03069e-15 1.00355 0
7.19773e-15 1.00501 0
-4.5694e-17 1.00501 0
-6.77772e-15 1.00501 0
6.66425e-15 1.00501 0
9.48762e-15 1.00637 0
4.51823e-15 1.00637 0
6.66425e-15 1.00501 0
6.32642e-15 1.00501 0
4.51823e-15 1.00637 0
4.49247e-15 1.00637 0
1.03069e-15 1.00355 0
8.68308e-15 1.00355 0
-4.5694e-17 1.00501 0
1.72026e-16 1.00501 0
8.68308e-15 1.00355 0
-2.26836e-16 1.00355 0
1.72026e-16 1.00501 0
1.00242e-14 1.00501 0
6.32642e-15 1.00501 0
-3.22536e-15 1.00501 0
4.49247e-15 1.00637 0
3.81407e-15 1.00637 0
-3.22536e-15 1.00501 0
-6.40638e-16 1.00501 0
3.81407e-15 1.00637 0
7.08048e-15 1.00637 0
-4.92305e-15 1 0
5.83705e-16 1 0
9.60439e-15 1.00235 0
8.74215e-15 1.00235 0
5.83705e-16 1 0
-5.06358e-16 1 0
8.74215e-15 1.00235 0
1.26825e-14 1.00235 0
3.95738e-15 1.00235 0
1.80034e-15 1.00235 0
1.79094e-15 1.00355 0
5.78817e-15 1.00355 0
1.80034e-15 1.00235 0
-1.41436e-14 1.00235 0
5.78817e-15 1.00355 0
2.0465e-14 1.00355 0
-5.06358e-16 1 0
7.59491e-15 1 0
1.26825e-14 1.00235 0
7.85029e-16 1.00235 0
7.59491e-15 1 0
2.61305e-15 1 0
7.85029e-16 1.00235 0
5.61062e-15 1.00235 0
-1.41436e-14 1.00235 0
5.25618e-15 1.00235 0
2.0465e-14 1.00355 0
2.3029e-15 1.00355 0
5.25618e-15 1.00235 0
3.07273e-15 1.00235 0
2.3029e-15 1.00355 0
4.69995e-15 1.00355 0
-2.26836e-16 1.00355 0
-1.09874e-14 1.00355 0
1.00242e-14 1.00501 0
9.96913e-15 1.00501 0
-1.09874e-14 1.00355 0
6.3785e-15 1.00355 0
9.96913e-15 1.00501 0
8.61683e-16 1.00501 0
-6.40638e-16 1.00501 0
5.5223e-15 1.00501 0
7.08048e-15 1.00637 0
3.01664e-15 1.00637 0
5.5223e-15 1.00501 0
-3.06612e-15 1.00501 0
3.01664e-15 1.00637 0
5.7817e-15 1.00637 0
6.3785e-15 1.00355 0
-5.77194e-15 1.00355 0
8.61683e-16 1.00501 0
1.5606e-14 1.00501 0
-5.77194e-15 1.00355 0
-8.07295e-15 1.00355 0
1.5606e-14 1.00501 0
1.31056e-14 1.00501 0
-3.06612e-15 1.00501 0
3.25283e-15 1.00501 0
5.7817e-15 1.00637 0
5.68465e-15 1.00637 0
3.25283e-15 1.00501 0
-2.9245e-15 1.00501 0
5.68465e-15 1.00637 0
1.13773e-14 1.00637 0
-1.19914e-14 1.00637 0
-3.84635e-16 1.00637 0
1.06719e-14 1.00772 0
-2.10457e-15 1.00772 0
-3.84635e-16 1.00637 0
-3.91933e-15 1.00637 0
-2.10457e-15 1.00772 0
2.39635e-15 1.00772 0
-1.76131e-15 1.00772 0
-7.47535e-15 1.00772 0
1.05679e-14 1.00905 0
7.19065e-15 1.00905 0
-7.47535e-15 1.00772 0
2.77571e-15 1.00772 0
7.19065e-15 1.00905 0
6.39233e-16 1.00905 0
-3.91933e-15 1.00637 0
2.41036e-15 1.00637 0
2.39635e-15 1.00772 0
4.56301e-15 1.00772 0
2.41036e-15 1.00637 0
-7.11192e-15 1.00637 0
4.56301e-15 1.00772 0
1.01087e-14 1.00772 0
2.77571e-15 1.00772 0
-2.46473e-15 1.00772 0
6.39233e-16 1.00905 0
3.45362e-15 1.00905 0
-2.46473e-15 1.00772 0
-6.60705e-15 1.00772 0
3.45362e-15 1.00905 0
3.34607e-15 1.00905 0
-4.97957e-15 1.00905 0
2.28917e-15 1.00905 0
5.93771e-15 1.01035 0
9.51205e-15 1.01035 0
2.28917e-15 1.00905 0
6.00246e-16 1.00905 0
9.51205e-15 1.01035 0
6.35443e-15 1.01035 0
-3.95419e-15 1.01035 0
-8.96975e-16 1.01035 0
6.10639e-15 1.01164 0
4.1586e-15 1.01164 0
-8.96975e-16 1.01035 0
-2.14387e-15 1.01035 0
4.1586e-15 1.01164 0
8.50939e-15 1.01164 0
6.00246e-16 1.00905 0
-7.02317e-15 1.00905 0
6.35443e-15 1.01035 0
6.27913e-15 1.01035 0
-7.02317e-15 1.00905 0
4.64845e-16 1.00905 0
6.27913e-15 1.01035 0
3.94973e-15 1.01035 0
-2.14387e-15 1.01035 0
4.45147e-15 1.01035 0
8.50939e-15 1.01164 0
-1.13601e-15 1.01164 0
4.45147e-15 1.01035 0
-4.49641e-17 1.01035 0
-1.13601e-15 1.01164 0
2.88563e-15 1.01164 0
-7.11192e-15 1.00637 0
-5.85886e-16 1.00637 0
1.01087e-14 1.00772 0
3.37994e-15 1.00772 0
-5.85886e-16 1.00637 0
-2.49447e-15 1.00637 0
3.37994e-15 1.00772 0
1.16632e-14 1.00772 0
-6.60705e-15 1.00772 0
-5.09023e-15 1.00772 0
3.34607e-15 1.00905 0
1.91943e-15 1.00905 0
-5.09023e-15 1.00772 0
-4.80374e-15 1.00772 0
1.91943e-15 1.00905 0
-1.30692e-15 1.00905 0
-2.49447e-15 1.00637 0
3.54155e-15 1.00637 0
1.16632e-14 1.00772 0
-3.08875e-15 1.00772 0
3.54155e-15 1.00637 0
-9.43934e-16 1.00637 0
-3.08875e-15 1.00772 0
5.58042e-15 1.00772 0
-4.80374e-15 1.00772 0
-7.06535e-16 1.00772 0
-1.30692e-15 1.00905 0
5.57754e-15 1.00905 0
-7.06535e-16 1.00772 0
-6.40982e-15 1.00772 0
5.57754e-15 1.00905 0
3.6226e-15 1.00905 0
4.64845e-16 1.00905 0
3.89651e-15 1.00905 0
3.94973e-15 1.01035 0
-1.51586e-15 1.01035 0
3.89651e-15 1.00905 0
-3.51198e-15 1.00905 0
-1.51586e-15 1.01035 0
5.88177e-15 1.01035 0
-4.49641e-17 1.01035 0
2.98943e-15 1.01035 0
2.88563e-15 1.01164 0
-6.53799e-16 1.01164 0
2.98943e-15 1.01035 0
-4.40325e-15 1.01035 0
-6.53799e-16 1.01164 0
9.93843e-15 1.01164 0
-3.51198e-15 1.00905 0
2.35982e-15 1.00905 0
5.88177e-15 1.01035 0
5.53448e-16 1.01035 0
2.35982e-15 1.00905 0
1.44985e-15 1.00905 0
5.53448e-16 1.01035 0
4.04455e-15 1.01035 0
-4.40325e-15 1.01035 0
-4.28406e-16 1.01035 0
9.93843e-15 1.01164 0
-1.87248e-15 1.01164 0
-4.28406e-16 1.01035 0
1.85027e-15 1.01035 0
-1.87248e-15 1.01164 0
-4.30449e-15 1.01164 0
0 1.01164 0
-2.55799e-15 1.01164 0
0 1.01292 0
1.15592e-15 1.01292 0
-2.55799e-15 1.01164 0
-8.72491e-14 1.01164 0
1.15592e-15 1.01292 0
-8.23108e-14 1.01292 0
0 1.01292 0
1.04292e-14 1.01292 0
0 1.0142 0
9.26717e-15 1.0142 0
1.04292e-14 1.01292 0
6.27956e-14 1.01292 0
9.26717e-15 1.0142 0
6.43458e-14 1.0142 0
-8.72491e-14 1.01164 0
7.93809e-15 1.01164 0
-8.23108e-14 1.01292 0
6.18484e-15 1.01292 0
7.93809e-15 1.01164 0
8.93615e-14 1.01164 0
6.18484e-15 1.01292 0
8.09211e-14 1.01292 0
6.27956e-14 1.01292 0
-2.98382e-14 1.01292 0
6.43458e-14 1.0142 0
-2.34177e-14 1.0142 0
-2.98382e-14 1.01292 0
-2.0781e-14 1.01292 0
-2.34177e-14 1.0142 0
-1.36589e-14 1.0142 0
0 1.0142 0
-1.56993e-14 1.0142 0
0 1.01548 0
-1.62794e-14 1.01548 0
-1.56993e-14 1.0142 0
-4.08283e-14 1.0142 0
-1.62794e-14 1.01548 0
-3.78961e-14 1.01548 0
0 1.01548 0
1.02709e-16 1.01548 0
0 1.01678 0
5.31595e-15 1.01678 0
1.02709e-16 1.01548 0
1.77741e-14 1.01548 0
5.31595e-15 1.01678 0
1.76433e-14 1.01678 0
-4.08283e-14 1.0142 0
1.12446e-14 1.0142 0
-3.78961e-14 1.01548 0
8.78302e-15 1.01548 0
1.12446e-14 1.0142 0
3.05531e-15 1.0142 0
8.78302e-15 1.01548 0
5.66003e-15 1.01548 0
1.77741e-14 1.01548 0
-9.82627e-15 1.01548 0
1.76433e-14 1.01678 0
-3.79183e-15 1.01678 0
-9.82627e-15 1.01548 0
-2.94479e-15 1.01548 0
-3.79183e-15 1.01678 0
-2.1842e-15 1.01678 0
8.93615e-14 1.01164 0
-3.38061e-15 1.01164 0
8.09211e-14 1.01292 0
2.5534e-15 1.01292 0
-3.38061e-15 1.01164 0
-4.56709e-15 1.01164 0
2.5534e-15 1.01292 0
3.57541e-15 1.01292 0
-2.0781e-14 1.01292 0
2.06145e-14 1.01292 0
-1.36589e-14 1.0142 0
2.52211e-14 1.0142 0
2.06145e-14 1.01292 0
-3.93176e-15 1.01292 0
2.52211e-14 1.0142 0
-1.36772e-15 1.0142 0
-4.56709e-15 1.01164 0
6.1826e-16 1.01164 0
3.57541e-15 1.01292 0
2.83806e-15 1.01292 0
6.1826e-16 1.01164 0
-1.09737e-15 1.01164 0
2.83806e-15 1.01292 0
7.95484e-15 1.01292 0
-3.93176e-15 1.01292 0
-7.2266e-15 1.01292 0
-1.36772e-15 1.0142 0
7.24314e-15 1.0142 0
-7.2266e-15 1.01292 0
-8.79286e-15 1.01292 0
7.24314e-15 1.0142 0
4.44848e-15 1.0142 0
3.05531e-15 1.0142 0
-8.79219e-15 1.0142 0
5.66003e-15 1.01548 0
-1.39757e-15 1.01548 0
-8.79219e-15 1.0142 0
2.12126e-15 1.0142 0
-1.39757e-15 1.01548 0
4.25315e-15 1.01548 0
-2.94479e-15 1.01548 0
-4.53112e-15 1.01548 0
-2.1842e-15 1.01678 0
5.15621e-16 1.01678 0
-4.53112e-15 1.01548 0
-4.89683e-15 1.01548 0
5.15621e-16 1.01678 0
5.77637e-15 1.01678 0
2.12126e-15 1.0142 0
-1.55323e-15 1.0142 0
4.25315e-15 1.01548 0
5.46316e-15 1.01548 0
-1.55323e-15 1.0142 0
-3.44562e-15 1.0142 0
5.46316e-15 1.01548 0
5.86814e-15 1.01548 0
-4.89683e-15 1.01548 0
-3.62172e-15 1.01548 0
5.77637e-15 1.01678 0
5.3773e-15 1.01678 0
-3.62172e-15 1.01548 0
-4.56288e-15 1.01548 0
5.3773e-15 1.01678 0
7.05552e-15 1.01678 0
0 1.01678 0
1.4637e-14 1.01678 0
0 1.01809 0
1.07272e-14 1.01809 0
1.4637e-14 1.01678 0
-2.33623e-14 1.01678 0
1.07272e-14 1.01809 0
-2.2566e-14 1.01809 0
0 1.01809 0
-2.04405e-14 1.01809 0
0 1.01937 0
-1.40608e-14 1.01937 0
-2.04405e-14 1.01809 0
3.10472e-14 1.01809 0
-1.40608e-14 1.01937 0
2.79365e-14 1.01937 0
-2.33623e-14 1.01678 0
-1.73112e-15 1.01678 0
-2.2566e-14 1.01809 0
7.04673e-16 1.01809 0
-1.73112e-15 1.01678 0
-1.29983e-14 1.01678 0
7.04673e-16 1.01809 0
-5.73517e-15 1.01809 0
3.10472e-14 1.01809 0
3.70175e-15 1.01809 0
2.79365e-14 1.01937 0
6.46754e-15 1.01937 0
3.70175e-15 1.01809 0
1.29313e-15 1.01809 0
6.46754e-15 1.01937 0
3.49007e-15 1.01937 0
0 1.01937 0
1.242e-14 1.01937 0
0 1.02048 0
1.22769e-14 1.02048 0
1.242e-14 1.01937 0
-1.50425e-14 1.01937 0
1.22769e-14 1.02048 0
-1.56235e-14 1.02048 0
0 1.02048 0
-8.75795e-16 1.02048 0
0 1.02094 0
-1.15833e-14 1.02094 0
-8.75795e-16 1.02048 0
2.3264e-15 1.02048 0
-1.15833e-14 1.02094 0
1.36628e-14 1.02094 0
-1.50425e-14 1.01937 0
2.77198e-15 1.01937 0
-1.56235e-14 1.02048 0
7.68367e-17 1.02048 0
2.77198e-15 1.01937 0
1.79576e-15 1.01937 0
7.68367e-17 1.02048 0
3.89273e-15 1.02048 0
2.3264e-15 1.02048 0
-3.12904e-15 1.02048 0
1.36628e-14 1.02094 0
-9.62054e-15 1.02094 0
-3.12904e-15 1.02048 0
-9.55694e-16 1.02048 0
-9.62054e-15 1.02094 0
8.66748e-15 1.02094 0
-1.29983e-14 1.01678 0
-5.78801e-15 1.01678 0
-5.73517e-15 1.01809 0
6.70512e-15 1.01809 0
-5.78801e-15 1.01678 0
-7.14407e-16 1.01678 0
6.70512e-15 1.01809 0
3.40011e-15 1.01809 0
1.29313e-15 1.01809 0
-6.8927e-15 1.01809 0
3.49007e-15 1.01937 0
-1.83558e-15 1.01937 0
-6.8927e-15 1.01809 0
-4.62925e-15 1.01809 0
-1.83558e-15 1.01937 0
2.90662e-15 1.01937 0
-7.14407e-16 1.01678 0
-1.49867e-15 1.01678 0
3.40011e-15 1.01809 0
2.82652e-15 1.01809 0
-1.49867e-15 1.01678 0
-8.79206e-16 1.01678 0
2.82652e-15 1.01809 0
1.65512e-15 1.01809 0
-4.62925e-15 1.01809 0
-6.12378e-15 1.01809 0
2.90662e-15 1.01937 0
1.26107e-15 1.01937 0
-6.12378e-15 1.01809 0
-3.01171e-15 1.01809 0
1.26107e-15 1.01937 0
2.42477e-16 1.01937 0
1.79576e-15 1.01937 0
1.32887e-16 1.01937 0
3.89273e-15 1.02048 0
5.06068e-15 1.02048 0
1.32887e-16 1.01937 0
-1.54484e-15 1.01937 0
5.06068e-15 1.02048 0
1.60501e-15 1.02048 0
-9.55694e-16 1.02048 0
-2.93449e-15 1.02048 0
8.66748e-15 1.02094 0
1.14217e-15 1.02094 0
-2.93449e-15 1.02048 0
-1.40584e-15 1.02048 0
1.14217e-15 1.02094 0
5.38851e-16 1.02094 0
-1.54484e-15 1.01937 0
-1.528e-15 1.01937 0
1.60501e-15 1.02048 0
9.24487e-16 1.02048 0
-1.528e-15 1.01937 0
-1.47282e-15 1.01937 0
9.24487e-16 1.02048 0
5.41908e-15 1.02048 0
-1.40584e-15 1.02048 0
-7.60639e-16 1.02048 0
5.38851e-16 1.02094 0
5.31143e-15 1.02094 0
-7.60639e-16 1.02048 0
4.77835e-16 1.02048 0
5.31143e-15 1.02094 0
-8.66006e-15 1.02094 0
-1.09737e-15 1.01164 0
-1.76226e-15 1.01164 0
7.95484e-15 1.01292 0
4.90918e-15 1.01292 0
-1.76226e-15 1.01164 0
-6.94617e-15 1.01164 0
4.90918e-15 1.01292 0
-2.91032e-17 1.01292 0
-8.79286e-15 1.01292 0
-3.40127e-15 1.01292 0
4.44848e-15 1.0142 0
5.84632e-15 1.0142 0
-3.40127e-15 1.01292 0
2.46249e-15 1.01292 0
5.84632e-15 1.0142 0
1.40335e-15 1.0142 0
-6.94617e-15 1.01164 0
-9.08804e-16 1.01164 0
-2.91032e-17 1.01292 0
1.20824e-15 1.01292 0
-9.08804e-16 1.01164 0
-2.92839e-15 1.01164 0
1.20824e-15 1.01292 0
4.18387e-15 1.01292 0
2.46249e-15 1.01292 0
-3.3131e-15 1.01292 0
1.40335e-15 1.0142 0
3.50632e-15 1.0142 0
-3.3131e-15 1.01292 0
-6.51573e-16 1.01292 0
3.50632e-15 1.0142 0
1.54091e-16 1.0142 0
-3.44562e-15 1.0142 0
-2.76947e-15 1.0142 0
5.86814e-15 1.01548 0
4.17383e-15 1.01548 0
-2.76947e-15 1.0142 0
-3.77148e-15 1.0142 0
4.17383e-15 1.01548 0
4.56447e-15 1.01548 0
-4.56288e-15 1.01548 0
-3.68646e-15 1.01548 0
7.05552e-15 1.01678 0
3.96226e-15 1.01678 0
-3.68646e-15 1.01548 0
-1.34084e-15 1.01548 0
3.96226e-15 1.01678 0
-6.09756e-16 1.01678 0
-3.77148e-15 1.0142 0
-4.19785e-15 1.0142 0
4.56447e-15 1.01548 0
7.49562e-15 1.01548 0
-4.19785e-15 1.0142 0
2.627e-16 1.0142 0
7.49562e-15 1.01548 0
-6.63808e-17 1.01548 0
-1.34084e-15 1.01548 0
-2.32212e-15 1.01548 0
-6.09756e-16 1.01678 0
4.43925e-15 1.01678 0
-2.32212e-15 1.01548 0
1.24778e-15 1.01548 0
4.43925e-15 1.01678 0
1.19094e-15 1.01678 0
-2.92839e-15 1.01164 0
3.09567e-16 1.01164 0
4.18387e-15 1.01292 0
2.7666e-15 1.01292 0
3.09567e-16 1.01164 0
-3.48974e-15 1.01164 0
2.7666e-15 1.01292 0
4.90031e-15 1.01292 0
-6.51573e-16 1.01292 0
-2.66671e-15 1.01292 0
1.54091e-16 1.0142 0
4.83296e-15 1.0142 0
-2.66671e-15 1.01292 0
-9.5281e-16 1.01292 0
4.83296e-15 1.0142 0
9.50374e-16 1.0142 0
-3.48974e-15 1.01164 0
-1.61314e-15 1.01164 0
4.90031e-15 1.01292 0
2.70217e-15 1.01292 0
-1.61314e-15 1.01164 0
5.44785e-15 1.01164 0
2.70217e-15 1.01292 0
-2.07043e-16 1.01292 0
-9.5281e-16 1.01292 0
3.06462e-15 1.01292 0
9.50374e-16 1.0142 0
-6.5792e-16 1.0142 0
3.06462e-15 1.01292 0
-2.13622e-15 1.01292 0
-6.5792e-16 1.0142 0
3.27042e-15 1.0142 0
2.627e-16 1.0142 0
-4.11701e-15 1.0142 0
-6.63808e-17 1.01548 0
4.48628e-15 1.01548 0
-4.11701e-15 1.0142 0
4.48854e-15 1.0142 0
4.48628e-15 1.01548 0
1.58228e-15 1.01548 0
1.24778e-15 1.01548 0
-1.86225e-15 1.01548 0
1.19094e-15 1.01678 0
2.38962e-15 1.01678 0
-1.86225e-15 1.01548 0
-6.0557e-15 1.01548 0
2.38962e-15 1.01678 0
5.25643e-15 1.01678 0
4.48854e-15 1.0142 0
3.48858e-18 1.0142 0
1.58228e-15 1.01548 0
3.16855e-15 1.01548 0
3.48858e-18 1.0142 0
-3.81892e-15 1.0142 0
3.16855e-15 1.01548 0
7.91269e-15 1.01548 0
-6.0557e-15 1.01548 0
-9.82665e-16 1.01548 0
5.25643e-15 1.01678 0
2.57979e-16 1.01678 0
-9.82665e-16 1.01548 0
4.52899e-16 1.01548 0
2.57979e-16 1.01678 0
2.46625e-15 1.01678 0
-8.79206e-16 1.01678 0
-3.74909e-15 1.01678 0
1.65512e-15 1.01809 0
2.27804e-15 1.01809 0
-3.74909e-15 1.01678 0
-3.26377e-15 1.01678 0
2.27804e-15 1.01809 0
1.87146e-15 1.01809 0
-3.01171e-15 1.01809 0
2.10983e-15 1.01809 0
2.42477e-16 1.01937 0
-5.52225e-16 1.01937 0
2.10983e-15 1.01809 0
-2.95188e-15 1.01809 0
-5.52225e-16 1.01937 0
2.14971e-15 1.01937 0
-3.26377e-15 1.01678 0
-9.32124e-16 1.01678 0
1.87146e-15 1.01809 0
-5.45264e-16 1.01809 0
-9.32124e-16 1.01678 0
-2.9475e-15 1.01678 0
-5.45264e-16 1.01809 0