# vtk DataFile Version 3.0
#This file was generated by the deal.II library on 2018/10/12 at 1:03:45
ASCII
DATASET UNSTRUCTURED_GRID

POINTS 5120 double
0 0 0
0.392699 0 0
0 0.600819 0
0.392699 0.600819 0
0.392699 0 0
0.785398 0 0
0.392699 0.600819 0
0.785398 0.600819 0
0 0.600819 0
0.392699 0.600819 0
0 1.2276 0
0.392699 1.2276 0
0.392699 0.600819 0
0.785398 0.600819 0
0.392699 1.2276 0
0.785398 1.2276 0
0.785398 0 0
1.1781 0 0
0.785398 0.600819 0
1.1781 0.600819 0
1.1781 0 0
1.5708 0 0
1.1781 0.600819 0
1.5708 0.600819 0
0.785398 0.600819 0
1.1781 0.600819 0
0.785398 1.2276 0
1.1781 1.2276 0
1.1781 0.600819 0
1.5708 0.600819 0
1.1781 1.2276 0
1.5708 1.2276 0
0 1.2276 0
0.392699 1.2276 0
0 1.85347 0
0.392699 1.85347 0
0.392699 1.2276 0
0.785398 1.2276 0
0.392699 1.85347 0
0.785398 1.85347 0
0 1.85347 0
0.392699 1.85347 0
0 2.48022 0
0.392699 2.48022 0
0.392699 1.85347 0
0.785398 1.85347 0
0.392699 2.48022 0
0.785398 2.48022 0
0.785398 1.2276 0
1.1781 1.2276 0
0.785398 1.85347 0
1.1781 1.85347 0
1.1781 1.2276 0
1.5708 1.2276 0
1.1781 1.85347 0
1.5708 1.85347 0
0.785398 1.85347 0
1.1781 1.85347 0
0.785398 2.48022 0
1.1781 2.48022 0
1.1781 1.85347 0
1.5708 1.85347 0
1.1781 2.48022 0
1.5708 2.48022 0
1.5708 0 0
1.9635 0 0
1.5708 0.600819 0
1.9635 0.600819 0
1.9635 0 0
2.35619 0 0
1.9635 0.600819 0
2.35619 0.600819 0
1.5708 0.600819 0
1.9635 0.600819 0
1.5708 1.2276 0
1.9635 1.2276 0
1.9635 0.600819 0
2.35619 0.600819 0
1.9635 1.2276 0
2.35619 1.2276 0
2.35619 0 0
2.74889 0 0
2.35619 0.600819 0
2.74889 0.600819 0
2.74889 0 0
3.14159 0 0
2.74889 0.600819 0
3.14159 0.600819 0
2.35619 0.600819 0
2.74889 0.600819 0
2.35619 1.2276 0
2.74889 1.2276 0
2.74889 0.600819 0
3.14159 0.600819 0
2.74889 1.2276 0
3.14159 1.2276 0
1.5708 1.2276 0
1.9635 1.2276 0
1.5708 1.85347 0
1.9635 1.85347 0
1.9635 1.2276 0
2.35619 1.2276 0
1.9635 1.85347 0
2.35619 1.85347 0
1.5708 1.85347 0
1.9635 1.85347 0
1.5708 2.48022 0
1.9635 2.48022 0
1.9635 1.85347 0
2.35619 1.85347 0
1.9635 2.48022 0
2.35619 2.48022 0
2.35619 1.2276 0
2.74889 1.2276 0
2.35619 1.85347 0
2.74889 1.85347 0
2.74889 1.2276 0
3.14159 1.2276 0
2.74889 1.85347 0
3.14159 1.85347 0
2.35619 1.85347 0
2.74889 1.85347 0
2.35619 2.48022 0
2.74889 2.48022 0
2.74889 1.85347 0
3.14159 1.85347 0
2.74889 2.48022 0
3.14159 2.48022 0
0 2.48022 0
0.392699 2.48022 0
0 3.10673 0
0.392699 3.10673 0
0.392699 2.48022 0
0.785398 2.48022 0
0.392699 3.10673 0
0.785398 3.10673 0
0 3.10673 0
0.392699 3.10673 0
0 3.73325 0
0.392699 3.73325 0
0.392699 3.10673 0
0.785398 3.10673 0
0.392699 3.73325 0
0.785398 3.73325 0
0.785398 2.48022 0
1.1781 2.48022 0
0.785398 3.10673 0
1.1781 3.10673 0
1.1781 2.48022 0
1.5708 2.48022 0
1.1781 3.10673 0
1.5708 3.10673 0
0.785398 3.10673 0
1.1781 3.10673 0
0.785398 3.73325 0
1.1781 3.73325 0
1.1781 3.10673 0
1.5708 3.10673 0
1.1781 3.73325 0
1.5708 3.73325 0
0 3.73325 0
0.392699 3.73325 0
0 4.35971 0
0.392699 4.35971 0
0.392699 3.73325 0
0.785398 3.73325 0
0.392699 4.35971 0
0.785398 4.35971 0
0 4.35971 0
0.392699 4.35971 0
0 4.9861 0
0.392699 4.9861 0
0.392699 4.35971 0
0.785398 4.35971 0
0.392699 4.9861 0
0.785398 4.9861 0
0.785398 3.73325 0
1.1781 3.73325 0
0.785398 4.35971 0
1.1781 4.35971 0
1.1781 3.73325 0
1.5708 3.73325 0
1.1781 4.35971 0
1.5708 4.35971 0
0.785398 4.35971 0
1.1781 4.35971 0
0.785398 4.9861 0
1.1781 4.9861 0
1.1781 4.35971 0
1.5708 4.35971 0
1.1781 4.9861 0
1.5708 4.9861 0
1.5708 2.48022 0
1.9635 2.48022 0
1.5708 3.10673 0
1.9635 3.10673 0
1.9635 2.48022 0
2.35619 2.48022 0
1.9635 3.10673 0
2.35619 3.10673 0
1.5708 3.10673 0
1.9635 3.10673 0
1.5708 3.73325 0
1.9635 3.73325 0
1.9635 3.10673 0
2.35619 3.10673 0
1.9635 3.73325 0
2.35619 3.73325 0
2.35619 2.48022 0
2.74889 2.48022 0
2.35619 3.10673 0
2.74889 3.10673 0
2.74889 2.48022 0
3.14159 2.48022 0
2.74889 3.10673 0
3.14159 3.10673 0
2.35619 3.10673 0
2.74889 3.10673 0
2.35619 3.73325 0
2.74889 3.73325 0
2.74889 3.10673 0
3.14159 3.10673 0
2.74889 3.73325 0
3.14159 3.73325 0
1.5708 3.73325 0
1.9635 3.73325 0
1.5708 4.35971 0
1.9635 4.35971 0
1.9635 3.73325 0
2.35619 3.73325 0
1.9635 4.35971 0
2.35619 4.35971 0
1.5708 4.35971 0
1.9635 4.35971 0
1.5708 4.9861 0
1.9635 4.9861 0
1.9635 4.35971 0
2.35619 4.35971 0
1.9635 4.9861 0
2.35619 4.9861 0
2.35619 3.73325 0
2.74889 3.73325 0
2.35619 4.35971 0
2.74889 4.35971 0
2.74889 3.73325 0
3.14159 3.73325 0
2.74889 4.35971 0
3.14159 4.35971 0
2.35619 4.35971 0
2.74889 4.35971 0
2.35619 4.9861 0
2.74889 4.9861 0
2.74889 4.35971 0
3.14159 4.35971 0
2.74889 4.9861 0
3.14159 4.9861 0
3.14159 0 0
3.53429 0 0
3.14159 0.600819 0
3.53429 0.600819 0
3.53429 0 0
3.92699 0 0
3.53429 0.600819 0
3.92699 0.600819 0
3.14159 0.600819 0
3.53429 0.600819 0
3.14159 1.2276 0
3.53429 1.2276 0
3.53429 0.600819 0
3.92699 0.600819 0
3.53429 1.2276 0
3.92699 1.2276 0
3.92699 0 0
4.31969 0 0
3.92699 0.600819 0
4.31969 0.600819 0
4.31969 0 0
4.71239 0 0
4.31969 0.600819 0
4.71239 0.600819 0
3.92699 0.600819 0
4.31969 0.600819 0
3.92699 1.2276 0
4.31969 1.2276 0
4.31969 0.600819 0
4.71239 0.600819 0
4.31969 1.2276 0
4.71239 1.2276 0
3.14159 1.2276 0
3.53429 1.2276 0
3.14159 1.85347 0
3.53429 1.85347 0
3.53429 1.2276 0
3.92699 1.2276 0
3.53429 1.85347 0
3.92699 1.85347 0
3.14159 1.85347 0
3.53429 1.85347 0
3.14159 2.48022 0
3.53429 2.48022 0
3.53429 1.85347 0
3.92699 1.85347 0
3.53429 2.48022 0
3.92699 2.48022 0
3.92699 1.2276 0
4.31969 1.2276 0
3.92699 1.85347 0
4.31969 1.85347 0
4.31969 1.2276 0
4.71239 1.2276 0
4.31969 1.85347 0
4.71239 1.85347 0
3.92699 1.85347 0
4.31969 1.85347 0
3.92699 2.48022 0
4.31969 2.48022 0
4.31969 1.85347 0
4.71239 1.85347 0
4.31969 2.48022 0
4.71239 2.48022 0
4.71239 0 0
5.10509 0 0
4.71239 0.600819 0
5.10509 0.600819 0
5.10509 0 0
5.49779 0 0
5.10509 0.600819 0
5.49779 0.600819 0
4.71239 0.600819 0
5.10509 0.600819 0
4.71239 1.2276 0
5.10509 1.2276 0
5.10509 0.600819 0
5.49779 0.600819 0
5.10509 1.2276 0
5.49779 1.2276 0
5.49779 0 0
5.89049 0 0
5.49779 0.600819 0
5.89049 0.600819 0
5.89049 0 0
6.28319 0 0
5.89049 0.600819 0
6.28319 0.600819 0
5.49779 0.600819 0
5.89049 0.600819 0
5.49779 1.2276 0
5.89049 1.2276 0
5.89049 0.600819 0
6.28319 0.600819 0
5.89049 1.2276 0
6.28319 1.2276 0
4.71239 1.2276 0
5.10509 1.2276 0
4.71239 1.85347 0
5.10509 1.85347 0
5.10509 1.2276 0
5.49779 1.2276 0
5.10509 1.85347 0
5.49779 1.85347 0
4.71239 1.85347 0
5.10509 1.85347 0
4.71239 2.48022 0
5.10509 2.48022 0
5.10509 1.85347 0
5.49779 1.85347 0
5.10509 2.48022 0
5.49779 2.48022 0
5.49779 1.2276 0
5.89049 1.2276 0
5.49779 1.85347 0
5.89049 1.85347 0
5.89049 1.2276 0
6.28319 1.2276 0
5.89049 1.85347 0
6.28319 1.85347 0
5.49779 1.85347 0
5.89049 1.85347 0
5.49779 2.48022 0
5.89049 2.48022 0
5.89049 1.85347 0
6.28319 1.85347 0
5.89049 2.48022 0
6.28319 2.48022 0
3.14159 2.48022 0
3.53429 2.48022 0
3.14159 3.10673 0
3.53429 3.10673 0
3.53429 2.48022 0
3.92699 2.48022 0
3.53429 3.10673 0
3.92699 3.10673 0
3.14159 3.10673 0
3.53429 3.10673 0
3.14159 3.73325 0
3.53429 3.73325 0
3.53429 3.10673 0
3.92699 3.10673 0
3.53429 3.73325 0
3.92699 3.73325 0
3.92699 2.48022 0
4.31969 2.48022 0
3.92699 3.10673 0
4.31969 3.10673 0
4.31969 2.48022 0
4.71239 2.48022 0
4.31969 3.10673 0
4.71239 3.10673 0
3.92699 3.10673 0
4.31969 3.10673 0
3.92699 3.73325 0
4.31969 3.73325 0
4.31969 3.10673 0
4.71239 3.10673 0
4.31969 3.73325 0
4.71239 3.73325 0
3.14159 3.73325 0
3.53429 3.73325 0
3.14159 4.35971 0
3.53429 4.35971 0
3.53429 3.73325 0
3.92699 3.73325 0
3.53429 4.35971 0
3.92699 4.35971 0
3.14159 4.35971 0
3.53429 4.35971 0
3.14159 4.9861 0
3.53429 4.9861 0
3.53429 4.35971 0
3.92699 4.35971 0
3.53429 4.9861 0
3.92699 4.9861 0
3.92699 3.73325 0
4.31969 3.73325 0
3.92699 4.35971 0
4.31969 4.35971 0
4.31969 3.73325 0
4.71239 3.73325 0
4.31969 4.35971 0
4.71239 4.35971 0
3.92699 4.35971 0
4.31969 4.35971 0
3.92699 4.9861 0
4.31969 4.9861 0
4.31969 4.35971 0
4.71239 4.35971 0
4.31969 4.9861 0
4.71239 4.9861 0
4.71239 2.48022 0
5.10509 2.48022 0
4.71239 3.10673 0
5.10509 3.10673 0
5.10509 2.48022 0
5.49779 2.48022 0
5.10509 3.10673 0
5.49779 3.10673 0
4.71239 3.10673 0
5.10509 3.10673 0
4.71239 3.73325 0
5.10509 3.73325 0
5.10509 3.10673 0
5.49779 3.10673 0
5.10509 3.73325 0
5.49779 3.73325 0
5.49779 2.48022 0
5.89049 2.48022 0
5.49779 3.10673 0
5.89049 3.10673 0
5.89049 2.48022 0
6.28319 2.48022 0
5.89049 3.10673 0
6.28319 3.10673 0
5.49779 3.10673 0
5.89049 3.10673 0
5.49779 3.73325 0
5.89049 3.73325 0
5.89049 3.10673 0
6.28319 3.10673 0
5.89049 3.73325 0
6.28319 3.73325 0
4.71239 3.73325 0
5.10509 3.73325 0
4.71239 4.35971 0
5.10509 4.35971 0
5.10509 3.73325 0
5.49779 3.73325 0
5.10509 4.35971 0
5.49779 4.35971 0
4.71239 4.35971 0
5.10509 4.35971 0
4.71239 4.9861 0
5.10509 4.9861 0
5.10509 4.35971 0
5.49779 4.35971 0
5.10509 4.9861 0
5.49779 4.9861 0
5.49779 3.73325 0
5.89049 3.73325 0
5.49779 4.35971 0
5.89049 4.35971 0
5.89049 3.73325 0
6.28319 3.73325 0
5.89049 4.35971 0
6.28319 4.35971 0
5.49779 4.35971 0
5.89049 4.35971 0
5.49779 4.9861 0
5.89049 4.9861 0
5.89049 4.35971 0
6.28319 4.35971 0
5.89049 4.9861 0
6.28319 4.9861 0
0 4.9861 0
0.392699 4.9861 0
0 5.61241 0
0.392699 5.61241 0
0.392699 4.9861 0
0.785398 4.9861 0
0.392699 5.61241 0
0.785398 5.61241 0
0 5.61241 0
0.392699 5.61241 0
0 6.23865 0
0.392699 6.23865 0
0.392699 5.61241 0
0.785398 5.61241 0
0.392699 6.23865 0
0.785398 6.23865 0
0.785398 4.9861 0
1.1781 4.9861 0
0.785398 5.61241 0
1.1781 5.61241 0
1.1781 4.9861 0
1.5708 4.9861 0
1.1781 5.61241 0
1.5708 5.61241 0
0.785398 5.61241 0
1.1781 5.61241 0
0.785398 6.23865 0
1.1781 6.23865 0
1.1781 5.61241 0
1.5708 5.61241 0
1.1781 6.23865 0
1.5708 6.23865 0
0 6.23865 0
0.392699 6.23865 0
0 6.86484 0
0.392699 6.86484 0
0.392699 6.23865 0
0.785398 6.23865 0
0.392699 6.86484 0
0.785398 6.86484 0
0 6.86484 0
0.392699 6.86484 0
0 7.49104 0
0.392699 7.49104 0
0.392699 6.86484 0
0.785398 6.86484 0
0.392699 7.49104 0
0.785398 7.49104 0
0.785398 6.23865 0
1.1781 6.23865 0
0.785398 6.86484 0
1.1781 6.86484 0
1.1781 6.23865 0
1.5708 6.23865 0
1.1781 6.86484 0
1.5708 6.86484 0
0.785398 6.86484 0
[...]
POINT_DATA 5120
VECTORS uf double
0 1 0
-9.90625e-14 1 0
0 1.00246 0
-1.04593e-13 1.00246 0
-9.90625e-14 1 0
-8.83049e-15 1 0
-1.04593e-13 1.00246 0
-9.98811e-15 1.00246 0
0 1.00246 0
6.21109e-14 1.00246 0
0 1.00372 0
5.77445e-14 1.00372 0
6.21109e-14 1.00246 0
7.65038e-15 1.00246 0
5.77445e-14 1.00372 0
-2.50573e-15 1.00372 0
-8.83049e-15 1 0
1.81433e-13 1 0
-9.98811e-15 1.00246 0
1.75048e-13 1.00246 0
1.81433e-13 1 0
4.67732e-14 1 0
1.75048e-13 1.00246 0
5.08146e-14 1.00246 0
7.65038e-15 1.00246 0
-1.85818e-13 1.00246 0
-2.50573e-15 1.00372 0
-1.74788e-13 1.00372 0
-1.85818e-13 1.00246 0
-5.12391e-14 1.00246 0
-1.74788e-13 1.00372 0
-3.9649e-14 1.00372 0
0 1.00372 0
1.46535e-14 1.00372 0
0 1.00525 0
7.39504e-15 1.00525 0
1.46535e-14 1.00372 0
3.15022e-14 1.00372 0
7.39504e-15 1.00525 0
3.33377e-14 1.00525 0
0 1.00525 0
4.61339e-14 1.00525 0
0 1.00667 0
3.38014e-14 1.00667 0
4.61339e-14 1.00525 0
3.39567e-14 1.00525 0
3.38014e-14 1.00667 0
2.75975e-14 1.00667 0
3.15022e-14 1.00372 0
2.51917e-15 1.00372 0
3.33377e-14 1.00525 0
7.22974e-15 1.00525 0
2.51917e-15 1.00372 0
-7.26435e-15 1.00372 0
7.22974e-15 1.00525 0
-9.25824e-16 1.00525 0
3.39567e-14 1.00525 0
1.39026e-14 1.00525 0
2.75975e-14 1.00667 0
1.27033e-14 1.00667 0
1.39026e-14 1.00525 0
-3.55153e-14 1.00525 0
1.27033e-14 1.00667 0
-2.47086e-14 1.00667 0
4.67732e-14 1 0
-3.13995e-14 1 0
5.08146e-14 1.00246 0
-2.08803e-14 1.00246 0
-3.13995e-14 1 0
-7.5544e-15 1 0
-2.08803e-14 1.00246 0
1.47207e-15 1.00246 0
-5.12391e-14 1.00246 0
2.89007e-14 1.00246 0
-3.9649e-14 1.00372 0
2.54676e-14 1.00372 0
2.89007e-14 1.00246 0
-1.13571e-15 1.00246 0
2.54676e-14 1.00372 0
8.05322e-15 1.00372 0
-7.5544e-15 1 0
3.10546e-16 1 0
1.47207e-15 1.00246 0
7.52786e-16 1.00246 0
3.10546e-16 1 0
-5.9591e-16 1 0
7.52786e-16 1.00246 0
-7.16423e-16 1.00246 0
-1.13571e-15 1.00246 0
-1.17366e-14 1.00246 0
8.05322e-15 1.00372 0
6.60631e-15 1.00372 0
-1.17366e-14 1.00246 0
1.67533e-15 1.00246 0
6.60631e-15 1.00372 0
4.58531e-15 1.00372 0
-7.26435e-15 1.00372 0
2.07953e-14 1.00372 0
-9.25824e-16 1.00525 0
3.01229e-14 1.00525 0
2.07953e-14 1.00372 0
3.01491e-15 1.00372 0
3.01229e-14 1.00525 0
-2.74572e-15 1.00525 0
-3.55153e-14 1.00525 0
-6.9854e-15 1.00525 0
-2.47086e-14 1.00667 0
-4.03213e-15 1.00667 0
-6.9854e-15 1.00525 0
-2.26528e-15 1.00525 0
-4.03213e-15 1.00667 0
7.7565e-15 1.00667 0
3.01491e-15 1.00372 0
-7.76794e-16 1.00372 0
-2.74572e-15 1.00525 0
8.92317e-15 1.00525 0
-7.76794e-16 1.00372 0
1.62955e-15 1.00372 0
8.92317e-15 1.00525 0
4.98701e-15 1.00525 0
-2.26528e-15 1.00525 0
-5.28568e-16 1.00525 0
7.7565e-15 1.00667 0
1.30337e-15 1.00667 0
-5.28568e-16 1.00525 0
-9.45003e-15 1.00525 0
1.30337e-15 1.00667 0
9.88387e-15 1.00667 0
0 1.00667 0
-6.06323e-14 1.00667 0
0 1.00809 0
-6.49035e-14 1.00809 0
-6.06323e-14 1.00667 0
-6.70588e-14 1.00667 0
-6.49035e-14 1.00809 0
-7.14798e-14 1.00809 0
0 1.00809 0
4.55257e-14 1.00809 0
0 1.00947 0
4.565e-14 1.00947 0
4.55257e-14 1.00809 0
8.72095e-14 1.00809 0
4.565e-14 1.00947 0
8.89145e-14 1.00947 0
-6.70588e-14 1.00667 0
-3.3036e-14 1.00667 0
-7.14798e-14 1.00809 0
-1.43363e-14 1.00809 0
-3.3036e-14 1.00667 0
6.32265e-14 1.00667 0
-1.43363e-14 1.00809 0
5.43068e-14 1.00809 0
8.72095e-14 1.00809 0
3.38088e-14 1.00809 0
8.89145e-14 1.00947 0
3.91219e-14 1.00947 0
3.38088e-14 1.00809 0
-7.4592e-14 1.00809 0
3.91219e-14 1.00947 0
-5.30546e-14 1.00947 0
0 1.00947 0
2.49803e-14 1.00947 0
0 1.01084 0
2.18484e-14 1.01084 0
2.49803e-14 1.00947 0
-1.80212e-13 1.00947 0
2.18484e-14 1.01084 0
-1.7522e-13 1.01084 0
0 1.01084 0
-3.1727e-15 1.01084 0
0 1.01218 0
-1.10047e-14 1.01218 0
-3.1727e-15 1.01084 0
1.70355e-13 1.01084 0
-1.10047e-14 1.01218 0
1.654e-13 1.01218 0
-1.80212e-13 1.00947 0
-2.53981e-14 1.00947 0
-1.7522e-13 1.01084 0
-1.16956e-14 1.01084 0
-2.53981e-14 1.00947 0
1.34027e-13 1.00947 0
-1.16956e-14 1.01084 0
1.33683e-13 1.01084 0
1.70355e-13 1.01084 0
2.17965e-14 1.01084 0
1.654e-13 1.01218 0
2.37401e-14 1.01218 0
2.17965e-14 1.01084 0
-1.62285e-13 1.01084 0
2.37401e-14 1.01218 0
-1.47179e-13 1.01218 0
6.32265e-14 1.00667 0
-6.57184e-15 1.00667 0
5.43068e-14 1.00809 0
-9.50879e-15 1.00809 0
-6.57184e-15 1.00667 0
-5.94285e-15 1.00667 0
-9.50879e-15 1.00809 0
5.25153e-15 1.00809 0
-7.4592e-14 1.00809 0
7.01282e-15 1.00809 0
-5.30546e-14 1.00947 0
-5.03182e-15 1.00947 0
7.01282e-15 1.00809 0
-5.84896e-15 1.00809 0
-5.03182e-15 1.00947 0
1.82971e-15 1.00947 0
-5.94285e-15 1.00667 0
-6.62088e-15 1.00667 0
5.25153e-15 1.00809 0
8.67454e-15 1.00809 0
-6.62088e-15 1.00667 0
-1.09262e-14 1.00667 0
8.67454e-15 1.00809 0
1.31303e-14 1.00809 0
-5.84896e-15 1.00809 0
-3.58555e-15 1.00809 0
1.82971e-15 1.00947 0
6.20312e-15 1.00947 0
-3.58555e-15 1.00809 0
6.16874e-15 1.00809 0
6.20312e-15 1.00947 0
1.52212e-14 1.00947 0
1.34027e-13 1.00947 0
-2.24059e-14 1.00947 0
1.33683e-13 1.01084 0
-2.10501e-14 1.01084 0
-2.24059e-14 1.00947 0
-5.82524e-16 1.00947 0
-2.10501e-14 1.01084 0
4.38435e-15 1.01084 0
-1.62285e-13 1.01084 0
-2.77807e-14 1.01084 0
-1.47179e-13 1.01218 0
-1.78052e-14 1.01218 0
-2.77807e-14 1.01084 0
-3.28726e-15 1.01084 0
-1.78052e-14 1.01218 0
8.88391e-15 1.01218 0
-5.82524e-16 1.00947 0
1.43477e-15 1.00947 0
4.38435e-15 1.01084 0
4.22096e-15 1.01084 0
1.43477e-15 1.00947 0
-8.21878e-15 1.00947 0
4.22096e-15 1.01084 0
8.51338e-16 1.01084 0
-3.28726e-15 1.01084 0
-1.60637e-15 1.01084 0
8.88391e-15 1.01218 0
7.00818e-15 1.01218 0
-1.60637e-15 1.01084 0
-1.16973e-14 1.01084 0
7.00818e-15 1.01218 0
1.51044e-15 1.01218 0
-5.9591e-16 1 0
-2.02527e-15 1 0
-7.16423e-16 1.00246 0
3.64355e-15 1.00246 0
-2.02527e-15 1 0
3.62343e-15 1 0
3.64355e-15 1.00246 0
4.20137e-15 1.00246 0
1.67533e-15 1.00246 0
1.03401e-14 1.00246 0
4.58531e-15 1.00372 0
-1.70088e-15 1.00372 0
1.03401e-14 1.00246 0
-3.89431e-15 1.00246 0
-1.70088e-15 1.00372 0
5.2474e-15 1.00372 0
3.62343e-15 1 0
4.33036e-15 1 0
4.20137e-15 1.00246 0
1.28978e-15 1.00246 0
4.33036e-15 1 0
-2.742e-16 1 0
1.28978e-15 1.00246 0
6.7877e-15 1.00246 0
-3.89431e-15 1.00246 0
-2.08636e-15 1.00246 0
5.2474e-15 1.00372 0
2.07325e-15 1.00372 0
-2.08636e-15 1.00246 0
2.58123e-15 1.00246 0
2.07325e-15 1.00372 0
9.49394e-16 1.00372 0
1.62955e-15 1.00372 0
-1.28532e-15 1.00372 0
4.98701e-15 1.00525 0
-7.61291e-16 1.00525 0
-1.28532e-15 1.00372 0
-3.60798e-15 1.00372 0
-7.61291e-16 1.00525 0
4.22183e-15 1.00525 0
-9.45003e-15 1.00525 0
6.03607e-15 1.00525 0
9.88387e-15 1.00667 0
4.46973e-15 1.00667 0
6.03607e-15 1.00525 0
4.2467e-15 1.00525 0
4.46973e-15 1.00667 0
3.95615e-15 1.00667 0
-3.60798e-15 1.00372 0
1.56745e-14 1.00372 0
4.22183e-15 1.00525 0
-3.56622e-15 1.00525 0
1.56745e-14 1.00372 0
2.69328e-15 1.00372 0
-3.56622e-15 1.00525 0
4.19166e-15 1.00525 0
4.2467e-15 1.00525 0
-3.18118e-15 1.00525 0
3.95615e-15 1.00667 0
4.29266e-15 1.00667 0
-3.18118e-15 1.00525 0
8.3527e-15 1.00525 0
4.29266e-15 1.00667 0
6.45358e-15 1.00667 0
-2.742e-16 1 0
1.72057e-16 1 0
6.7877e-15 1.00246 0
1.05509e-14 1.00246 0
1.72057e-16 1 0
4.70077e-15 1 0
1.05509e-14 1.00246 0
6.04239e-15 1.00246 0
2.58123e-15 1.00246 0
-7.61639e-16 1.00246 0
9.49394e-16 1.00372 0
5.12976e-15 1.00372 0
-7.61639e-16 1.00246 0
-2.72927e-15 1.00246 0
5.12976e-15 1.00372 0
7.51523e-15 1.00372 0
4.70077e-15 1 0
5.57842e-15 1 0
6.04239e-15 1.00246 0
4.93319e-15 1.00246 0
5.57842e-15 1 0
6.43201e-15 1 0
4.93319e-15 1.00246 0
3.20236e-15 1.00246 0
-2.72927e-15 1.00246 0
5.31011e-15 1.00246 0
7.51523e-15 1.00372 0
4.47625e-15 1.00372 0
5.31011e-15 1.00246 0
3.52726e-15 1.00246 0
4.47625e-15 1.00372 0
2.23237e-15 1.00372 0
2.69328e-15 1.00372 0
-5.71771e-15 1.00372 0
4.19166e-15 1.00525 0
5.54577e-15 1.00525 0
-5.71771e-15 1.00372 0
7.98782e-15 1.00372 0
5.54577e-15 1.00525 0
-1.22839e-16 1.00525 0
8.3527e-15 1.00525 0
4.49338e-15 1.00525 0
6.45358e-15 1.00667 0
1.473e-15 1.00667 0
4.49338e-15 1.00525 0
-1.01327e-15 1.00525 0
1.473e-15 1.00667 0
-1.93769e-15 1.00667 0
7.98782e-15 1.00372 0
-9.34319e-15 1.00372 0
-1.22839e-16 1.00525 0
1.44928e-14 1.00525 0
-9.34319e-15 1.00372 0
-4.92321e-15 1.00372 0
1.44928e-14 1.00525 0
4.52118e-15 1.00525 0
-1.01327e-15 1.00525 0
-6.31648e-15 1.00525 0
-1.93769e-15 1.00667 0
9.86702e-15 1.00667 0
-6.31648e-15 1.00525 0
-1.59915e-15 1.00525 0
9.86702e-15 1.00667 0
5.10819e-15 1.00667 0
-1.09262e-14 1.00667 0
1.39292e-15 1.00667 0
1.31303e-14 1.00809 0
2.4627e-15 1.00809 0
1.39292e-15 1.00667 0
-3.6936e-15 1.00667 0
2.4627e-15 1.00809 0
1.00281e-15 1.00809 0
6.16874e-15 1.00809 0
-4.03281e-15 1.00809 0
1.52212e-14 1.00947 0
-5.09396e-16 1.00947 0
-4.03281e-15 1.00809 0
2.61982e-15 1.00809 0
-5.09396e-16 1.00947 0
9.06763e-15 1.00947 0
-3.6936e-15 1.00667 0
5.51064e-15 1.00667 0
1.00281e-15 1.00809 0
7.12431e-16 1.00809 0
5.51064e-15 1.00667 0
-4.90693e-15 1.00667 0
7.12431e-16 1.00809 0
1.93961e-15 1.00809 0
2.61982e-15 1.00809 0
4.14897e-15 1.00809 0
9.06763e-15 1.00947 0
2.60649e-16 1.00947 0
4.14897e-15 1.00809 0
3.4525e-15 1.00809 0
2.60649e-16 1.00947 0
4.96674e-15 1.00947 0
-8.21878e-15 1.00947 0
1.11543e-14 1.00947 0
8.51338e-16 1.01084 0
8.75491e-15 1.01084 0
1.11543e-14 1.00947 0
-9.75615e-15 1.00947 0
8.75491e-15 1.01084 0
7.9318e-15 1.01084 0
-1.16973e-14 1.01084 0
-9.83889e-15 1.01084 0
1.51044e-15 1.01218 0
5.90176e-15 1.01218 0
-9.83889e-15 1.01084 0
6.74764e-15 1.01084 0
5.90176e-15 1.01218 0
1.49838e-14 1.01218 0
-9.75615e-15 1.00947 0
-2.76927e-15 1.00947 0
7.9318e-15 1.01084 0
4.57204e-15 1.01084 0
-2.76927e-15 1.00947 0
-6.7729e-15 1.00947 0
4.57204e-15 1.01084 0
7.3348e-15 1.01084 0
6.74764e-15 1.01084 0
4.62828e-15 1.01084 0
1.49838e-14 1.01218 0
1.65347e-15 1.01218 0
4.62828e-15 1.01084 0
-8.12694e-15 1.01084 0
1.65347e-15 1.01218 0
8.10489e-15 1.01218 0
-4.90693e-15 1.00667 0
3.96975e-15 1.00667 0
1.93961e-15 1.00809 0
-2.19884e-15 1.00809 0
3.96975e-15 1.00667 0
3.61648e-15 1.00667 0
-2.19884e-15 1.00809 0
9.3586e-15 1.00809 0
3.4525e-15 1.00809 0
2.40625e-15 1.00809 0
4.96674e-15 1.00947 0
3.66452e-15 1.00947 0
2.40625e-15 1.00809 0
-3.19059e-16 1.00809 0
3.66452e-15 1.00947 0
-5.19821e-17 1.00947 0
3.61648e-15 1.00667 0
3.62922e-15 1.00667 0
9.3586e-15 1.00809 0
6.81032e-15 1.00809 0
3.62922e-15 1.00667 0
6.90004e-15 1.00667 0
6.81032e-15 1.00809 0
1.20209e-15 1.00809 0
-3.19059e-16 1.00809 0
-1.09784e-14 1.00809 0
-5.19821e-17 1.00947 0
1.49971e-14 1.00947 0
-1.09784e-14 1.00809 0
1.1042e-15 1.00809 0
1.49971e-14 1.00947 0
2.52696e-15 1.00947 0
-6.7729e-15 1.00947 0
-3.0447e-16 1.00947 0
7.3348e-15 1.01084 0
2.47845e-15 1.01084 0
-3.0447e-16 1.00947 0
-5.78707e-15 1.00947 0
2.47845e-15 1.01084 0
4.24749e-15 1.01084 0
-8.12694e-15 1.01084 0
-1.46373e-15 1.01084 0
8.10489e-15 1.01218 0
1.71776e-15 1.01218 0
-1.46373e-15 1.01084 0
1.08439e-15 1.01084 0
1.71776e-15 1.01218 0
5.23813e-15 1.01218 0
-5.78707e-15 1.00947 0
-2.49574e-15 1.00947 0
4.24749e-15 1.01084 0
3.88869e-15 1.01084 0
-2.49574e-15 1.00947 0
-2.70385e-16 1.00947 0
3.88869e-15 1.01084 0
5.42456e-15 1.01084 0
1.08439e-15 1.01084 0
1.1145e-15 1.01084 0
5.23813e-15 1.01218 0
-6.87837e-15 1.01218 0
1.1145e-15 1.01084 0
4.03327e-15 1.01084 0
-6.87837e-15 1.01218 0
-2.43061e-15 1.01218 0
0 1.01218 0
-1.55044e-14 1.01218 0
0 1.01351 0
-1.50025e-14 1.01351 0
-1.55044e-14 1.01218 0
-1.1742e-13 1.01218 0
-1.50025e-14 1.01351 0
-1.056e-13 1.01351 0
0 1.01351 0
1.5944e-14 1.01351 0
0 1.01484 0
1.07751e-14 1.01484 0
1.5944e-14 1.01351 0
1.04102e-13 1.01351 0
1.07751e-14 1.01484 0
1.01835e-13 1.01484 0
-1.1742e-13 1.01218 0
2.55313e-14 1.01218 0
-1.056e-13 1.01351 0
2.74864e-14 1.01351 0
2.55313e-14 1.01218 0
1.09263e-13 1.01218 0
2.74864e-14 1.01351 0
1.11733e-13 1.01351 0
1.04102e-13 1.01351 0
-5.77961e-14 1.01351 0
1.01835e-13 1.01484 0
-5.20457e-14 1.01484 0
-5.77961e-14 1.01351 0
-4.07913e-14 1.01351 0
-5.20457e-14 1.01484 0
-4.2829e-14 1.01484 0
0 1.01484 0
-2.55404e-14 1.01484 0
0 1.01617 0
-2.38094e-14 1.01617 0
-2.55404e-14 1.01484 0
-8.07704e-14 1.01484 0
-2.38094e-14 1.01617 0
-7.98656e-14 1.01617 0
0 1.01617 0
3.30343e-15 1.01617 0
0 1.01752 0
7.09623e-15 1.01752 0
3.30343e-15 1.01617 0
2.94237e-14 1.01617 0
7.09623e-15 1.01752 0
3.10931e-14 1.01752 0
-8.07704e-14 1.01484 0
1.29929e-14 1.01484 0
-7.98656e-14 1.01617 0
1.19264e-14 1.01617 0
1.29929e-14 1.01484 0
8.74884e-15 1.01484 0
1.19264e-14 1.01617 0
9.00109e-15 1.01617 0
2.94237e-14 1.01617 0
-1.5386e-14 1.01617 0
3.10931e-14 1.01752 0
-4.91727e-15 1.01752 0
-1.5386e-14 1.01617 0
-1.78558e-15 1.01617 0
-4.91727e-15 1.01752 0
-6.67983e-15 1.01752 0
1.09263e-13 1.01218 0
1.97626e-14 1.01218 0
1.11733e-13 1.01351 0
2.83633e-14 1.01351 0
1.97626e-14 1.01218 0
-5.50979e-15 1.01218 0
2.83633e-14 1.01351 0
6.1038e-15 1.01351 0
-4.07913e-14 1.01351 0
2.16497e-14 1.01351 0
-4.2829e-14 1.01484 0
2.293e-14 1.01484 0
2.16497e-14 1.01351 0
-4.21598e-15 1.01351 0
2.293e-14 1.01484 0
2.31163e-15 1.01484 0
-5.50979e-15 1.01218 0
-4.30804e-15 1.01218 0
6.1038e-15 1.01351 0
4.48089e-15 1.01351 0
-4.30804e-15 1.01218 0
1.01421e-14 1.01218 0
4.48089e-15 1.01351 0
6.31889e-15 1.01351 0
-4.21598e-15 1.01351 0
-2.2888e-15 1.01351 0
2.31163e-15 1.01484 0
5.94037e-15 1.01484 0
-2.2888e-15 1.01351 0
-1.78462e-15 1.01351 0
5.94037e-15 1.01484 0
1.62388e-16 1.01484 0
8.74884e-15 1.01484 0
-1.59762e-14 1.01484 0
9.00109e-15 1.01617 0
-1.23871e-14 1.01617 0
-1.59762e-14 1.01484 0
-9.58988e-17 1.01484 0
-1.23871e-14 1.01617 0
1.54631e-16 1.01617 0
-1.78558e-15 1.01617 0
1.81701e-15 1.01617 0
-6.67983e-15 1.01752 0
-4.75864e-17 1.01752 0
1.81701e-15 1.01617 0
8.46877e-16 1.01617 0
-4.75864e-17 1.01752 0
2.7579e-16 1.01752 0
-9.58988e-17 1.01484 0
-2.10117e-15 1.01484 0
1.54631e-16 1.01617 0
4.32709e-15 1.01617 0
-2.10117e-15 1.01484 0
-3.53869e-15 1.01484 0
4.32709e-15 1.01617 0
4.60174e-15 1.01617 0
8.46877e-16 1.01617 0
-4.69074e-15 1.01617 0
2.7579e-16 1.01752 0
1.9369e-15 1.01752 0
-4.69074e-15 1.01617 0
-6.50501e-15 1.01617 0
1.9369e-15 1.01752 0
5.42486e-15 1.01752 0
0 1.01752 0
3.09133e-14 1.01752 0
0 1.01887 0
3.31584e-14 1.01887 0
3.09133e-14 1.01752 0
-2.24923e-14 1.01752 0
3.31584e-14 1.01887 0
-1.72395e-14 1.01887 0
0 1.01887 0
-2.923e-14 1.01887 0
0 1.0202 0
-2.59243e-14 1.0202 0
-2.923e-14 1.01887 0
4.01429e-14 1.01887 0
-2.59243e-14 1.0202 0
3.58383e-14 1.0202 0
-2.24923e-14 1.01752 0
1.8726e-15 1.01752 0
-1.72395e-14 1.01887 0
4.64824e-15 1.01887 0
1.8726e-15 1.01752 0
-1.23824e-14 1.01752 0
4.64824e-15 1.01887 0
-7.72891e-15 1.01887 0
4.01429e-14 1.01887 0
-7.03676e-16 1.01887 0
3.58383e-14 1.0202 0
2.62531e-15 1.0202 0
-7.03676e-16 1.01887 0
1.1493e-15 1.01887 0
2.62531e-15 1.0202 0
9.72081e-16 1.0202 0
0 1.0202 0
1.48442e-14 1.0202 0
0 1.02135 0
1.19884e-14 1.02135 0
1.48442e-14 1.0202 0
-2.26516e-14 1.0202 0
1.19884e-14 1.02135 0
-2.40555e-14 1.02135 0
0 1.02135 0
-1.1407e-15 1.02135 0
0 1.02185 0
-1.25425e-14 1.02185 0
-1.1407e-15 1.02135 0
-1.1498e-15 1.02135 0
-1.25425e-14 1.02185 0
1.41848e-14 1.02185 0
-2.26516e-14 1.0202 0
2.45483e-15 1.0202 0
-2.40555e-14 1.02135 0
4.56856e-16 1.02135 0
2.45483e-15 1.0202 0
2.66675e-15 1.0202 0
4.56856e-16 1.02135 0
4.70915e-15 1.02135 0
-1.1498e-15 1.02135 0
-3.07885e-15 1.02135 0
1.41848e-14 1.02185 0
-1.80014e-14 1.02185 0
-3.07885e-15 1.02135 0
-1.09295e-15 1.02135 0
-1.80014e-14 1.02185 0
1.77882e-14 1.02185 0
-1.23824e-14 1.01752 0
-8.47963e-15 1.01752 0
-7.72891e-15 1.01887 0
1.89935e-15 1.01887 0
-8.47963e-15 1.01752 0
-1.77578e-16 1.01752 0
1.89935e-15 1.01887 0
3.11911e-15 1.01887 0
1.1493e-15 1.01887 0
-2.70763e-15 1.01887 0
9.72081e-16 1.0202 0
2.24839e-15 1.0202 0
-2.70763e-15 1.01887 0
-2.0748e-15 1.01887 0
2.24839e-15 1.0202 0
2.28609e-15 1.0202 0
-1.77578e-16 1.01752 0
1.59514e-15 1.01752 0
3.11911e-15 1.01887 0
2.14746e-15 1.01887 0
1.59514e-15 1.01752 0
-1.59469e-15 1.01752 0
2.14746e-15 1.01887 0
4.07203e-15 1.01887 0
-2.0748e-15 1.01887 0
-4.18931e-15 1.01887 0
2.28609e-15 1.0202 0
1.34066e-16 1.0202 0
-4.18931e-15 1.01887 0
-1.6953e-15 1.01887 0
1.34066e-16 1.0202 0
2.41675e-16 1.0202 0
2.66675e-15 1.0202 0
-1.38793e-15 1.0202 0
4.70915e-15 1.02135 0
2.48242e-15 1.02135 0
-1.38793e-15 1.0202 0
-1.47861e-15 1.0202 0
2.48242e-15 1.02135 0
2.73657e-15 1.02135 0
-1.09295e-15 1.02135 0
-3.51942e-15 1.02135 0
1.77882e-14 1.02185 0
2.40517e-15 1.02185 0
-3.51942e-15 1.02135 0
-1.7787e-15 1.02135 0
2.40517e-15 1.02185 0
1.02539e-15 1.02185 0
-1.47861e-15 1.0202 0
-1.43741e-15 1.0202 0
2.73657e-15 1.02135 0
2.10843e-15 1.02135 0
-1.43741e-15 1.0202 0
-2.00401e-15 1.0202 0
2.10843e-15 1.02135 0
3.51524e-15 1.02135 0
-1.7787e-15 1.02135 0
-1.42085e-15 1.02135 0
1.02539e-15 1.02185 0
7.13871e-15 1.02185 0
-1.42085e-15 1.02135 0
9.25622e-16 1.02135 0
7.13871e-15 1.02185 0
-1.91697e-14 1.02185 0
1.01421e-14 1.01218 0
5.80974e-16 1.01218 0
6.31889e-15 1.01351 0
1.03396e-14 1.01351 0
5.80974e-16 1.01218 0
-6.82486e-15 1.01218 0
1.03396e-14 1.01351 0
-1.07893e-14 1.01351 0
-1.78462e-15 1.01351 0
-3.11249e-15 1.01351 0
1.62388e-16 1.01484 0
7.95806e-15 1.01484 0
-3.11249e-15 1.01351 0
4.04975e-15 1.01351 0
7.95806e-15 1.01484 0
-1.27203e-15 1.01484 0
-6.82486e-15 1.01218 0
-4.48242e-15 1.01218 0
-1.07893e-14 1.01351 0
2.39555e-15 1.01351 0
-4.48242e-15 1.01218 0
-5.37152e-15 1.01218 0
2.39555e-15 1.01351 0
5.29991e-15 1.01351 0
4.04975e-15 1.01351 0
-3.66576e-15 1.01351 0
-1.27203e-15 1.01484 0
5.18379e-15 1.01484 0
-3.66576e-15 1.01351 0
8.22677e-16 1.01351 0
5.18379e-15 1.01484 0
3.07137e-15 1.01484 0
-3.53869e-15 1.01484 0
-7.47714e-15 1.01484 0
4.60174e-15 1.01617 0
6.14411e-15 1.01617 0
-7.47714e-15 1.01484 0
-2.89041e-15 1.01484 0
6.14411e-15 1.01617 0
4.32033e-15 1.01617 0
-6.50501e-15 1.01617 0
-4.01673e-15 1.01617 0
5.42486e-15 1.01752 0
2.28393e-15 1.01752 0
-4.01673e-15 1.01617 0
-3.2125e-15 1.01617 0
2.28393e-15 1.01752 0
-1.31342e-15 1.01752 0
-2.89041e-15 1.01484 0
-3.28786e-15 1.01484 0
4.32033e-15 1.01617 0
2.38049e-15 1.01617 0
-3.28786e-15 1.01484 0
-3.55998e-15 1.01484 0
2.38049e-15 1.01617 0
1.58808e-15 1.01617 0
-3.2125e-15 1.01617 0
-4.21399e-15 1.01617 0
-1.31342e-15 1.01752 0
3.34206e-15 1.01752 0
-4.21399e-15 1.01617 0
-9.93834e-16 1.01617 0
3.34206e-15 1.01752 0
1.91463e-15 1.01752 0
-5.37152e-15 1.01218 0
-7.1354e-16 1.01218 0
5.29991e-15 1.01351 0
1.88902e-15 1.01351 0
-7.1354e-16 1.01218 0
-2.67308e-15 1.01218 0
1.88902e-15 1.01351 0
6.0405e-15 1.01351 0
8.22677e-16 1.01351 0
-1.93072e-15 1.01351 0
3.07137e-15 1.01484 0
3.29532e-15 1.01484 0
-1.93072e-15 1.01351 0
1.64604e-15 1.01351 0
3.29532e-15 1.01484 0
-6.15692e-16 1.01484 0
-2.67308e-15 1.01218 0
-1.34038e-15 1.01218 0
6.0405e-15 1.01351 0
6.09649e-15 1.01351 0
-1.34038e-15 1.01218 0
1.56548e-15 1.01218 0
6.09649e-15 1.01351 0
-1.5619e-16 1.01351 0
1.64604e-15 1.01351 0
3.915e-16 1.01351 0
-6.15692e-16 1.01484 0
2.73714e-15 1.01484 0
3.915e-16 1.01351 0
2.13848e-16 1.01351 0
2.73714e-15 1.01484 0
4.83442e-15 1.01484 0
-3.55998e-15 1.01484 0
-2.38879e-15 1.01484 0
1.58808e-15 1.01617 0
-4.88292e-16 1.01617 0
-2.38879e-15 1.01484 0
3.47738e-15 1.01484 0
-4.88292e-16 1.01617 0
4.85577e-16 1.01617 0
-9.93834e-16 1.01617 0
1.43866e-15 1.01617 0
1.91463e-15 1.01752 0
1.52271e-15 1.01752 0
1.43866e-15 1.01617 0
-3.06339e-15 1.01617 0
1.52271e-15 1.01752 0
4.23582e-15 1.01752 0
3.47738e-15 1.01484 0
1.76335e-15 1.01484 0
4.85577e-16 1.01617 0
2.51427e-15 1.01617 0
1.76335e-15 1.01484 0
-3.57773e-15 1.01484 0
2.51427e-15 1.01617 0
5.63681e-15 1.01617 0
-3.06339e-15 1.01617 0
-1.62795e-15 1.01617 0
4.23582e-15 1.01752 0
-1.58848e-15 1.01752 0
-1.62795e-15 1.01617 0
4.8064e-15 1.01617 0
-1.58848e-15 1.01752 0
-3.2148e-15 1.01752 0
-1.59469e-15 1.01752 0
-7.18635e-15 1.01752 0
4.07203e-15 1.01887 0
4.54666e-15 1.01887 0
-7.18635e-15 1.01752 0
-2.93767e-15 1.01752 0
4.54666e-15 1.01887 0
1.40323e-15 1.01887 0
-1.6953e-15 1.01887 0
-4.53422e-16 1.01887 0
2.41675e-16 1.0202 0
-7.41966e-16 1.0202 0
-4.53422e-16 1.01887 0
-2.87093e-15 1.01887 0
-7.41966e-16 1.0202 0
2.52936e-15 1.0202 0
-2.93767e-15 1.01752 0
-1.43784e-16 1.01752 0
1.40323e-15 1.01887 0
1.18815e-15 1.01887 0
-1.43784e-16 1.01752 0
-3.59144e-15 1.01752 0
1.18815e-15 1.01887 0
2.72335e-15 1.01887 0