# vtk DataFile Version 3.0
#This file was generated by the deal.II library on 2018/10/12 at 1:49:42
ASCII
DATASET UNSTRUCTURED_GRID

POINTS 5120 double
0 0 0
0.392699 0 0
0 0.587672 0
0.392699 0.587672 0
0.392699 0 0
0.785398 0 0
0.392699 0.587672 0
0.785398 0.587672 0
0 0.587672 0
0.392699 0.587672 0
0 1.21525 0
0.392699 1.21525 0
0.392699 0.587672 0
0.785398 0.587672 0
0.392699 1.21525 0
0.785398 1.21525 0
0.785398 0 0
1.1781 0 0
0.785398 0.587672 0
1.1781 0.587672 0
1.1781 0 0
1.5708 0 0
1.1781 0.587672 0
1.5708 0.587672 0
0.785398 0.587672 0
1.1781 0.587672 0
0.785398 1.21525 0
1.1781 1.21525 0
1.1781 0.587672 0
1.5708 0.587672 0
1.1781 1.21525 0
1.5708 1.21525 0
0 1.21525 0
0.392699 1.21525 0
0 1.84163 0
0.392699 1.84163 0
0.392699 1.21525 0
0.785398 1.21525 0
0.392699 1.84163 0
0.785398 1.84163 0
0 1.84163 0
0.392699 1.84163 0
0 2.46944 0
0.392699 2.46944 0
0.392699 1.84163 0
0.785398 1.84163 0
0.392699 2.46944 0
0.785398 2.46944 0
0.785398 1.21525 0
1.1781 1.21525 0
0.785398 1.84163 0
1.1781 1.84163 0
1.1781 1.21525 0
1.5708 1.21525 0
1.1781 1.84163 0
1.5708 1.84163 0
0.785398 1.84163 0
1.1781 1.84163 0
0.785398 2.46944 0
1.1781 2.46944 0
1.1781 1.84163 0
1.5708 1.84163 0
1.1781 2.46944 0
1.5708 2.46944 0
1.5708 0 0
1.9635 0 0
1.5708 0.587672 0
1.9635 0.587672 0
1.9635 0 0
2.35619 0 0
1.9635 0.587672 0
2.35619 0.587672 0
1.5708 0.587672 0
1.9635 0.587672 0
1.5708 1.21525 0
1.9635 1.21525 0
1.9635 0.587672 0
2.35619 0.587672 0
1.9635 1.21525 0
2.35619 1.21525 0
2.35619 0 0
2.74889 0 0
2.35619 0.587672 0
2.74889 0.587672 0
2.74889 0 0
3.14159 0 0
2.74889 0.587672 0
3.14159 0.587672 0
2.35619 0.587672 0
2.74889 0.587672 0
2.35619 1.21525 0
2.74889 1.21525 0
2.74889 0.587672 0
3.14159 0.587672 0
2.74889 1.21525 0
3.14159 1.21525 0
1.5708 1.21525 0
1.9635 1.21525 0
1.5708 1.84163 0
1.9635 1.84163 0
1.9635 1.21525 0
2.35619 1.21525 0
1.9635 1.84163 0
2.35619 1.84163 0
1.5708 1.84163 0
1.9635 1.84163 0
1.5708 2.46944 0
1.9635 2.46944 0
1.9635 1.84163 0
2.35619 1.84163 0
1.9635 2.46944 0
2.35619 2.46944 0
2.35619 1.21525 0
2.74889 1.21525 0
2.35619 1.84163 0
2.74889 1.84163 0
2.74889 1.21525 0
3.14159 1.21525 0
2.74889 1.84163 0
3.14159 1.84163 0
2.35619 1.84163 0
2.74889 1.84163 0
2.35619 2.46944 0
2.74889 2.46944 0
2.74889 1.84163 0
3.14159 1.84163 0
2.74889 2.46944 0
3.14159 2.46944 0
0 2.46944 0
0.392699 2.46944 0
0 3.09685 0
0.392699 3.09685 0
0.392699 2.46944 0
0.785398 2.46944 0
0.392699 3.09685 0
0.785398 3.09685 0
0 3.09685 0
0.392699 3.09685 0
0 3.7243 0
0.392699 3.7243 0
0.392699 3.09685 0
0.785398 3.09685 0
0.392699 3.7243 0
0.785398 3.7243 0
0.785398 2.46944 0
1.1781 2.46944 0
0.785398 3.09685 0
1.1781 3.09685 0
1.1781 2.46944 0
1.5708 2.46944 0
1.1781 3.09685 0
1.5708 3.09685 0
0.785398 3.09685 0
1.1781 3.09685 0
0.785398 3.7243 0
1.1781 3.7243 0
1.1781 3.09685 0
1.5708 3.09685 0
1.1781 3.7243 0
1.5708 3.7243 0
0 3.7243 0
0.392699 3.7243 0
0 4.35163 0
0.392699 4.35163 0
0.392699 3.7243 0
0.785398 3.7243 0
0.392699 4.35163 0
0.785398 4.35163 0
0 4.35163 0
0.392699 4.35163 0
0 4.97887 0
0.392699 4.97887 0
0.392699 4.35163 0
0.785398 4.35163 0
0.392699 4.97887 0
0.785398 4.97887 0
0.785398 3.7243 0
1.1781 3.7243 0
0.785398 4.35163 0
1.1781 4.35163 0
1.1781 3.7243 0
1.5708 3.7243 0
1.1781 4.35163 0
1.5708 4.35163 0
0.785398 4.35163 0
1.1781 4.35163 0
0.785398 4.97887 0
1.1781 4.97887 0
1.1781 4.35163 0
1.5708 4.35163 0
1.1781 4.97887 0
1.5708 4.97887 0
1.5708 2.46944 0
1.9635 2.46944 0
1.5708 3.09685 0
1.9635 3.09685 0
1.9635 2.46944 0
2.35619 2.46944 0
1.9635 3.09685 0
2.35619 3.09685 0
1.5708 3.09685 0
1.9635 3.09685 0
1.5708 3.7243 0
1.9635 3.7243 0
1.9635 3.09685 0
2.35619 3.09685 0
1.9635 3.7243 0
2.35619 3.7243 0
2.35619 2.46944 0
2.74889 2.46944 0
2.35619 3.09685 0
2.74889 3.09685 0
2.74889 2.46944 0
3.14159 2.46944 0
2.74889 3.09685 0
3.14159 3.09685 0
2.35619 3.09685 0
2.74889 3.09685 0
2.35619 3.7243 0
2.74889 3.7243 0
2.74889 3.09685 0
3.14159 3.09685 0
2.74889 3.7243 0
3.14159 3.7243 0
1.5708 3.7243 0
1.9635 3.7243 0
1.5708 4.35163 0
1.9635 4.35163 0
1.9635 3.7243 0
2.35619 3.7243 0
1.9635 4.35163 0
2.35619 4.35163 0
1.5708 4.35163 0
1.9635 4.35163 0
1.5708 4.97887 0
1.9635 4.97887 0
1.9635 4.35163 0
2.35619 4.35163 0
1.9635 4.97887 0
2.35619 4.97887 0
2.35619 3.7243 0
2.74889 3.7243 0
2.35619 4.35163 0
2.74889 4.35163 0
2.74889 3.7243 0
3.14159 3.7243 0
2.74889 4.35163 0
3.14159 4.35163 0
2.35619 4.35163 0
2.74889 4.35163 0
2.35619 4.97887 0
2.74889 4.97887 0
2.74889 4.35163 0
3.14159 4.35163 0
2.74889 4.97887 0
3.14159 4.97887 0
3.14159 0 0
3.53429 0 0
3.14159 0.587672 0
3.53429 0.587672 0
3.53429 0 0
3.92699 0 0
3.53429 0.587672 0
3.92699 0.587672 0
3.14159 0.587672 0
3.53429 0.587672 0
3.14159 1.21525 0
3.53429 1.21525 0
3.53429 0.587672 0
3.92699 0.587672 0
3.53429 1.21525 0
3.92699 1.21525 0
3.92699 0 0
4.31969 0 0
3.92699 0.587672 0
4.31969 0.587672 0
4.31969 0 0
4.71239 0 0
4.31969 0.587672 0
4.71239 0.587672 0
3.92699 0.587672 0
4.31969 0.587672 0
3.92699 1.21525 0
4.31969 1.21525 0
4.31969 0.587672 0
4.71239 0.587672 0
4.31969 1.21525 0
4.71239 1.21525 0
3.14159 1.21525 0
3.53429 1.21525 0
3.14159 1.84163 0
3.53429 1.84163 0
3.53429 1.21525 0
3.92699 1.21525 0
3.53429 1.84163 0
3.92699 1.84163 0
3.14159 1.84163 0
3.53429 1.84163 0
3.14159 2.46944 0
3.53429 2.46944 0
3.53429 1.84163 0
3.92699 1.84163 0
3.53429 2.46944 0
3.92699 2.46944 0
3.92699 1.21525 0
4.31969 1.21525 0
3.92699 1.84163 0
4.31969 1.84163 0
4.31969 1.21525 0
4.71239 1.21525 0
4.31969 1.84163 0
4.71239 1.84163 0
3.92699 1.84163 0
4.31969 1.84163 0
3.92699 2.46944 0
4.31969 2.46944 0
4.31969 1.84163 0
4.71239 1.84163 0
4.31969 2.46944 0
4.71239 2.46944 0
4.71239 0 0
5.10509 0 0
4.71239 0.587672 0
5.10509 0.587672 0
5.10509 0 0
5.49779 0 0
5.10509 0.587672 0
5.49779 0.587672 0
4.71239 0.587672 0
5.10509 0.587672 0
4.71239 1.21525 0
5.10509 1.21525 0
5.10509 0.587672 0
5.49779 0.587672 0
5.10509 1.21525 0
5.49779 1.21525 0
5.49779 0 0
5.89049 0 0
5.49779 0.587672 0
5.89049 0.587672 0
5.89049 0 0
6.28319 0 0
5.89049 0.587672 0
6.28319 0.587672 0
5.49779 0.587672 0
5.89049 0.587672 0
5.49779 1.21525 0
5.89049 1.21525 0
5.89049 0.587672 0
6.28319 0.587672 0
5.89049 1.21525 0
6.28319 1.21525 0
4.71239 1.21525 0
5.10509 1.21525 0
4.71239 1.84163 0
5.10509 1.84163 0
5.10509 1.21525 0
5.49779 1.21525 0
5.10509 1.84163 0
5.49779 1.84163 0
4.71239 1.84163 0
5.10509 1.84163 0
4.71239 2.46944 0
5.10509 2.46944 0
5.10509 1.84163 0
5.49779 1.84163 0
5.10509 2.46944 0
5.49779 2.46944 0
5.49779 1.21525 0
5.89049 1.21525 0
5.49779 1.84163 0
5.89049 1.84163 0
5.89049 1.21525 0
6.28319 1.21525 0
5.89049 1.84163 0
6.28319 1.84163 0
5.49779 1.84163 0
5.89049 1.84163 0
5.49779 2.46944 0
5.89049 2.46944 0
5.89049 1.84163 0
6.28319 1.84163 0
5.89049 2.46944 0
6.28319 2.46944 0
3.14159 2.46944 0
3.53429 2.46944 0
3.14159 3.09685 0
3.53429 3.09685 0
3.53429 2.46944 0
3.92699 2.46944 0
3.53429 3.09685 0
3.92699 3.09685 0
3.14159 3.09685 0
3.53429 3.09685 0
3.14159 3.7243 0
3.53429 3.7243 0
3.53429 3.09685 0
3.92699 3.09685 0
3.53429 3.7243 0
3.92699 3.7243 0
3.92699 2.46944 0
4.31969 2.46944 0
3.92699 3.09685 0
4.31969 3.09685 0
4.31969 2.46944 0
4.71239 2.46944 0
4.31969 3.09685 0
4.71239 3.09685 0
3.92699 3.09685 0
4.31969 3.09685 0
3.92699 3.7243 0
4.31969 3.7243 0
4.31969 3.09685 0
4.71239 3.09685 0
4.31969 3.7243 0
4.71239 3.7243 0
3.14159 3.7243 0
3.53429 3.7243 0
3.14159 4.35163 0
3.53429 4.35163 0
3.53429 3.7243 0
3.92699 3.7243 0
3.53429 4.35163 0
3.92699 4.35163 0
3.14159 4.35163 0
3.53429 4.35163 0
3.14159 4.97887 0
3.53429 4.97887 0
3.53429 4.35163 0
3.92699 4.35163 0
3.53429 4.97887 0
3.92699 4.97887 0
3.92699 3.7243 0
4.31969 3.7243 0
3.92699 4.35163 0
4.31969 4.35163 0
4.31969 3.7243 0
4.71239 3.7243 0
4.31969 4.35163 0
4.71239 4.35163 0
3.92699 4.35163 0
4.31969 4.35163 0
3.92699 4.97887 0
4.31969 4.97887 0
4.31969 4.35163 0
4.71239 4.35163 0
4.31969 4.97887 0
4.71239 4.97887 0
4.71239 2.46944 0
5.10509 2.46944 0
4.71239 3.09685 0
5.10509 3.09685 0
5.10509 2.46944 0
5.49779 2.46944 0
5.10509 3.09685 0
5.49779 3.09685 0
4.71239 3.09685 0
5.10509 3.09685 0
4.71239 3.7243 0
5.10509 3.7243 0
5.10509 3.09685 0
5.49779 3.09685 0
5.10509 3.7243 0
5.49779 3.7243 0
5.49779 2.46944 0
5.89049 2.46944 0
5.49779 3.09685 0
5.89049 3.09685 0
5.89049 2.46944 0
6.28319 2.46944 0
5.89049 3.09685 0
6.28319 3.09685 0
5.49779 3.09685 0
5.89049 3.09685 0
5.49779 3.7243 0
5.89049 3.7243 0
5.89049 3.09685 0
6.28319 3.09685 0
5.89049 3.7243 0
6.28319 3.7243 0
4.71239 3.7243 0
5.10509 3.7243 0
4.71239 4.35163 0
5.10509 4.35163 0
5.10509 3.7243 0
5.49779 3.7243 0
5.10509 4.35163 0
5.49779 4.35163 0
4.71239 4.35163 0
5.10509 4.35163 0
4.71239 4.97887 0
5.10509 4.97887 0
5.10509 4.35163 0
5.49779 4.35163 0
5.10509 4.97887 0
5.49779 4.97887 0
5.49779 3.7243 0
5.89049 3.7243 0
5.49779 4.35163 0
5.89049 4.35163 0
5.89049 3.7243 0
6.28319 3.7243 0
5.89049 4.35163 0
6.28319 4.35163 0
5.49779 4.35163 0
5.89049 4.35163 0
5.49779 4.97887 0
5.89049 4.97887 0
5.89049 4.35163 0
6.28319 4.35163 0
5.89049 4.97887 0
6.28319 4.97887 0
0 4.97887 0
0.392699 4.97887 0
0 5.60599 0
0.392699 5.60599 0
0.392699 4.97887 0
0.785398 4.97887 0
0.392699 5.60599 0
0.785398 5.60599 0
0 5.60599 0
0.392699 5.60599 0
0 6.23301 0
0.392699 6.23301 0
0.392699 5.60599 0
0.785398 5.60599 0
0.392699 6.23301 0
0.785398 6.23301 0
0.785398 4.97887 0
1.1781 4.97887 0
0.785398 5.60599 0
1.1781 5.60599 0
1.1781 4.97887 0
1.5708 4.97887 0
1.1781 5.60599 0
1.5708 5.60599 0
0.785398 5.60599 0
1.1781 5.60599 0
0.785398 6.23301 0
1.1781 6.23301 0
1.1781 5.60599 0
1.5708 5.60599 0
1.1781 6.23301 0
1.5708 6.23301 0
0 6.23301 0
0.392699 6.23301 0
0 6.85994 0
0.392699 6.85994 0
0.392699 6.23301 0
0.785398 6.23301 0
0.392699 6.85994 0
0.785398 6.85994 0
0 6.85994 0
0.392699 6.85994 0
0 7.48689 0
0.392699 7.48689 0
0.392699 6.85994 0
0.785398 6.85994 0
0.392699 7.48689 0
0.785398 7.48689 0
0.785398 6.23301 0
1.1781 6.23301 0
0.785398 6.85994 0
1.1781 6.85994 0
1.1781 6.23301 0
1.5708 6.23301 0
[...]
POINT_DATA 5120
VECTORS uf double
0 1 0
-2.03167e-13 1 0
0 1.00261 0
-1.99608e-13 1.00261 0
-2.03167e-13 1 0
1.48153e-14 1 0
-1.99608e-13 1.00261 0
2.28559e-14 1.00261 0
0 1.00261 0
1.87196e-13 1.00261 0
0 1.00396 0
1.75312e-13 1.00396 0
1.87196e-13 1.00261 0
-6.41607e-14 1.00261 0
1.75312e-13 1.00396 0
-5.76242e-14 1.00396 0
1.48153e-14 1 0
3.11612e-13 1 0
2.28559e-14 1.00261 0
3.07412e-13 1.00261 0
3.11612e-13 1 0
4.75441e-14 1 0
3.07412e-13 1.00261 0
4.51879e-14 1.00261 0
-6.41607e-14 1.00261 0
-3.0463e-13 1.00261 0
-5.76242e-14 1.00396 0
-2.81598e-13 1.00396 0
-3.0463e-13 1.00261 0
-4.35858e-14 1.00261 0
-2.81598e-13 1.00396 0
-4.00236e-14 1.00396 0
0 1.00396 0
-2.4484e-14 1.00396 0
0 1.0056 0
-2.55958e-14 1.0056 0
-2.4484e-14 1.00396 0
1.32201e-13 1.00396 0
-2.55958e-14 1.0056 0
1.3132e-13 1.0056 0
0 1.0056 0
4.3138e-14 1.0056 0
0 1.00711 0
4.4137e-14 1.00711 0
4.3138e-14 1.0056 0
-7.28739e-14 1.0056 0
4.4137e-14 1.00711 0
-6.80238e-14 1.00711 0
1.32201e-13 1.00396 0
-1.7862e-14 1.00396 0
1.3132e-13 1.0056 0
1.76168e-16 1.0056 0
-1.7862e-14 1.00396 0
-1.37251e-14 1.00396 0
1.76168e-16 1.0056 0
8.56368e-15 1.0056 0
-7.28739e-14 1.0056 0
8.12796e-14 1.0056 0
-6.80238e-14 1.00711 0
7.58593e-14 1.00711 0
8.12796e-14 1.0056 0
-4.29579e-14 1.0056 0
7.58593e-14 1.00711 0
-3.28449e-14 1.00711 0
4.75441e-14 1 0
-2.66305e-14 1 0
4.51879e-14 1.00261 0
-2.01941e-14 1.00261 0
-2.66305e-14 1 0
-5.66722e-15 1 0
-2.01941e-14 1.00261 0
5.13846e-15 1.00261 0
-4.35858e-14 1.00261 0
2.19228e-14 1.00261 0
-4.00236e-14 1.00396 0
2.84041e-14 1.00396 0
2.19228e-14 1.00261 0
-2.92249e-15 1.00261 0
2.84041e-14 1.00396 0
3.07935e-15 1.00396 0
-5.66722e-15 1 0
3.98114e-15 1 0
5.13846e-15 1.00261 0
-3.24414e-15 1.00261 0
3.98114e-15 1 0
-3.54222e-15 1 0
-3.24414e-15 1.00261 0
9.47933e-15 1.00261 0
-2.92249e-15 1.00261 0
-4.32825e-15 1.00261 0
3.07935e-15 1.00396 0
2.4319e-15 1.00396 0
-4.32825e-15 1.00261 0
-5.26141e-15 1.00261 0
2.4319e-15 1.00396 0
3.91335e-15 1.00396 0
-1.37251e-14 1.00396 0
7.18898e-14 1.00396 0
8.56368e-15 1.0056 0
8.21193e-14 1.0056 0
7.18898e-14 1.00396 0
5.11206e-15 1.00396 0
8.21193e-14 1.0056 0
-2.63898e-15 1.0056 0
-4.29579e-14 1.0056 0
-5.95288e-14 1.0056 0
-3.28449e-14 1.00711 0
-5.82031e-14 1.00711 0
-5.95288e-14 1.0056 0
1.93235e-15 1.0056 0
-5.82031e-14 1.00711 0
9.45872e-17 1.00711 0
5.11206e-15 1.00396 0
2.10504e-15 1.00396 0
-2.63898e-15 1.0056 0
5.97371e-15 1.0056 0
2.10504e-15 1.00396 0
5.43096e-15 1.00396 0
5.97371e-15 1.0056 0
9.37402e-15 1.0056 0
1.93235e-15 1.0056 0
-1.3572e-15 1.0056 0
9.45872e-17 1.00711 0
1.98035e-15 1.00711 0
-1.3572e-15 1.0056 0
-9.179e-15 1.0056 0
1.98035e-15 1.00711 0
3.62697e-15 1.00711 0
0 1.00711 0
-1.15887e-13 1.00711 0
0 1.00862 0
-1.01649e-13 1.00862 0
-1.15887e-13 1.00711 0
-6.46796e-15 1.00711 0
-1.01649e-13 1.00862 0
-2.42654e-16 1.00862 0
0 1.00862 0
1.2408e-13 1.00862 0
0 1.01009 0
1.15364e-13 1.01009 0
1.2408e-13 1.00862 0
5.77309e-14 1.00862 0
1.15364e-13 1.01009 0
6.39768e-14 1.01009 0
-6.46796e-15 1.00711 0
-9.23828e-14 1.00711 0
-2.42654e-16 1.00862 0
-7.70458e-14 1.00862 0
-9.23828e-14 1.00711 0
4.78806e-14 1.00711 0
-7.70458e-14 1.00862 0
4.67781e-14 1.00862 0
5.77309e-14 1.00862 0
7.75189e-14 1.00862 0
6.39768e-14 1.01009 0
7.88247e-14 1.01009 0
7.75189e-14 1.00862 0
-7.07207e-14 1.00862 0
7.88247e-14 1.01009 0
-5.62642e-14 1.01009 0
0 1.01009 0
1.11797e-15 1.01009 0
0 1.01154 0
-2.98374e-15 1.01154 0
1.11797e-15 1.01009 0
-2.22741e-13 1.01009 0
-2.98374e-15 1.01154 0
-2.14416e-13 1.01154 0
0 1.01154 0
9.95018e-15 1.01154 0
0 1.01296 0
7.06241e-15 1.01296 0
9.95018e-15 1.01154 0
2.08902e-13 1.01154 0
7.06241e-15 1.01296 0
2.07431e-13 1.01296 0
-2.22741e-13 1.01009 0
-7.37187e-14 1.01009 0
-2.14416e-13 1.01154 0
-7.18972e-14 1.01154 0
-7.37187e-14 1.01009 0
1.47372e-13 1.01009 0
-7.18972e-14 1.01154 0
1.42354e-13 1.01154 0
2.08902e-13 1.01154 0
3.23727e-14 1.01154 0
2.07431e-13 1.01296 0
2.92693e-14 1.01296 0
3.23727e-14 1.01154 0
-1.56184e-13 1.01154 0
2.92693e-14 1.01296 0
-1.52404e-13 1.01296 0
4.78806e-14 1.00711 0
2.55008e-14 1.00711 0
4.67781e-14 1.00862 0
3.17298e-14 1.00862 0
2.55008e-14 1.00711 0
-1.97593e-15 1.00711 0
3.17298e-14 1.00862 0
7.29012e-16 1.00862 0
-7.07207e-14 1.00862 0
-3.97063e-14 1.00862 0
-5.62642e-14 1.01009 0
-4.21466e-14 1.01009 0
-3.97063e-14 1.00862 0
-1.8969e-14 1.00862 0
-4.21466e-14 1.01009 0
-1.66853e-14 1.01009 0
-1.97593e-15 1.00711 0
-5.82387e-15 1.00711 0
7.29012e-16 1.00862 0
4.75496e-15 1.00862 0
-5.82387e-15 1.00711 0
-1.14496e-14 1.00711 0
4.75496e-15 1.00862 0
9.82264e-15 1.00862 0
-1.8969e-14 1.00862 0
-3.14049e-15 1.00862 0
-1.66853e-14 1.01009 0
5.53723e-15 1.01009 0
-3.14049e-15 1.00862 0
4.13046e-14 1.00862 0
5.53723e-15 1.01009 0
4.06548e-14 1.01009 0
1.47372e-13 1.01009 0
-2.35243e-14 1.01009 0
1.42354e-13 1.01154 0
-1.53631e-14 1.01154 0
-2.35243e-14 1.01009 0
1.82677e-14 1.01009 0
-1.53631e-14 1.01154 0
2.10166e-14 1.01154 0
-1.56184e-13 1.01154 0
-5.24614e-14 1.01154 0
-1.52404e-13 1.01296 0
-4.17984e-14 1.01296 0
-5.24614e-14 1.01154 0
-7.1268e-15 1.01154 0
-4.17984e-14 1.01296 0
-7.85706e-15 1.01296 0
1.82677e-14 1.01009 0
-7.42038e-15 1.01009 0
2.10166e-14 1.01154 0
-5.8418e-15 1.01154 0
-7.42038e-15 1.01009 0
-4.23832e-14 1.01009 0
-5.8418e-15 1.01154 0
-3.53794e-14 1.01154 0
-7.1268e-15 1.01154 0
1.72561e-14 1.01154 0
-7.85706e-15 1.01296 0
1.76583e-14 1.01296 0
1.72561e-14 1.01154 0
-9.13726e-15 1.01154 0
1.76583e-14 1.01296 0
-4.13625e-15 1.01296 0
-3.54222e-15 1 0
6.60557e-15 1 0
9.47933e-15 1.00261 0
-9.38029e-16 1.00261 0
6.60557e-15 1 0
5.70089e-15 1 0
-9.38029e-16 1.00261 0
2.42333e-15 1.00261 0
-5.26141e-15 1.00261 0
3.05839e-15 1.00261 0
3.91335e-15 1.00396 0
8.68073e-15 1.00396 0
3.05839e-15 1.00261 0
3.7128e-16 1.00261 0
8.68073e-15 1.00396 0
-6.02756e-15 1.00396 0
5.70089e-15 1 0
6.25858e-15 1 0
2.42333e-15 1.00261 0
1.31278e-15 1.00261 0
6.25858e-15 1 0
-1.01189e-15 1 0
1.31278e-15 1.00261 0
1.45622e-15 1.00261 0
3.7128e-16 1.00261 0
-6.89917e-15 1.00261 0
-6.02756e-15 1.00396 0
1.05766e-14 1.00396 0
-6.89917e-15 1.00261 0
6.99065e-15 1.00261 0
1.05766e-14 1.00396 0
1.64314e-15 1.00396 0
5.43096e-15 1.00396 0
-2.72673e-15 1.00396 0
9.37402e-15 1.0056 0
8.83327e-15 1.0056 0
-2.72673e-15 1.00396 0
4.7864e-15 1.00396 0
8.83327e-15 1.0056 0
1.07459e-14 1.0056 0
-9.179e-15 1.0056 0
-1.12411e-15 1.0056 0
3.62697e-15 1.00711 0
7.21963e-15 1.00711 0
-1.12411e-15 1.0056 0
6.28983e-15 1.0056 0
7.21963e-15 1.00711 0
4.3992e-15 1.00711 0
4.7864e-15 1.00396 0
9.3698e-15 1.00396 0
1.07459e-14 1.0056 0
-9.08134e-16 1.0056 0
9.3698e-15 1.00396 0
6.07093e-15 1.00396 0
-9.08134e-16 1.0056 0
1.11621e-14 1.0056 0
6.28983e-15 1.0056 0
-7.1549e-15 1.0056 0
4.3992e-15 1.00711 0
4.51537e-15 1.00711 0
-7.1549e-15 1.0056 0
2.15374e-15 1.0056 0
4.51537e-15 1.00711 0
5.62208e-15 1.00711 0
-1.01189e-15 1 0
3.88953e-16 1 0
1.45622e-15 1.00261 0
1.32012e-14 1.00261 0
3.88953e-16 1 0
7.69725e-16 1 0
1.32012e-14 1.00261 0
1.09056e-14 1.00261 0
6.99065e-15 1.00261 0
-1.55073e-15 1.00261 0
1.64314e-15 1.00396 0
-1.71992e-15 1.00396 0
-1.55073e-15 1.00261 0
-9.71794e-15 1.00261 0
-1.71992e-15 1.00396 0
1.55016e-14 1.00396 0
7.69725e-16 1 0
4.76396e-15 1 0
1.09056e-14 1.00261 0
6.72631e-15 1.00261 0
4.76396e-15 1 0
1.38072e-15 1 0
6.72631e-15 1.00261 0
1.09461e-14 1.00261 0
-9.71794e-15 1.00261 0
2.29084e-15 1.00261 0
1.55016e-14 1.00396 0
1.04988e-14 1.00396 0
2.29084e-15 1.00261 0
-5.18333e-15 1.00261 0
1.04988e-14 1.00396 0
1.21374e-15 1.00396 0
6.07093e-15 1.00396 0
-6.33463e-15 1.00396 0
1.11621e-14 1.0056 0
1.13875e-14 1.0056 0
-6.33463e-15 1.00396 0
5.79156e-15 1.00396 0
1.13875e-14 1.0056 0
2.4723e-15 1.0056 0
2.15374e-15 1.0056 0
6.61047e-16 1.0056 0
5.62208e-15 1.00711 0
5.02405e-15 1.00711 0
6.61047e-16 1.0056 0
-3.73352e-15 1.0056 0
5.02405e-15 1.00711 0
3.77693e-15 1.00711 0
5.79156e-15 1.00396 0
-1.4016e-14 1.00396 0
2.4723e-15 1.0056 0
1.8308e-14 1.0056 0
-1.4016e-14 1.00396 0
1.12529e-15 1.00396 0
1.8308e-14 1.0056 0
2.77006e-15 1.0056 0
-3.73352e-15 1.0056 0
-5.25366e-15 1.0056 0
3.77693e-15 1.00711 0
5.68583e-15 1.00711 0
-5.25366e-15 1.0056 0
-1.38254e-15 1.0056 0
5.68583e-15 1.00711 0
2.72445e-15 1.00711 0
-1.14496e-14 1.00711 0
-6.28317e-15 1.00711 0
9.82264e-15 1.00862 0
1.90709e-15 1.00862 0
-6.28317e-15 1.00711 0
-9.36291e-15 1.00711 0
1.90709e-15 1.00862 0
-8.46068e-15 1.00862 0
4.13046e-14 1.00862 0
-1.08194e-14 1.00862 0
4.06548e-14 1.01009 0
-2.47758e-15 1.01009 0
-1.08194e-14 1.00862 0
7.36819e-15 1.00862 0
-2.47758e-15 1.01009 0
1.7441e-15 1.01009 0
-9.36291e-15 1.00711 0
2.4333e-15 1.00711 0
-8.46068e-15 1.00862 0
4.00069e-15 1.00862 0
2.4333e-15 1.00711 0
-1.14785e-14 1.00711 0
4.00069e-15 1.00862 0
1.0214e-14 1.00862 0
7.36819e-15 1.00862 0
-1.67348e-15 1.00862 0
1.7441e-15 1.01009 0
3.369e-15 1.01009 0
-1.67348e-15 1.00862 0
-1.62959e-15 1.00862 0
3.369e-15 1.01009 0
-9.18355e-17 1.01009 0
-4.23832e-14 1.01009 0
1.55452e-14 1.01009 0
-3.53794e-14 1.01154 0
9.94892e-15 1.01154 0
1.55452e-14 1.01009 0
-7.78816e-15 1.01009 0
9.94892e-15 1.01154 0
-3.47454e-15 1.01154 0
-9.13726e-15 1.01154 0
-1.07275e-14 1.01154 0
-4.13625e-15 1.01296 0
-8.66364e-15 1.01296 0
-1.07275e-14 1.01154 0
3.79825e-14 1.01154 0
-8.66364e-15 1.01296 0
3.11307e-14 1.01296 0
-7.78816e-15 1.01009 0
-5.161e-15 1.01009 0
-3.47454e-15 1.01154 0
5.58782e-15 1.01154 0
-5.161e-15 1.01009 0
5.97938e-16 1.01009 0
5.58782e-15 1.01154 0
1.19616e-15 1.01154 0
3.79825e-14 1.01154 0
2.99044e-15 1.01154 0
3.11307e-14 1.01296 0
4.44828e-15 1.01296 0
2.99044e-15 1.01154 0
-8.02864e-16 1.01154 0
4.44828e-15 1.01296 0
5.61814e-16 1.01296 0
-1.14785e-14 1.00711 0
-1.67769e-15 1.00711 0
1.0214e-14 1.00862 0
-3.40815e-16 1.00862 0
-1.67769e-15 1.00711 0
-6.24367e-15 1.00711 0
-3.40815e-16 1.00862 0
6.47079e-15 1.00862 0
-1.62959e-15 1.00862 0
-7.16417e-16 1.00862 0
-9.18355e-17 1.01009 0
2.37917e-15 1.01009 0
-7.16417e-16 1.00862 0
4.56905e-15 1.00862 0
2.37917e-15 1.01009 0
-4.55485e-15 1.01009 0
-6.24367e-15 1.00711 0
3.74994e-15 1.00711 0
6.47079e-15 1.00862 0
-1.75656e-16 1.00862 0
3.74994e-15 1.00711 0
6.01345e-15 1.00711 0
-1.75656e-16 1.00862 0
-1.47266e-15 1.00862 0
4.56905e-15 1.00862 0
-3.26142e-15 1.00862 0
-4.55485e-15 1.01009 0
7.82012e-15 1.01009 0
-3.26142e-15 1.00862 0
-4.70713e-16 1.00862 0
7.82012e-15 1.01009 0
2.23258e-15 1.01009 0
5.97938e-16 1.01009 0
7.64427e-16 1.01009 0
1.19616e-15 1.01154 0
5.83531e-16 1.01154 0
7.64427e-16 1.01009 0
-5.29752e-15 1.01009 0
5.83531e-16 1.01154 0
4.73618e-15 1.01154 0
-8.02864e-16 1.01154 0
2.63157e-15 1.01154 0
5.61814e-16 1.01296 0
-1.81922e-15 1.01296 0
2.63157e-15 1.01154 0
-1.59871e-15 1.01154 0
-1.81922e-15 1.01296 0
4.20087e-15 1.01296 0
-5.29752e-15 1.01009 0
-2.72597e-15 1.01009 0
4.73618e-15 1.01154 0
4.16469e-15 1.01154 0
-2.72597e-15 1.01009 0
5.01081e-16 1.01009 0
4.16469e-15 1.01154 0
4.32516e-15 1.01154 0
-1.59871e-15 1.01154 0
-2.64938e-15 1.01154 0
4.20087e-15 1.01296 0
-2.50815e-15 1.01296 0
-2.64938e-15 1.01154 0
2.1396e-15 1.01154 0
-2.50815e-15 1.01296 0
2.20454e-15 1.01296 0
0 1.01296 0
-7.07318e-14 1.01296 0
0 1.01437 0
-6.41364e-14 1.01437 0
-7.07318e-14 1.01296 0
-1.36517e-13 1.01296 0
-6.41364e-14 1.01437 0
-1.33998e-13 1.01437 0
0 1.01437 0
7.50337e-14 1.01437 0
0 1.01578 0
6.65934e-14 1.01578 0
7.50337e-14 1.01437 0
1.3353e-13 1.01437 0
6.65934e-14 1.01578 0
1.34979e-13 1.01578 0
-1.36517e-13 1.01296 0
4.90364e-14 1.01296 0
-1.33998e-13 1.01437 0
4.9223e-14 1.01437 0
4.90364e-14 1.01296 0
9.61842e-14 1.01296 0
4.9223e-14 1.01437 0
8.98718e-14 1.01437 0
1.3353e-13 1.01437 0
-1.48232e-13 1.01437 0
1.34979e-13 1.01578 0
-1.36878e-13 1.01578 0
-1.48232e-13 1.01437 0
-4.66443e-14 1.01437 0
-1.36878e-13 1.01578 0
-4.71343e-14 1.01578 0
0 1.01578 0
-6.44087e-14 1.01578 0
0 1.01718 0
-6.39255e-14 1.01718 0
-6.44087e-14 1.01578 0
-9.40855e-14 1.01578 0
-6.39255e-14 1.01718 0
-8.87425e-14 1.01718 0
0 1.01718 0
4.49671e-14 1.01718 0
0 1.0186 0
4.65571e-14 1.0186 0
4.49671e-14 1.01718 0
5.27673e-14 1.01718 0
4.65571e-14 1.0186 0
5.42067e-14 1.0186 0
-9.40855e-14 1.01578 0
1.06054e-13 1.01578 0
-8.87425e-14 1.01718 0
1.07109e-13 1.01718 0
1.06054e-13 1.01578 0
4.69201e-14 1.01578 0
1.07109e-13 1.01718 0
5.20808e-14 1.01718 0
5.27673e-14 1.01718 0
-4.84941e-14 1.01718 0
5.42067e-14 1.0186 0
-4.05617e-14 1.0186 0
-4.84941e-14 1.01718 0
-1.63781e-14 1.01718 0
-4.05617e-14 1.0186 0
-1.69948e-14 1.0186 0
9.61842e-14 1.01296 0
8.15141e-14 1.01296 0
8.98718e-14 1.01437 0
8.60531e-14 1.01437 0
8.15141e-14 1.01296 0
1.10265e-14 1.01296 0
8.60531e-14 1.01437 0
1.23483e-14 1.01437 0
-4.66443e-14 1.01437 0
-1.36151e-14 1.01437 0
-4.71343e-14 1.01578 0
-1.55729e-14 1.01578 0
-1.36151e-14 1.01437 0
-1.12962e-14 1.01437 0
-1.55729e-14 1.01578 0
-2.7047e-15 1.01578 0
1.10265e-14 1.01296 0
-1.2867e-14 1.01296 0
1.23483e-14 1.01437 0
-1.1053e-14 1.01437 0
-1.2867e-14 1.01296 0
9.89652e-15 1.01296 0
-1.1053e-14 1.01437 0
1.08425e-14 1.01437 0
-1.12962e-14 1.01437 0
-8.99744e-16 1.01437 0
-2.7047e-15 1.01578 0
1.02656e-14 1.01578 0
-8.99744e-16 1.01437 0
-6.90121e-15 1.01437 0
1.02656e-14 1.01578 0
-4.54814e-15 1.01578 0
4.69201e-14 1.01578 0
1.08508e-14 1.01578 0
5.20808e-14 1.01718 0
4.69481e-15 1.01718 0
1.08508e-14 1.01578 0
3.57345e-15 1.01578 0
4.69481e-15 1.01718 0
7.07836e-16 1.01718 0
-1.63781e-14 1.01718 0
-1.24973e-14 1.01718 0
-1.69948e-14 1.0186 0
-1.1449e-14 1.0186 0
-1.24973e-14 1.01718 0
-4.43885e-15 1.01718 0
-1.1449e-14 1.0186 0
2.16637e-15 1.0186 0
3.57345e-15 1.01578 0
-3.89015e-15 1.01578 0
7.07836e-16 1.01718 0
7.58516e-15 1.01718 0
-3.89015e-15 1.01578 0
1.64777e-15 1.01578 0
7.58516e-15 1.01718 0
1.12196e-15 1.01718 0
-4.43885e-15 1.01718 0
-5.07049e-15 1.01718 0
2.16637e-15 1.0186 0
3.61602e-15 1.0186 0
-5.07049e-15 1.01718 0
-3.26198e-15 1.01718 0
3.61602e-15 1.0186 0
3.97383e-15 1.0186 0
0 1.0186 0
2.62103e-14 1.0186 0
0 1.02002 0
2.26105e-14 1.02002 0
2.62103e-14 1.0186 0
-3.75095e-14 1.0186 0
2.26105e-14 1.02002 0
-3.54203e-14 1.02002 0
0 1.02002 0
-4.0518e-14 1.02002 0
0 1.02141 0
-3.84713e-14 1.02141 0
-4.0518e-14 1.02002 0
3.33701e-14 1.02002 0
-3.84713e-14 1.02141 0
3.55032e-14 1.02141 0
-3.75095e-14 1.0186 0
4.05571e-15 1.0186 0
-3.54203e-14 1.02002 0
6.87539e-15 1.02002 0
4.05571e-15 1.0186 0
-1.62733e-14 1.0186 0
6.87539e-15 1.02002 0
-1.33146e-14 1.02002 0
3.33701e-14 1.02002 0
-7.18707e-15 1.02002 0
3.55032e-14 1.02141 0
-2.9652e-15 1.02141 0
-7.18707e-15 1.02002 0
-2.72619e-15 1.02002 0
-2.9652e-15 1.02141 0
-2.49679e-15 1.02141 0
0 1.02141 0
6.70883e-15 1.02141 0
0 1.02262 0
3.04503e-15 1.02262 0
6.70883e-15 1.02141 0
-3.65955e-14 1.02141 0
3.04503e-15 1.02262 0
-3.53714e-14 1.02262 0
0 1.02262 0
3.4069e-15 1.02262 0
0 1.02318 0
1.61034e-15 1.02318 0
3.4069e-15 1.02262 0
-7.62557e-15 1.02262 0
1.61034e-15 1.02318 0
4.63406e-15 1.02318 0
-3.65955e-14 1.02141 0
4.15073e-15 1.02141 0
-3.53714e-14 1.02262 0
3.43409e-15 1.02262 0
4.15073e-15 1.02141 0
2.55572e-15 1.02141 0
3.43409e-15 1.02262 0
-1.88271e-17 1.02262 0
-7.62557e-15 1.02262 0
-9.13072e-15 1.02262 0
4.63406e-15 1.02318 0
-1.84631e-14 1.02318 0
-9.13072e-15 1.02262 0
4.86924e-16 1.02262 0
-1.84631e-14 1.02318 0
1.94305e-14 1.02318 0
-1.62733e-14 1.0186 0
-1.45089e-14 1.0186 0
-1.33146e-14 1.02002 0
-8.6998e-15 1.02002 0
-1.45089e-14 1.0186 0
-2.02952e-15 1.0186 0
-8.6998e-15 1.02002 0
1.87047e-15 1.02002 0
-2.72619e-15 1.02002 0
1.04349e-14 1.02002 0
-2.49679e-15 1.02141 0
1.12416e-14 1.02141 0
1.04349e-14 1.02002 0
-4.48674e-15 1.02002 0
1.12416e-14 1.02141 0
2.20346e-15 1.02141 0
-2.02952e-15 1.0186 0
-1.47847e-15 1.0186 0
1.87047e-15 1.02002 0
3.38227e-16 1.02002 0
-1.47847e-15 1.0186 0
-6.67443e-15 1.0186 0
3.38227e-16 1.02002 0
2.14397e-15 1.02002 0
-4.48674e-15 1.02002 0
-4.50106e-15 1.02002 0
2.20346e-15 1.02141 0
-8.96194e-17 1.02141 0
-4.50106e-15 1.02002 0
-1.83452e-15 1.02002 0
-8.96194e-17 1.02141 0
2.14947e-15 1.02141 0
2.55572e-15 1.02141 0
-1.69975e-14 1.02141 0
-1.88271e-17 1.02262 0
-1.39205e-14 1.02262 0
-1.69975e-14 1.02141 0
-2.28912e-15 1.02141 0
-1.39205e-14 1.02262 0
2.10718e-15 1.02262 0
4.86924e-16 1.02262 0
-2.30968e-15 1.02262 0
1.94305e-14 1.02318 0
5.78457e-15 1.02318 0
-2.30968e-15 1.02262 0
-2.64043e-15 1.02262 0
5.78457e-15 1.02318 0
2.34727e-18 1.02318 0
-2.28912e-15 1.02141 0
-9.21924e-16 1.02141 0
2.10718e-15 1.02262 0
7.69664e-16 1.02262 0
-9.21924e-16 1.02141 0
-1.13671e-16 1.02141 0
7.69664e-16 1.02262 0
6.28882e-16 1.02262 0
-2.64043e-15 1.02262 0
-7.57995e-16 1.02262 0
2.34727e-18 1.02318 0
9.156e-15 1.02318 0
-7.57995e-16 1.02262 0
1.2398e-15 1.02262 0
9.156e-15 1.02318 0
-2.50944e-14 1.02318 0
9.89652e-15 1.01296 0
1.48269e-14 1.01296 0
1.08425e-14 1.01437 0
1.8546e-14 1.01437 0
1.48269e-14 1.01296 0
-2.32861e-14 1.01296 0
1.8546e-14 1.01437 0
-2.17504e-14 1.01437 0
-6.90121e-15 1.01437 0
-7.36032e-15 1.01437 0
-4.54814e-15 1.01578 0
9.5944e-16 1.01578 0
-7.36032e-15 1.01437 0
-2.68269e-15 1.01437 0
9.5944e-16 1.01578 0
-1.44315e-16 1.01578 0
-2.32861e-14 1.01296 0
-4.08712e-15 1.01296 0
-2.17504e-14 1.01437 0
6.35612e-16 1.01437 0
-4.08712e-15 1.01296 0
1.50495e-16 1.01296 0
6.35612e-16 1.01437 0
6.45465e-15 1.01437 0
-2.68269e-15 1.01437 0
-3.68101e-15 1.01437 0
-1.44315e-16 1.01578 0
5.67335e-15 1.01578 0
-3.68101e-15 1.01437 0
-2.20673e-15 1.01437 0
5.67335e-15 1.01578 0
2.30063e-15 1.01578 0
1.64777e-15 1.01578 0
-3.54943e-15 1.01578 0
1.12196e-15 1.01718 0
4.85758e-15 1.01718 0
-3.54943e-15 1.01578 0
-2.97487e-15 1.01578 0
4.85758e-15 1.01718 0
2.33378e-15 1.01718 0
-3.26198e-15 1.01718 0
-3.94117e-15 1.01718 0
3.97383e-15 1.0186 0
3.59606e-15 1.0186 0
-3.94117e-15 1.01718 0
1.10177e-15 1.01718 0
3.59606e-15 1.0186 0
8.92382e-17 1.0186 0
-2.97487e-15 1.01578 0
3.03843e-16 1.01578 0
2.33378e-15 1.01718 0
6.42933e-16 1.01718 0
3.03843e-16 1.01578 0
3.99639e-16 1.01578 0
6.42933e-16 1.01718 0
7.18393e-16 1.01718 0
1.10177e-15 1.01718 0
-3.26427e-15 1.01718 0
8.92382e-17 1.0186 0
3.48794e-15 1.0186 0
-3.26427e-15 1.01718 0
-4.11661e-16 1.01718 0
3.48794e-15 1.0186 0
4.68243e-15 1.0186 0
1.50495e-16 1.01296 0
-1.78399e-16 1.01296 0
6.45465e-15 1.01437 0
3.71795e-15 1.01437 0
-1.78399e-16 1.01296 0
2.33857e-16 1.01296 0
3.71795e-15 1.01437 0
3.77736e-15 1.01437 0
-2.20673e-15 1.01437 0
7.87242e-16 1.01437 0
2.30063e-15 1.01578 0
1.2213e-16 1.01578 0
7.87242e-16 1.01437 0
-1.43459e-15 1.01437 0
1.2213e-16 1.01578 0
4.5126e-15 1.01578 0
2.33857e-16 1.01296 0
-2.86312e-15 1.01296 0
3.77736e-15 1.01437 0
3.46072e-15 1.01437 0
-2.86312e-15 1.01296 0
3.98322e-16 1.01296 0
3.46072e-15 1.01437 0
-1.22816e-15 1.01437 0
-1.43459e-15 1.01437 0
-5.50317e-16 1.01437 0
4.5126e-15 1.01578 0
3.47353e-15 1.01578 0
-5.50317e-16 1.01437 0
-5.30419e-16 1.01437 0
3.47353e-15 1.01578 0
4.16009e-15 1.01578 0
3.99639e-16 1.01578 0
6.83835e-16 1.01578 0
7.18393e-16 1.01718 0
-1.22615e-15 1.01718 0
6.83835e-16 1.01578 0
-3.07425e-15 1.01578 0
-1.22615e-15 1.01718 0
2.95457e-15 1.01718 0
-4.11661e-16 1.01718 0
-2.82404e-16 1.01718 0
4.68243e-15 1.0186 0
3.49664e-15 1.0186 0
-2.82404e-16 1.01718 0
-3.72517e-15 1.01718 0
3.49664e-15 1.0186 0
3.36087e-15 1.0186 0
-3.07425e-15 1.01578 0
-6.69945e-16 1.01578 0
2.95457e-15 1.01718 0
4.98084e-15 1.01718 0
-6.69945e-16 1.01578 0
-1.75591e-15 1.01578 0
4.98084e-15 1.01718 0
7.00198e-15 1.01718 0
-3.72517e-15 1.01718 0
-4.92606e-15 1.01718 0
3.36087e-15 1.0186 0
5.44446e-16 1.0186 0
-4.92606e-15 1.01718 0
5.37405e-15 1.01718 0
5.44446e-16 1.0186 0
-2.76995e-15 1.0186 0
-6.67443e-15 1.0186 0
-8.96369e-15 1.0186 0
2.14397e-15 1.02002 0
-2.55797e-16 1.02002 0
-8.96369e-15 1.0186 0
-2.16196e-15 1.0186 0
-2.55797e-16 1.02002 0
-7.83855e-16 1.02002 0
-1.83452e-15 1.02002 0
2.24947e-16 1.02002 0
2.14947e-15 1.02141 0
1.89484e-15 1.02141 0
2.24947e-16 1.02002 0
-7.80139e-16 1.02002 0
1.89484e-15 1.02141 0
1.28397e-15 1.02141 0
-2.16196e-15 1.0186 0
2.57829e-15 1.0186 0
-7.83855e-16 1.02002 0
4.74958e-16 1.02002 0
2.57829e-15 1.0186 0
-4.0981e-15 1.0186 0
4.74958e-16 1.02002 0
2.77412e-15 1.02002 0
-7.80139e-16 1.02002 0