# vtk DataFile Version 3.0
#This file was generated by the deal.II library on 2018/10/12 at 0:43:28
ASCII
DATASET UNSTRUCTURED_GRID

POINTS 5120 double
0 0 0
0.392699 0 0
0 0.606268 0
0.392699 0.606268 0
0.392699 0 0
0.785398 0 0
0.392699 0.606268 0
0.785398 0.606268 0
0 0.606268 0
0.392699 0.606268 0
0 1.23267 0
0.392699 1.23267 0
0.392699 0.606268 0
0.785398 0.606268 0
0.392699 1.23267 0
0.785398 1.23267 0
0.785398 0 0
1.1781 0 0
0.785398 0.606268 0
1.1781 0.606268 0
1.1781 0 0
1.5708 0 0
1.1781 0.606268 0
1.5708 0.606268 0
0.785398 0.606268 0
1.1781 0.606268 0
0.785398 1.23267 0
1.1781 1.23267 0
1.1781 0.606268 0
1.5708 0.606268 0
1.1781 1.23267 0
1.5708 1.23267 0
0 1.23267 0
0.392699 1.23267 0
0 1.85832 0
0.392699 1.85832 0
0.392699 1.23267 0
0.785398 1.23267 0
0.392699 1.85832 0
0.785398 1.85832 0
0 1.85832 0
0.392699 1.85832 0
0 2.48465 0
0.392699 2.48465 0
0.392699 1.85832 0
0.785398 1.85832 0
0.392699 2.48465 0
0.785398 2.48465 0
0.785398 1.23267 0
1.1781 1.23267 0
0.785398 1.85832 0
1.1781 1.85832 0
1.1781 1.23267 0
1.5708 1.23267 0
1.1781 1.85832 0
1.5708 1.85832 0
0.785398 1.85832 0
1.1781 1.85832 0
0.785398 2.48465 0
1.1781 2.48465 0
1.1781 1.85832 0
1.5708 1.85832 0
1.1781 2.48465 0
1.5708 2.48465 0
1.5708 0 0
1.9635 0 0
1.5708 0.606268 0
1.9635 0.606268 0
1.9635 0 0
2.35619 0 0
1.9635 0.606268 0
2.35619 0.606268 0
1.5708 0.606268 0
1.9635 0.606268 0
1.5708 1.23267 0
1.9635 1.23267 0
1.9635 0.606268 0
2.35619 0.606268 0
1.9635 1.23267 0
2.35619 1.23267 0
2.35619 0 0
2.74889 0 0
2.35619 0.606268 0
2.74889 0.606268 0
2.74889 0 0
3.14159 0 0
2.74889 0.606268 0
3.14159 0.606268 0
2.35619 0.606268 0
2.74889 0.606268 0
2.35619 1.23267 0
2.74889 1.23267 0
2.74889 0.606268 0
3.14159 0.606268 0
2.74889 1.23267 0
3.14159 1.23267 0
1.5708 1.23267 0
1.9635 1.23267 0
1.5708 1.85832 0
1.9635 1.85832 0
1.9635 1.23267 0
2.35619 1.23267 0
1.9635 1.85832 0
2.35619 1.85832 0
1.5708 1.85832 0
1.9635 1.85832 0
1.5708 2.48465 0
1.9635 2.48465 0
1.9635 1.85832 0
2.35619 1.85832 0
1.9635 2.48465 0
2.35619 2.48465 0
2.35619 1.23267 0
2.74889 1.23267 0
2.35619 1.85832 0
2.74889 1.85832 0
2.74889 1.23267 0
3.14159 1.23267 0
2.74889 1.85832 0
3.14159 1.85832 0
2.35619 1.85832 0
2.74889 1.85832 0
2.35619 2.48465 0
2.74889 2.48465 0
2.74889 1.85832 0
3.14159 1.85832 0
2.74889 2.48465 0
3.14159 2.48465 0
0 2.48465 0
0.392699 2.48465 0
0 3.11079 0
0.392699 3.11079 0
0.392699 2.48465 0
0.785398 2.48465 0
0.392699 3.11079 0
0.785398 3.11079 0
0 3.11079 0
0.392699 3.11079 0
0 3.73694 0
0.392699 3.73694 0
0.392699 3.11079 0
0.785398 3.11079 0
0.392699 3.73694 0
0.785398 3.73694 0
0.785398 2.48465 0
1.1781 2.48465 0
0.785398 3.11079 0
1.1781 3.11079 0
1.1781 2.48465 0
1.5708 2.48465 0
1.1781 3.11079 0
1.5708 3.11079 0
0.785398 3.11079 0
1.1781 3.11079 0
0.785398 3.73694 0
1.1781 3.73694 0
1.1781 3.11079 0
1.5708 3.11079 0
1.1781 3.73694 0
1.5708 3.73694 0
0 3.73694 0
0.392699 3.73694 0
0 4.36304 0
0.392699 4.36304 0
0.392699 3.73694 0
0.785398 3.73694 0
0.392699 4.36304 0
0.785398 4.36304 0
0 4.36304 0
0.392699 4.36304 0
0 4.98909 0
0.392699 4.98909 0
0.392699 4.36304 0
0.785398 4.36304 0
0.392699 4.98909 0
0.785398 4.98909 0
0.785398 3.73694 0
1.1781 3.73694 0
0.785398 4.36304 0
1.1781 4.36304 0
1.1781 3.73694 0
1.5708 3.73694 0
1.1781 4.36304 0
1.5708 4.36304 0
0.785398 4.36304 0
1.1781 4.36304 0
0.785398 4.98909 0
1.1781 4.98909 0
1.1781 4.36304 0
1.5708 4.36304 0
1.1781 4.98909 0
1.5708 4.98909 0
1.5708 2.48465 0
1.9635 2.48465 0
1.5708 3.11079 0
1.9635 3.11079 0
1.9635 2.48465 0
2.35619 2.48465 0
1.9635 3.11079 0
2.35619 3.11079 0
1.5708 3.11079 0
1.9635 3.11079 0
1.5708 3.73694 0
1.9635 3.73694 0
1.9635 3.11079 0
2.35619 3.11079 0
1.9635 3.73694 0
2.35619 3.73694 0
2.35619 2.48465 0
2.74889 2.48465 0
2.35619 3.11079 0
2.74889 3.11079 0
2.74889 2.48465 0
3.14159 2.48465 0
2.74889 3.11079 0
3.14159 3.11079 0
2.35619 3.11079 0
2.74889 3.11079 0
2.35619 3.73694 0
2.74889 3.73694 0
2.74889 3.11079 0
3.14159 3.11079 0
2.74889 3.73694 0
3.14159 3.73694 0
1.5708 3.73694 0
1.9635 3.73694 0
1.5708 4.36304 0
1.9635 4.36304 0
1.9635 3.73694 0
2.35619 3.73694 0
1.9635 4.36304 0
2.35619 4.36304 0
1.5708 4.36304 0
1.9635 4.36304 0
1.5708 4.98909 0
1.9635 4.98909 0
1.9635 4.36304 0
2.35619 4.36304 0
1.9635 4.98909 0
2.35619 4.98909 0
2.35619 3.73694 0
2.74889 3.73694 0
2.35619 4.36304 0
2.74889 4.36304 0
2.74889 3.73694 0
3.14159 3.73694 0
2.74889 4.36304 0
3.14159 4.36304 0
2.35619 4.36304 0
2.74889 4.36304 0
2.35619 4.98909 0
2.74889 4.98909 0
2.74889 4.36304 0
3.14159 4.36304 0
2.74889 4.98909 0
3.14159 4.98909 0
3.14159 0 0
3.53429 0 0
3.14159 0.606268 0
3.53429 0.606268 0
3.53429 0 0
3.92699 0 0
3.53429 0.606268 0
3.92699 0.606268 0
3.14159 0.606268 0
3.53429 0.606268 0
3.14159 1.23267 0
3.53429 1.23267 0
3.53429 0.606268 0
3.92699 0.606268 0
3.53429 1.23267 0
3.92699 1.23267 0
3.92699 0 0
4.31969 0 0
3.92699 0.606268 0
4.31969 0.606268 0
4.31969 0 0
4.71239 0 0
4.31969 0.606268 0
4.71239 0.606268 0
3.92699 0.606268 0
4.31969 0.606268 0
3.92699 1.23267 0
4.31969 1.23267 0
4.31969 0.606268 0
4.71239 0.606268 0
4.31969 1.23267 0
4.71239 1.23267 0
3.14159 1.23267 0
3.53429 1.23267 0
3.14159 1.85832 0
3.53429 1.85832 0
3.53429 1.23267 0
3.92699 1.23267 0
3.53429 1.85832 0
3.92699 1.85832 0
3.14159 1.85832 0
3.53429 1.85832 0
3.14159 2.48465 0
3.53429 2.48465 0
3.53429 1.85832 0
3.92699 1.85832 0
3.53429 2.48465 0
3.92699 2.48465 0
3.92699 1.23267 0
4.31969 1.23267 0
3.92699 1.85832 0
4.31969 1.85832 0
4.31969 1.23267 0
4.71239 1.23267 0
4.31969 1.85832 0
4.71239 1.85832 0
3.92699 1.85832 0
4.31969 1.85832 0
3.92699 2.48465 0
4.31969 2.48465 0
4.31969 1.85832 0
4.71239 1.85832 0
4.31969 2.48465 0
4.71239 2.48465 0
4.71239 0 0
5.10509 0 0
4.71239 0.606268 0
5.10509 0.606268 0
5.10509 0 0
5.49779 0 0
5.10509 0.606268 0
5.49779 0.606268 0
4.71239 0.606268 0
5.10509 0.606268 0
4.71239 1.23267 0
5.10509 1.23267 0
5.10509 0.606268 0
5.49779 0.606268 0
5.10509 1.23267 0
5.49779 1.23267 0
5.49779 0 0
5.89049 0 0
5.49779 0.606268 0
5.89049 0.606268 0
5.89049 0 0
6.28319 0 0
5.89049 0.606268 0
6.28319 0.606268 0
5.49779 0.606268 0
5.89049 0.606268 0
5.49779 1.23267 0
5.89049 1.23267 0
5.89049 0.606268 0
6.28319 0.606268 0
5.89049 1.23267 0
6.28319 1.23267 0
4.71239 1.23267 0
5.10509 1.23267 0
4.71239 1.85832 0
5.10509 1.85832 0
5.10509 1.23267 0
5.49779 1.23267 0
5.10509 1.85832 0
5.49779 1.85832 0
4.71239 1.85832 0
5.10509 1.85832 0
4.71239 2.48465 0
5.10509 2.48465 0
5.10509 1.85832 0
5.49779 1.85832 0
5.10509 2.48465 0
5.49779 2.48465 0
5.49779 1.23267 0
5.89049 1.23267 0
5.49779 1.85832 0
5.89049 1.85832 0
5.89049 1.23267 0
6.28319 1.23267 0
5.89049 1.85832 0
6.28319 1.85832 0
5.49779 1.85832 0
5.89049 1.85832 0
5.49779 2.48465 0
5.89049 2.48465 0
5.89049 1.85832 0
6.28319 1.85832 0
5.89049 2.48465 0
6.28319 2.48465 0
3.14159 2.48465 0
3.53429 2.48465 0
3.14159 3.11079 0
3.53429 3.11079 0
3.53429 2.48465 0
3.92699 2.48465 0
3.53429 3.11079 0
3.92699 3.11079 0
3.14159 3.11079 0
3.53429 3.11079 0
3.14159 3.73694 0
3.53429 3.73694 0
3.53429 3.11079 0
3.92699 3.11079 0
3.53429 3.73694 0
3.92699 3.73694 0
3.92699 2.48465 0
4.31969 2.48465 0
3.92699 3.11079 0
4.31969 3.11079 0
4.31969 2.48465 0
4.71239 2.48465 0
4.31969 3.11079 0
4.71239 3.11079 0
3.92699 3.11079 0
4.31969 3.11079 0
3.92699 3.73694 0
4.31969 3.73694 0
4.31969 3.11079 0
4.71239 3.11079 0
4.31969 3.73694 0
4.71239 3.73694 0
3.14159 3.73694 0
3.53429 3.73694 0
3.14159 4.36304 0
3.53429 4.36304 0
3.53429 3.73694 0
3.92699 3.73694 0
3.53429 4.36304 0
3.92699 4.36304 0
3.14159 4.36304 0
3.53429 4.36304 0
3.14159 4.98909 0
3.53429 4.98909 0
3.53429 4.36304 0
3.92699 4.36304 0
3.53429 4.98909 0
3.92699 4.98909 0
3.92699 3.73694 0
4.31969 3.73694 0
3.92699 4.36304 0
4.31969 4.36304 0
4.31969 3.73694 0
4.71239 3.73694 0
4.31969 4.36304 0
4.71239 4.36304 0
3.92699 4.36304 0
4.31969 4.36304 0
3.92699 4.98909 0
4.31969 4.98909 0
4.31969 4.36304 0
4.71239 4.36304 0
4.31969 4.98909 0
4.71239 4.98909 0
4.71239 2.48465 0
5.10509 2.48465 0
4.71239 3.11079 0
5.10509 3.11079 0
5.10509 2.48465 0
5.49779 2.48465 0
5.10509 3.11079 0
5.49779 3.11079 0
4.71239 3.11079 0
5.10509 3.11079 0
4.71239 3.73694 0
5.10509 3.73694 0
5.10509 3.11079 0
5.49779 3.11079 0
5.10509 3.73694 0
5.49779 3.73694 0
5.49779 2.48465 0
5.89049 2.48465 0
5.49779 3.11079 0
5.89049 3.11079 0
5.89049 2.48465 0
6.28319 2.48465 0
5.89049 3.11079 0
6.28319 3.11079 0
5.49779 3.11079 0
5.89049 3.11079 0
5.49779 3.73694 0
5.89049 3.73694 0
5.89049 3.11079 0
6.28319 3.11079 0
5.89049 3.73694 0
6.28319 3.73694 0
4.71239 3.73694 0
5.10509 3.73694 0
4.71239 4.36304 0
5.10509 4.36304 0
5.10509 3.73694 0
5.49779 3.73694 0
5.10509 4.36304 0
5.49779 4.36304 0
4.71239 4.36304 0
5.10509 4.36304 0
4.71239 4.98909 0
5.10509 4.98909 0
5.10509 4.36304 0
5.49779 4.36304 0
5.10509 4.98909 0
5.49779 4.98909 0
5.49779 3.73694 0
5.89049 3.73694 0
5.49779 4.36304 0
5.89049 4.36304 0
5.89049 3.73694 0
6.28319 3.73694 0
5.89049 4.36304 0
6.28319 4.36304 0
5.49779 4.36304 0
5.89049 4.36304 0
5.49779 4.98909 0
5.89049 4.98909 0
5.89049 4.36304 0
6.28319 4.36304 0
5.89049 4.98909 0
6.28319 4.98909 0
0 4.98909 0
0.392699 4.98909 0
0 5.61507 0
0.392699 5.61507 0
0.392699 4.98909 0
0.785398 4.98909 0
0.392699 5.61507 0
0.785398 5.61507 0
0 5.61507 0
0.392699 5.61507 0
0 6.241 0
0.392699 6.241 0
0.392699 5.61507 0
0.785398 5.61507 0
0.392699 6.241 0
0.785398 6.241 0
0.785398 4.98909 0
1.1781 4.98909 0
0.785398 5.61507 0
1.1781 5.61507 0
1.1781 4.98909 0
1.5708 4.98909 0
1.1781 5.61507 0
1.5708 5.61507 0
0.785398 5.61507 0
1.1781 5.61507 0
0.785398 6.241 0
1.1781 6.241 0
1.1781 5.61507 0
1.5708 5.61507 0
1.1781 6.241 0
1.5708 6.241 0
0 6.241 0
0.392699 6.241 0
0 6.86688 0
0.392699 6.86688 0
0.392699 6.241 0
0.785398 6.241 0
0.392699 6.86688 0
0.785398 6.86688 0
0 6.86688 0
0.392699 6.86688 0
0 7.49278 0
0.392699 7.49278 0
0.392699 6.86688 0
0.785398 6.86688 0
0.392699 7.49278 0
0.785398 7.49278 0
0.785398 6.241 0
1.1781 6.241 0
0.785398 6.86688 0
1.1781 6.86688 0
[...]
POINT_DATA 5120
VECTORS uf double
0 1 0
-6.63679e-14 1 0
0 1.00237 0
-6.37826e-14 1.00237 0
-6.63679e-14 1 0
-3.87523e-15 1 0
-6.37826e-14 1.00237 0
-1.46878e-14 1.00237 0
0 1.00237 0
1.94711e-14 1.00237 0
0 1.00357 0
2.60116e-14 1.00357 0
1.94711e-14 1.00237 0
1.77951e-14 1.00237 0
2.60116e-14 1.00357 0
1.74103e-14 1.00357 0
-3.87523e-15 1 0
1.26174e-13 1 0
-1.46878e-14 1.00237 0
1.16699e-13 1.00237 0
1.26174e-13 1 0
4.87927e-14 1 0
1.16699e-13 1.00237 0
5.67346e-14 1.00237 0
1.77951e-14 1.00237 0
-1.29022e-13 1.00237 0
1.74103e-14 1.00357 0
-1.11859e-13 1.00357 0
-1.29022e-13 1.00237 0
-6.05003e-14 1.00237 0
-1.11859e-13 1.00357 0
-3.80057e-14 1.00357 0
0 1.00357 0
1.18366e-14 1.00357 0
0 1.00505 0
1.85362e-14 1.00505 0
1.18366e-14 1.00357 0
-2.19281e-14 1.00357 0
1.85362e-14 1.00505 0
-3.64076e-15 1.00505 0
0 1.00505 0
3.63183e-14 1.00505 0
0 1.00641 0
3.98295e-14 1.00641 0
3.63183e-14 1.00505 0
6.93339e-14 1.00505 0
3.98295e-14 1.00641 0
6.23722e-14 1.00641 0
-2.19281e-14 1.00357 0
-6.33483e-15 1.00357 0
-3.64076e-15 1.00505 0
4.55969e-15 1.00505 0
-6.33483e-15 1.00357 0
-9.11567e-15 1.00357 0
4.55969e-15 1.00505 0
1.10115e-15 1.00505 0
6.93339e-14 1.00505 0
1.85116e-15 1.00505 0
6.23722e-14 1.00641 0
7.76635e-15 1.00641 0
1.85116e-15 1.00505 0
-2.83726e-14 1.00505 0
7.76635e-15 1.00641 0
-1.45913e-14 1.00641 0
4.87927e-14 1 0
-1.80634e-14 1 0
5.67346e-14 1.00237 0
-1.05968e-14 1.00237 0
-1.80634e-14 1 0
-8.79897e-15 1 0
-1.05968e-14 1.00237 0
6.65483e-15 1.00237 0
-6.05003e-14 1.00237 0
1.69412e-14 1.00237 0
-3.80057e-14 1.00357 0
1.02023e-14 1.00357 0
1.69412e-14 1.00237 0
-6.67745e-15 1.00237 0
1.02023e-14 1.00357 0
6.17592e-15 1.00357 0
-8.79897e-15 1 0
3.77001e-18 1 0
6.65483e-15 1.00237 0
-3.63381e-15 1.00237 0
3.77001e-18 1 0
1.0338e-15 1 0
-3.63381e-15 1.00237 0
1.43831e-15 1.00237 0
-6.67745e-15 1.00237 0
6.78691e-16 1.00237 0
6.17592e-15 1.00357 0
-7.24021e-16 1.00357 0
6.78691e-16 1.00237 0
-8.57016e-15 1.00237 0
-7.24021e-16 1.00357 0
1.13778e-14 1.00357 0
-9.11567e-15 1.00357 0
2.46385e-14 1.00357 0
1.10115e-15 1.00505 0
2.80504e-14 1.00505 0
2.46385e-14 1.00357 0
-4.17578e-16 1.00357 0
2.80504e-14 1.00505 0
-2.67637e-15 1.00505 0
-2.83726e-14 1.00505 0
-3.49905e-15 1.00505 0
-1.45913e-14 1.00641 0
-7.25019e-15 1.00641 0
-3.49905e-15 1.00505 0
6.00041e-17 1.00505 0
-7.25019e-15 1.00641 0
2.00552e-15 1.00641 0
-4.17578e-16 1.00357 0
-1.56696e-15 1.00357 0
-2.67637e-15 1.00505 0
5.32733e-15 1.00505 0
-1.56696e-15 1.00357 0
-9.41653e-15 1.00357 0
5.32733e-15 1.00505 0
1.54536e-14 1.00505 0
6.00041e-17 1.00505 0
-4.82545e-15 1.00505 0
2.00552e-15 1.00641 0
-6.03054e-16 1.00641 0
-4.82545e-15 1.00505 0
-1.13535e-14 1.00505 0
-6.03054e-16 1.00641 0
1.70683e-15 1.00641 0
0 1.00641 0
-4.39305e-14 1.00641 0
0 1.00778 0
-4.04354e-14 1.00778 0
-4.39305e-14 1.00641 0
-7.50487e-14 1.00641 0
-4.04354e-14 1.00778 0
-7.03429e-14 1.00778 0
0 1.00778 0
2.05431e-14 1.00778 0
0 1.00911 0
2.86376e-14 1.00911 0
2.05431e-14 1.00778 0
7.78788e-14 1.00778 0
2.86376e-14 1.00911 0
8.60304e-14 1.00911 0
-7.50487e-14 1.00641 0
-9.17246e-15 1.00641 0
-7.03429e-14 1.00778 0
3.20711e-15 1.00778 0
-9.17246e-15 1.00641 0
5.82737e-14 1.00641 0
3.20711e-15 1.00778 0
4.08744e-14 1.00778 0
7.78788e-14 1.00778 0
7.83849e-15 1.00778 0
8.60304e-14 1.00911 0
1.59646e-14 1.00911 0
7.83849e-15 1.00778 0
-6.17887e-14 1.00778 0
1.59646e-14 1.00911 0
-5.28364e-14 1.00911 0
0 1.00911 0
1.85935e-14 1.00911 0
0 1.01043 0
2.05544e-14 1.01043 0
1.85935e-14 1.00911 0
-1.60447e-13 1.00911 0
2.05544e-14 1.01043 0
-1.55974e-13 1.01043 0
0 1.01043 0
-1.31857e-14 1.01043 0
0 1.01173 0
-1.04832e-14 1.01173 0
-1.31857e-14 1.01043 0
1.40428e-13 1.01043 0
-1.04832e-14 1.01173 0
1.36882e-13 1.01173 0
-1.60447e-13 1.00911 0
-1.15676e-14 1.00911 0
-1.55974e-13 1.01043 0
-8.28559e-15 1.01043 0
-1.15676e-14 1.00911 0
9.76724e-14 1.00911 0
-8.28559e-15 1.01043 0
1.0066e-13 1.01043 0
1.40428e-13 1.01043 0
1.60172e-14 1.01043 0
1.36882e-13 1.01173 0
1.57301e-14 1.01173 0
1.60172e-14 1.01043 0
-1.33183e-13 1.01043 0
1.57301e-14 1.01173 0
-1.21621e-13 1.01173 0
5.82737e-14 1.00641 0
-2.11503e-14 1.00641 0
4.08744e-14 1.00778 0
-1.36743e-14 1.00778 0
-2.11503e-14 1.00641 0
-5.13561e-15 1.00641 0
-1.36743e-14 1.00778 0
6.06453e-15 1.00778 0
-6.17887e-14 1.00778 0
7.80848e-15 1.00778 0
-5.28364e-14 1.00911 0
9.71327e-15 1.00911 0
7.80848e-15 1.00778 0
-3.67892e-15 1.00778 0
9.71327e-15 1.00911 0
7.97605e-15 1.00911 0
-5.13561e-15 1.00641 0
-5.85625e-16 1.00641 0
6.06453e-15 1.00778 0
3.83554e-15 1.00778 0
-5.85625e-16 1.00641 0
-5.7651e-15 1.00641 0
3.83554e-15 1.00778 0
1.60706e-14 1.00778 0
-3.67892e-15 1.00778 0
1.23582e-15 1.00778 0
7.97605e-15 1.00911 0
7.11051e-15 1.00911 0
1.23582e-15 1.00778 0
-4.19265e-15 1.00778 0
7.11051e-15 1.00911 0
9.16337e-15 1.00911 0
9.76724e-14 1.00911 0
-1.56192e-14 1.00911 0
1.0066e-13 1.01043 0
-1.98407e-14 1.01043 0
-1.56192e-14 1.00911 0
-9.05622e-15 1.00911 0
-1.98407e-14 1.01043 0
2.91993e-15 1.01043 0
-1.33183e-13 1.01043 0
-1.19102e-14 1.01043 0
-1.21621e-13 1.01173 0
-8.9316e-15 1.01173 0
-1.19102e-14 1.01043 0
3.15773e-15 1.01043 0
-8.9316e-15 1.01173 0
2.7253e-15 1.01173 0
-9.05622e-15 1.00911 0
-9.75205e-16 1.00911 0
2.91993e-15 1.01043 0
5.14001e-15 1.01043 0
-9.75205e-16 1.00911 0
3.1902e-16 1.00911 0
5.14001e-15 1.01043 0
3.28721e-15 1.01043 0
3.15773e-15 1.01043 0
-5.6534e-15 1.01043 0
2.7253e-15 1.01173 0
8.83099e-15 1.01173 0
-5.6534e-15 1.01043 0
-2.89098e-15 1.01043 0
8.83099e-15 1.01173 0
2.69001e-15 1.01173 0
1.0338e-15 1 0
-2.59553e-15 1 0
1.43831e-15 1.00237 0
6.78622e-15 1.00237 0
-2.59553e-15 1 0
1.09947e-15 1 0
6.78622e-15 1.00237 0
5.80024e-15 1.00237 0
-8.57016e-15 1.00237 0
3.14023e-15 1.00237 0
1.13778e-14 1.00357 0
3.99517e-15 1.00357 0
3.14023e-15 1.00237 0
-3.68109e-15 1.00237 0
3.99517e-15 1.00357 0
-4.82497e-18 1.00357 0
1.09947e-15 1 0
5.41057e-15 1 0
5.80024e-15 1.00237 0
2.91447e-15 1.00237 0
5.41057e-15 1 0
-3.06631e-15 1 0
2.91447e-15 1.00237 0
7.71393e-15 1.00237 0
-3.68109e-15 1.00237 0
-1.0323e-14 1.00237 0
-4.82497e-18 1.00357 0
6.31883e-15 1.00357 0
-1.0323e-14 1.00237 0
8.14376e-16 1.00237 0
6.31883e-15 1.00357 0
1.09479e-16 1.00357 0
-9.41653e-15 1.00357 0
-6.58734e-15 1.00357 0
1.54536e-14 1.00505 0
-3.36018e-16 1.00505 0
-6.58734e-15 1.00357 0
-2.61994e-16 1.00357 0
-3.36018e-16 1.00505 0
1.05953e-14 1.00505 0
-1.13535e-14 1.00505 0
8.08892e-15 1.00505 0
1.70683e-15 1.00641 0
3.83709e-16 1.00641 0
8.08892e-15 1.00505 0
-5.57109e-15 1.00505 0
3.83709e-16 1.00641 0
4.50334e-15 1.00641 0
-2.61994e-16 1.00357 0
6.48777e-15 1.00357 0
1.05953e-14 1.00505 0
9.4189e-15 1.00505 0
6.48777e-15 1.00357 0
2.81445e-15 1.00357 0
9.4189e-15 1.00505 0
2.6406e-15 1.00505 0
-5.57109e-15 1.00505 0
-1.24572e-14 1.00505 0
4.50334e-15 1.00641 0
4.85187e-15 1.00641 0
-1.24572e-14 1.00505 0
1.37942e-15 1.00505 0
4.85187e-15 1.00641 0
7.46615e-15 1.00641 0
-3.06631e-15 1 0
-2.80285e-15 1 0
7.71393e-15 1.00237 0
1.71841e-14 1.00237 0
-2.80285e-15 1 0
-2.09649e-15 1 0
1.71841e-14 1.00237 0
1.55875e-14 1.00237 0
8.14376e-16 1.00237 0
-7.49204e-15 1.00237 0
1.09479e-16 1.00357 0
5.81879e-15 1.00357 0
-7.49204e-15 1.00237 0
-1.36591e-14 1.00237 0
5.81879e-15 1.00357 0
1.47643e-14 1.00357 0
-2.09649e-15 1 0
5.78816e-15 1 0
1.55875e-14 1.00237 0
3.71386e-15 1.00237 0
5.78816e-15 1 0
2.66849e-16 1 0
3.71386e-15 1.00237 0
8.41683e-15 1.00237 0
-1.36591e-14 1.00237 0
1.86349e-15 1.00237 0
1.47643e-14 1.00357 0
2.89342e-15 1.00357 0
1.86349e-15 1.00237 0
9.0843e-16 1.00237 0
2.89342e-15 1.00357 0
-3.99055e-16 1.00357 0
2.81445e-15 1.00357 0
-5.18372e-15 1.00357 0
2.6406e-15 1.00505 0
1.23068e-15 1.00505 0
-5.18372e-15 1.00357 0
4.00122e-15 1.00357 0
1.23068e-15 1.00505 0
3.18549e-15 1.00505 0
1.37942e-15 1.00505 0
8.27733e-15 1.00505 0
7.46615e-15 1.00641 0
-3.67838e-15 1.00641 0
8.27733e-15 1.00505 0
-7.29644e-15 1.00505 0
-3.67838e-15 1.00641 0
2.61159e-15 1.00641 0
4.00122e-15 1.00357 0
-5.6508e-15 1.00357 0
3.18549e-15 1.00505 0
8.81762e-15 1.00505 0
-5.6508e-15 1.00357 0
-8.60821e-15 1.00357 0
8.81762e-15 1.00505 0
1.20806e-14 1.00505 0
-7.29644e-15 1.00505 0
3.41111e-15 1.00505 0
2.61159e-15 1.00641 0
3.36807e-15 1.00641 0
3.41111e-15 1.00505 0
-7.91799e-17 1.00505 0
3.36807e-15 1.00641 0
8.6184e-15 1.00641 0
-5.7651e-15 1.00641 0
1.46563e-15 1.00641 0
1.60706e-14 1.00778 0
4.06513e-15 1.00778 0
1.46563e-15 1.00641 0
-3.75389e-15 1.00641 0
4.06513e-15 1.00778 0
4.90612e-15 1.00778 0
-4.19265e-15 1.00778 0
-1.16462e-14 1.00778 0
9.16337e-15 1.00911 0
8.98999e-15 1.00911 0
-1.16462e-14 1.00778 0
5.32553e-16 1.00778 0
8.98999e-15 1.00911 0
6.35133e-15 1.00911 0
-3.75389e-15 1.00641 0
1.13425e-15 1.00641 0
4.90612e-15 1.00778 0
4.55982e-15 1.00778 0
1.13425e-15 1.00641 0
-5.90041e-15 1.00641 0
4.55982e-15 1.00778 0
7.51035e-15 1.00778 0
5.32553e-16 1.00778 0
-2.19666e-15 1.00778 0
6.35133e-15 1.00911 0
5.85967e-15 1.00911 0
-2.19666e-15 1.00778 0
-2.55861e-15 1.00778 0
5.85967e-15 1.00911 0
6.95896e-15 1.00911 0
3.1902e-16 1.00911 0
2.83151e-15 1.00911 0
3.28721e-15 1.01043 0
8.86943e-15 1.01043 0
2.83151e-15 1.00911 0
-3.49205e-15 1.00911 0
8.86943e-15 1.01043 0
5.17998e-15 1.01043 0
-2.89098e-15 1.01043 0
-3.18592e-15 1.01043 0
2.69001e-15 1.01173 0
4.66548e-15 1.01173 0
-3.18592e-15 1.01043 0
7.04064e-16 1.01043 0
4.66548e-15 1.01173 0
1.02255e-14 1.01173 0
-3.49205e-15 1.00911 0
-3.62378e-15 1.00911 0
5.17998e-15 1.01043 0
4.01995e-15 1.01043 0
-3.62378e-15 1.00911 0
-4.14997e-15 1.00911 0
4.01995e-15 1.01043 0
5.41829e-15 1.01043 0
7.04064e-16 1.01043 0
6.30649e-15 1.01043 0
1.02255e-14 1.01173 0
-7.393e-16 1.01173 0
6.30649e-15 1.01043 0
-3.55056e-15 1.01043 0
-7.393e-16 1.01173 0
2.64791e-15 1.01173 0
-5.90041e-15 1.00641 0
6.794e-15 1.00641 0
7.51035e-15 1.00778 0
1.09478e-15 1.00778 0
6.794e-15 1.00641 0
5.1702e-15 1.00641 0
1.09478e-15 1.00778 0
6.87309e-15 1.00778 0
-2.55861e-15 1.00778 0
-4.72201e-15 1.00778 0
6.95896e-15 1.00911 0
5.65046e-15 1.00911 0
-4.72201e-15 1.00778 0
-4.09337e-15 1.00778 0
5.65046e-15 1.00911 0
3.77576e-15 1.00911 0
5.1702e-15 1.00641 0
3.71886e-15 1.00641 0
6.87309e-15 1.00778 0
6.01349e-15 1.00778 0
3.71886e-15 1.00641 0
-7.06536e-16 1.00641 0
6.01349e-15 1.00778 0
6.43007e-15 1.00778 0
-4.09337e-15 1.00778 0
-8.22035e-15 1.00778 0
3.77576e-15 1.00911 0
6.58349e-15 1.00911 0
-8.22035e-15 1.00778 0
-4.26911e-15 1.00778 0
6.58349e-15 1.00911 0
4.40413e-15 1.00911 0
-4.14997e-15 1.00911 0
1.33031e-15 1.00911 0
5.41829e-15 1.01043 0
-9.0371e-16 1.01043 0
1.33031e-15 1.00911 0
-6.64852e-15 1.00911 0
-9.0371e-16 1.01043 0
3.85681e-15 1.01043 0
-3.55056e-15 1.01043 0
-4.05233e-16 1.01043 0
2.64791e-15 1.01173 0
1.61072e-15 1.01173 0
-4.05233e-16 1.01043 0
-2.43159e-15 1.01043 0
1.61072e-15 1.01173 0
6.32917e-15 1.01173 0
-6.64852e-15 1.00911 0
1.02089e-15 1.00911 0
3.85681e-15 1.01043 0
9.21857e-16 1.01043 0
1.02089e-15 1.00911 0
-1.67158e-15 1.00911 0
9.21857e-16 1.01043 0
2.297e-15 1.01043 0
-2.43159e-15 1.01043 0
5.88464e-16 1.01043 0
6.32917e-15 1.01173 0
-2.60472e-15 1.01173 0
5.88464e-16 1.01043 0
2.0847e-15 1.01043 0
-2.60472e-15 1.01173 0
-1.19198e-15 1.01173 0
0 1.01173 0
-3.6059e-15 1.01173 0
0 1.01301 0
-2.15516e-15 1.01301 0
-3.6059e-15 1.01173 0
-9.02534e-14 1.01173 0
-2.15516e-15 1.01301 0
-8.84427e-14 1.01301 0
0 1.01301 0
1.16805e-14 1.01301 0
0 1.0143 0
1.02977e-14 1.0143 0
1.16805e-14 1.01301 0
6.91569e-14 1.01301 0
1.02977e-14 1.0143 0
6.93561e-14 1.0143 0
-9.02534e-14 1.01173 0
5.51684e-15 1.01173 0
-8.84427e-14 1.01301 0
4.61488e-15 1.01301 0
5.51684e-15 1.01173 0
8.80748e-14 1.01173 0
4.61488e-15 1.01301 0
8.78972e-14 1.01301 0
6.91569e-14 1.01301 0
-2.94026e-14 1.01301 0
6.93561e-14 1.0143 0
-2.45117e-14 1.0143 0
-2.94026e-14 1.01301 0
-2.10737e-14 1.01301 0
-2.45117e-14 1.0143 0
-1.81718e-14 1.0143 0
0 1.0143 0
-1.77628e-14 1.0143 0
0 1.01559 0
-1.81448e-14 1.01559 0
-1.77628e-14 1.0143 0
-4.39954e-14 1.0143 0
-1.81448e-14 1.01559 0
-3.83584e-14 1.01559 0
0 1.01559 0
-7.49588e-16 1.01559 0
0 1.0169 0
5.66324e-15 1.0169 0
-7.49588e-16 1.01559 0
1.47491e-14 1.01559 0
5.66324e-15 1.0169 0
1.8218e-14 1.0169 0
-4.39954e-14 1.0143 0
1.19117e-14 1.0143 0
-3.83584e-14 1.01559 0
1.05851e-14 1.01559 0
1.19117e-14 1.0143 0
3.93504e-15 1.0143 0
1.05851e-14 1.01559 0
6.87167e-15 1.01559 0
1.47491e-14 1.01559 0
-1.25737e-14 1.01559 0
1.8218e-14 1.0169 0
-2.41617e-15 1.0169 0
-1.25737e-14 1.01559 0
-3.18172e-15 1.01559 0
-2.41617e-15 1.0169 0
-4.58167e-15 1.0169 0
8.80748e-14 1.01173 0
-2.36653e-15 1.01173 0
8.78972e-14 1.01301 0
7.39001e-16 1.01301 0
-2.36653e-15 1.01173 0
-1.99904e-15 1.01173 0
7.39001e-16 1.01301 0
4.64553e-15 1.01301 0
-2.10737e-14 1.01301 0
2.30085e-14 1.01301 0
-1.81718e-14 1.0143 0
2.58428e-14 1.0143 0
2.30085e-14 1.01301 0
-5.83007e-15 1.01301 0
2.58428e-14 1.0143 0
3.30077e-15 1.0143 0
-1.99904e-15 1.01173 0
-2.75845e-15 1.01173 0
4.64553e-15 1.01301 0
2.79871e-15 1.01301 0
-2.75845e-15 1.01173 0
2.72318e-15 1.01173 0
2.79871e-15 1.01301 0
4.0369e-15 1.01301 0
-5.83007e-15 1.01301 0
-1.97585e-15 1.01301 0
3.30077e-15 1.0143 0
3.71844e-16 1.0143 0
-1.97585e-15 1.01301 0
-6.15323e-15 1.01301 0
3.71844e-16 1.0143 0
4.62523e-15 1.0143 0
3.93504e-15 1.0143 0
-7.13138e-15 1.0143 0
6.87167e-15 1.01559 0
-3.23911e-15 1.01559 0
-7.13138e-15 1.0143 0
-3.71842e-15 1.0143 0
-3.23911e-15 1.01559 0
3.84264e-15 1.01559 0
-3.18172e-15 1.01559 0
-5.31853e-15 1.01559 0
-4.58167e-15 1.0169 0
2.84217e-16 1.0169 0
-5.31853e-15 1.01559 0
-2.60569e-15 1.01559 0
2.84217e-16 1.0169 0
4.00574e-15 1.0169 0
-3.71842e-15 1.0143 0
1.97746e-15 1.0143 0
3.84264e-15 1.01559 0
5.78266e-15 1.01559 0
1.97746e-15 1.0143 0
-3.91507e-15 1.0143 0
5.78266e-15 1.01559 0
7.05337e-15 1.01559 0
-2.60569e-15 1.01559 0
-4.96311e-15 1.01559 0
4.00574e-15 1.0169 0
5.11876e-15 1.0169 0
-4.96311e-15 1.01559 0
-6.0329e-15 1.01559 0
5.11876e-15 1.0169 0
5.44364e-15 1.0169 0
0 1.0169 0
1.67505e-14 1.0169 0
0 1.01822 0
1.45036e-14 1.01822 0
1.67505e-14 1.0169 0
-2.31707e-14 1.0169 0
1.45036e-14 1.01822 0
-2.12891e-14 1.01822 0
0 1.01822 0
-2.17244e-14 1.01822 0
0 1.0195 0
-1.66851e-14 1.0195 0
-2.17244e-14 1.01822 0
3.25355e-14 1.01822 0
-1.66851e-14 1.0195 0
2.89556e-14 1.0195 0
-2.31707e-14 1.0169 0
-2.80319e-15 1.0169 0
-2.12891e-14 1.01822 0
3.19157e-15 1.01822 0
-2.80319e-15 1.0169 0
-1.15384e-14 1.0169 0
3.19157e-15 1.01822 0
-6.12191e-15 1.01822 0
3.25355e-14 1.01822 0
1.01492e-15 1.01822 0
2.89556e-14 1.0195 0
7.40457e-15 1.0195 0
1.01492e-15 1.01822 0
1.24421e-15 1.01822 0
7.40457e-15 1.0195 0
4.44812e-15 1.0195 0
0 1.0195 0
1.22986e-14 1.0195 0
0 1.02062 0
1.254e-14 1.02062 0
1.22986e-14 1.0195 0
-1.60432e-14 1.0195 0
1.254e-14 1.02062 0
-1.7298e-14 1.02062 0
0 1.02062 0
-8.86536e-16 1.02062 0
0 1.02109 0
-1.10222e-14 1.02109 0
-8.86536e-16 1.02062 0
2.4037e-15 1.02062 0
-1.10222e-14 1.02109 0
1.38319e-14 1.02109 0
-1.60432e-14 1.0195 0
1.25461e-15 1.0195 0
-1.7298e-14 1.02062 0
9.42869e-16 1.02062 0
1.25461e-15 1.0195 0
1.09853e-15 1.0195 0
9.42869e-16 1.02062 0
3.4108e-15 1.02062 0
2.4037e-15 1.02062 0
-3.7374e-15 1.02062 0
1.38319e-14 1.02109 0
-1.10568e-14 1.02109 0
-3.7374e-15 1.02062 0
-1.98796e-16 1.02062 0
-1.10568e-14 1.02109 0
9.20728e-15 1.02109 0
-1.15384e-14 1.0169 0
-6.30045e-15 1.0169 0
-6.12191e-15 1.01822 0
3.0052e-15 1.01822 0
-6.30045e-15 1.0169 0
-4.211e-17 1.0169 0
3.0052e-15 1.01822 0
3.56394e-15 1.01822 0
1.24421e-15 1.01822 0
-2.69335e-15 1.01822 0
4.44812e-15 1.0195 0
-1.41254e-15 1.0195 0
-2.69335e-15 1.01822 0
-4.65789e-15 1.01822 0
-1.41254e-15 1.0195 0
2.78771e-15 1.0195 0
-4.211e-17 1.0169 0
-1.26349e-15 1.0169 0
3.56394e-15 1.01822 0
1.32089e-15 1.01822 0
-1.26349e-15 1.0169 0
3.55054e-16 1.0169 0
1.32089e-15 1.01822 0
1.94138e-16 1.01822 0
-4.65789e-15 1.01822 0
-4.69577e-15 1.01822 0
2.78771e-15 1.0195 0
7.40814e-16 1.0195 0
-4.69577e-15 1.01822 0
-3.01362e-15 1.01822 0
7.40814e-16 1.0195 0
2.20798e-15 1.0195 0
1.09853e-15 1.0195 0
5.16515e-16 1.0195 0
3.4108e-15 1.02062 0
4.85131e-15 1.02062 0
5.16515e-16 1.0195 0
-1.25135e-15 1.0195 0
4.85131e-15 1.02062 0
2.38953e-15 1.02062 0
-1.98796e-16 1.02062 0
-2.76791e-15 1.02062 0
9.20728e-15 1.02109 0
2.81213e-15 1.02109 0
-2.76791e-15 1.02062 0
-1.7498e-15 1.02062 0
2.81213e-15 1.02109 0
-1.28948e-16 1.02109 0
-1.25135e-15 1.0195 0
-1.46775e-15 1.0195 0
2.38953e-15 1.02062 0
1.30549e-15 1.02062 0
-1.46775e-15 1.0195 0
-3.42043e-15 1.0195 0
1.30549e-15 1.02062 0
5.4102e-15 1.02062 0
-1.7498e-15 1.02062 0
-1.15388e-15 1.02062 0
-1.28948e-16 1.02109 0
4.69451e-15 1.02109 0
-1.15388e-15 1.02062 0
1.00937e-15 1.02062 0
4.69451e-15 1.02109 0
-1.11759e-14 1.02109 0
2.72318e-15 1.01173 0
-6.6022e-16 1.01173 0
4.0369e-15 1.01301 0
5.53859e-15 1.01301 0
-6.6022e-16 1.01173 0
-5.77956e-15 1.01173 0
5.53859e-15 1.01301 0
-1.09437e-15 1.01301 0
-6.15323e-15 1.01301 0
-4.19206e-15 1.01301 0
4.62523e-15 1.0143 0
7.0997e-15 1.0143 0
-4.19206e-15 1.01301 0
1.07371e-15 1.01301 0
7.0997e-15 1.0143 0
1.30152e-15 1.0143 0
-5.77956e-15 1.01173 0
-1.84978e-15 1.01173 0
-1.09437e-15 1.01301 0
-4.25897e-16 1.01301 0
-1.84978e-15 1.01173 0
-9.49086e-16 1.01173 0
-4.25897e-16 1.01301 0
7.34032e-15 1.01301 0
1.07371e-15 1.01301 0
-2.09194e-15 1.01301 0
1.30152e-15 1.0143 0
1.66033e-15 1.0143 0
-2.09194e-15 1.01301 0
-4.02077e-15 1.01301 0
1.66033e-15 1.0143 0
3.62744e-15 1.0143 0
-3.91507e-15 1.0143 0
-3.61506e-15 1.0143 0
7.05337e-15 1.01559 0
5.41563e-15 1.01559 0
-3.61506e-15 1.0143 0
-4.07283e-15 1.0143 0
5.41563e-15 1.01559 0
5.17085e-15 1.01559 0
-6.0329e-15 1.01559 0
-5.00967e-15 1.01559 0
5.44364e-15 1.0169 0
3.66046e-15 1.0169 0
-5.00967e-15 1.01559 0
-1.33689e-15 1.01559 0
3.66046e-15 1.0169 0
-2.5297e-16 1.0169 0
-4.07283e-15 1.0143 0
-3.42982e-15 1.0143 0
5.17085e-15 1.01559 0
7.41793e-15 1.01559 0
-3.42982e-15 1.0143 0
-3.45302e-15 1.0143 0
7.41793e-15 1.01559 0
2.69674e-15 1.01559 0
-1.33689e-15 1.01559 0
-4.48101e-15 1.01559 0
-2.5297e-16 1.0169 0
5.55081e-15 1.0169 0
-4.48101e-15 1.01559 0
1.84097e-16 1.01559 0
5.55081e-15 1.0169 0
1.03192e-15 1.0169 0
-9.49086e-16 1.01173 0
1.58627e-15 1.01173 0
7.34032e-15 1.01301 0
1.14778e-15 1.01301 0
1.58627e-15 1.01173 0
-8.46717e-16 1.01173 0
1.14778e-15 1.01301 0
7.4229e-15 1.01301 0
-4.02077e-15 1.01301 0
-6.09035e-16 1.01301 0
3.62744e-15 1.0143 0
3.60533e-15 1.0143 0
-6.09035e-16 1.01301 0
-6.10759e-16 1.01301 0
3.60533e-15 1.0143 0
-6.68445e-16 1.0143 0
-8.46717e-16 1.01173 0
-1.6823e-15 1.01173 0
7.4229e-15 1.01301 0
6.64733e-15 1.01301 0
-1.6823e-15 1.01173 0
6.42529e-15 1.01173 0
6.64733e-15 1.01301 0
-1.98565e-15 1.01301 0
-6.10759e-16 1.01301 0
-3.89358e-16 1.01301 0
-6.68445e-16 1.0143 0
2.94853e-16 1.0143 0
-3.89358e-16 1.01301 0
1.00924e-16 1.01301 0
2.94853e-16 1.0143 0
-2.70277e-15 1.0143 0
-3.45302e-15 1.0143 0
-3.21967e-15 1.0143 0
2.69674e-15 1.01559 0
3.45876e-15 1.01559 0
-3.21967e-15 1.0143 0
2.09267e-15 1.0143 0
3.45876e-15 1.01559 0
1.98283e-15 1.01559 0
1.84097e-16 1.01559 0
-1.25354e-15 1.01559 0
1.03192e-15 1.0169 0
3.29921e-15 1.0169 0
-1.25354e-15 1.01559 0
-6.5722e-15 1.01559 0
3.29921e-15 1.0169 0
7.3134e-15 1.0169 0
2.09267e-15 1.0143 0
-1.97629e-15 1.0143 0
1.98283e-15 1.01559 0
3.74026e-15 1.01559 0
-1.97629e-15 1.0143 0
1.6617e-15 1.0143 0
3.74026e-15 1.01559 0
3.8e-15 1.01559 0
-6.5722e-15 1.01559 0
-3.91518e-16 1.01559 0
7.3134e-15 1.0169 0
6.66669e-17 1.0169 0
-3.91518e-16 1.01559 0
3.98045e-15 1.01559 0
6.66669e-17 1.0169 0
5.56627e-16 1.0169 0
3.55054e-16 1.0169 0
-5.60496e-15 1.0169 0
1.94138e-16 1.01822 0
5.39396e-15 1.01822 0
-5.60496e-15 1.0169 0
-5.31896e-15 1.0169 0
5.39396e-15 1.01822 0
1.80656e-15 1.01822 0
-3.01362e-15 1.01822 0
-1.92979e-15 1.01822 0
2.20798e-15 1.0195 0
5.03485e-16 1.0195 0
-1.92979e-15 1.01822 0
-2.85119e-15 1.01822 0
5.03485e-16 1.0195 0
7.11243e-16 1.0195 0
-5.31896e-15 1.0169 0
-2.10978e-15 1.0169 0
1.80656e-15 1.01822 0
-1.382e-15 1.01822 0
-2.10978e-15 1.0169 0
-3.91937e-15 1.0169 0
-1.382e-15 1.01822 0
7.99133e-16 1.01822 0
-2.85119e-15 1.01822 0
-4.64682e-15 1.01822 0
7.11243e-16 1.0195 0
2.27106e-15 1.0195 0