# vtk DataFile Version 3.0
#This file was generated by the deal.II library on 2017/6/1 at 10:09:49
ASCII
DATASET UNSTRUCTURED_GRID

POINTS 4096 double
0 0 0
0.625 0 0
0 0.625 0
0.625 0.625 0
0.625 0 0
1.25 0 0
0.625 0.625 0
1.25 0.625 0
0 0.625 0
0.625 0.625 0
0 1.25 0
0.625 1.25 0
0.625 0.625 0
1.25 0.625 0
0.625 1.25 0
1.25 1.25 0
1.25 0 0
1.875 0 0
1.25 0.625 0
1.875 0.625 0
1.875 0 0
2.5 0 0
1.875 0.625 0
2.5 0.625 0
1.25 0.625 0
1.875 0.625 0
1.25 1.25 0
1.875 1.25 0
1.875 0.625 0
2.5 0.625 0
1.875 1.25 0
2.5 1.25 0
0 1.25 0
0.625 1.25 0
0 1.875 0
0.625 1.875 0
0.625 1.25 0
1.25 1.25 0
0.625 1.875 0
1.25 1.875 0
0 1.875 0
0.625 1.875 0
0 2.5 0
0.625 2.5 0
0.625 1.875 0
1.25 1.875 0
0.625 2.5 0
1.25 2.5 0
1.25 1.25 0
1.875 1.25 0
1.25 1.875 0
1.875 1.875 0
1.875 1.25 0
2.5 1.25 0
1.875 1.875 0
2.5 1.875 0
1.25 1.875 0
1.875 1.875 0
1.25 2.5 0
1.875 2.5 0
1.875 1.875 0
2.5 1.875 0
1.875 2.5 0
2.5 2.5 0
2.5 0 0
3.125 0 0
2.5 0.625 0
3.125 0.625 0
3.125 0 0
3.75 0 0
3.125 0.625 0
3.75 0.625 0
2.5 0.625 0
3.125 0.625 0
2.5 1.25 0
3.125 1.25 0
3.125 0.625 0
3.75 0.625 0
3.125 1.25 0
3.75 1.25 0
3.75 0 0
4.375 0 0
3.75 0.625 0
4.375 0.625 0
4.375 0 0
5 0 0
4.375 0.625 0
5 0.625 0
3.75 0.625 0
4.375 0.625 0
3.75 1.25 0
4.375 1.25 0
4.375 0.625 0
5 0.625 0
4.375 1.25 0
5 1.25 0
2.5 1.25 0
3.125 1.25 0
2.5 1.875 0
3.125 1.875 0
3.125 1.25 0
3.75 1.25 0
3.125 1.875 0
3.75 1.875 0
2.5 1.875 0
3.125 1.875 0
2.5 2.5 0
3.125 2.5 0
3.125 1.875 0
3.75 1.875 0
3.125 2.5 0
3.75 2.5 0
3.75 1.25 0
4.375 1.25 0
3.75 1.875 0
4.375 1.875 0
4.375 1.25 0
5 1.25 0
4.375 1.875 0
5 1.875 0
3.75 1.875 0
4.375 1.875 0
3.75 2.5 0
4.375 2.5 0
4.375 1.875 0
5 1.875 0
4.375 2.5 0
5 2.5 0
0 2.5 0
0.625 2.5 0
0 3.125 0
0.625 3.125 0
0.625 2.5 0
1.25 2.5 0
0.625 3.125 0
1.25 3.125 0
0 3.125 0
0.625 3.125 0
0 3.75 0
0.625 3.75 0
0.625 3.125 0
1.25 3.125 0
0.625 3.75 0
1.25 3.75 0
1.25 2.5 0
1.875 2.5 0
1.25 3.125 0
1.875 3.125 0
1.875 2.5 0
2.5 2.5 0
1.875 3.125 0
2.5 3.125 0
1.25 3.125 0
1.875 3.125 0
1.25 3.75 0
1.875 3.75 0
1.875 3.125 0
2.5 3.125 0
1.875 3.75 0
2.5 3.75 0
0 3.75 0
0.625 3.75 0
0 4.375 0
0.625 4.375 0
0.625 3.75 0
1.25 3.75 0
0.625 4.375 0
1.25 4.375 0
0 4.375 0
0.625 4.375 0
0 5 0
0.625 5 0
0.625 4.375 0
1.25 4.375 0
0.625 5 0
1.25 5 0
1.25 3.75 0
1.875 3.75 0
1.25 4.375 0
1.875 4.375 0
1.875 3.75 0
2.5 3.75 0
1.875 4.375 0
2.5 4.375 0
1.25 4.375 0
1.875 4.375 0
1.25 5 0
1.875 5 0
1.875 4.375 0
2.5 4.375 0
1.875 5 0
2.5 5 0
2.5 2.5 0
3.125 2.5 0
2.5 3.125 0
3.125 3.125 0
3.125 2.5 0
3.75 2.5 0
3.125 3.125 0
3.75 3.125 0
2.5 3.125 0
3.125 3.125 0
2.5 3.75 0
3.125 3.75 0
3.125 3.125 0
3.75 3.125 0
3.125 3.75 0
3.75 3.75 0
3.75 2.5 0
4.375 2.5 0
3.75 3.125 0
4.375 3.125 0
4.375 2.5 0
5 2.5 0
4.375 3.125 0
5 3.125 0
3.75 3.125 0
4.375 3.125 0
3.75 3.75 0
4.375 3.75 0
4.375 3.125 0
5 3.125 0
4.375 3.75 0
5 3.75 0
2.5 3.75 0
3.125 3.75 0
2.5 4.375 0
3.125 4.375 0
3.125 3.75 0
3.75 3.75 0
3.125 4.375 0
3.75 4.375 0
2.5 4.375 0
3.125 4.375 0
2.5 5 0
3.125 5 0
3.125 4.375 0
3.75 4.375 0
3.125 5 0
3.75 5 0
3.75 3.75 0
4.375 3.75 0
3.75 4.375 0
4.375 4.375 0
4.375 3.75 0
5 3.75 0
4.375 4.375 0
5 4.375 0
3.75 4.375 0
4.375 4.375 0
3.75 5 0
4.375 5 0
4.375 4.375 0
5 4.375 0
4.375 5 0
5 5 0
5 0 0
5.625 0 0
5 0.625 0
5.625 0.625 0
5.625 0 0
6.25 0 0
5.625 0.625 0
6.25 0.625 0
5 0.625 0
5.625 0.625 0
5 1.25 0
5.625 1.25 0
5.625 0.625 0
6.25 0.625 0
5.625 1.25 0
6.25 1.25 0
6.25 0 0
6.875 0 0
6.25 0.625 0
6.875 0.625 0
6.875 0 0
7.5 0 0
6.875 0.625 0
7.5 0.625 0
6.25 0.625 0
6.875 0.625 0
6.25 1.25 0
6.875 1.25 0
6.875 0.625 0
7.5 0.625 0
6.875 1.25 0
7.5 1.25 0
5 1.25 0
5.625 1.25 0
5 1.875 0
5.625 1.875 0
5.625 1.25 0
6.25 1.25 0
5.625 1.875 0
6.25 1.875 0
5 1.875 0
5.625 1.875 0
5 2.5 0
5.625 2.5 0
5.625 1.875 0
6.25 1.875 0
5.625 2.5 0
6.25 2.5 0
6.25 1.25 0
6.875 1.25 0
6.25 1.875 0
6.875 1.875 0
6.875 1.25 0
7.5 1.25 0
6.875 1.875 0
7.5 1.875 0
6.25 1.875 0
6.875 1.875 0
6.25 2.5 0
6.875 2.5 0
6.875 1.875 0
7.5 1.875 0
6.875 2.5 0
7.5 2.5 0
7.5 0 0
8.125 0 0
7.5 0.625 0
8.125 0.625 0
8.125 0 0
8.75 0 0
8.125 0.625 0
8.75 0.625 0
7.5 0.625 0
8.125 0.625 0
7.5 1.25 0
8.125 1.25 0
8.125 0.625 0
8.75 0.625 0
8.125 1.25 0
8.75 1.25 0
8.75 0 0
9.375 0 0
8.75 0.625 0
9.375 0.625 0
9.375 0 0
10 0 0
9.375 0.625 0
10 0.625 0
8.75 0.625 0
9.375 0.625 0
8.75 1.25 0
9.375 1.25 0
9.375 0.625 0
10 0.625 0
9.375 1.25 0
10 1.25 0
7.5 1.25 0
8.125 1.25 0
7.5 1.875 0
8.125 1.875 0
8.125 1.25 0
8.75 1.25 0
8.125 1.875 0
8.75 1.875 0
7.5 1.875 0
8.125 1.875 0
7.5 2.5 0
8.125 2.5 0
8.125 1.875 0
8.75 1.875 0
8.125 2.5 0
8.75 2.5 0
8.75 1.25 0
9.375 1.25 0
8.75 1.875 0
9.375 1.875 0
9.375 1.25 0
10 1.25 0
9.375 1.875 0
10 1.875 0
8.75 1.875 0
9.375 1.875 0
8.75 2.5 0
9.375 2.5 0
9.375 1.875 0
10 1.875 0
9.375 2.5 0
10 2.5 0
5 2.5 0
5.625 2.5 0
5 3.125 0
5.625 3.125 0
5.625 2.5 0
6.25 2.5 0
5.625 3.125 0
6.25 3.125 0
5 3.125 0
5.625 3.125 0
5 3.75 0
5.625 3.75 0
5.625 3.125 0
6.25 3.125 0
5.625 3.75 0
6.25 3.75 0
6.25 2.5 0
6.875 2.5 0
6.25 3.125 0
6.875 3.125 0
6.875 2.5 0
7.5 2.5 0
6.875 3.125 0
7.5 3.125 0
6.25 3.125 0
6.875 3.125 0
6.25 3.75 0
6.875 3.75 0
6.875 3.125 0
7.5 3.125 0
6.875 3.75 0
7.5 3.75 0
5 3.75 0
5.625 3.75 0
5 4.375 0
5.625 4.375 0
5.625 3.75 0
6.25 3.75 0
5.625 4.375 0
6.25 4.375 0
5 4.375 0
5.625 4.375 0
5 5 0
5.625 5 0
5.625 4.375 0
6.25 4.375 0
5.625 5 0
6.25 5 0
6.25 3.75 0
6.875 3.75 0
6.25 4.375 0
6.875 4.375 0
6.875 3.75 0
7.5 3.75 0
6.875 4.375 0
7.5 4.375 0
6.25 4.375 0
6.875 4.375 0
6.25 5 0
6.875 5 0
6.875 4.375 0
7.5 4.375 0
6.875 5 0
7.5 5 0
7.5 2.5 0
8.125 2.5 0
7.5 3.125 0
8.125 3.125 0
8.125 2.5 0
8.75 2.5 0
8.125 3.125 0
8.75 3.125 0
7.5 3.125 0
8.125 3.125 0
7.5 3.75 0
8.125 3.75 0
8.125 3.125 0
8.75 3.125 0
8.125 3.75 0
8.75 3.75 0
8.75 2.5 0
9.375 2.5 0
8.75 3.125 0
9.375 3.125 0
9.375 2.5 0
10 2.5 0
9.375 3.125 0
10 3.125 0
8.75 3.125 0
9.375 3.125 0
8.75 3.75 0
9.375 3.75 0
9.375 3.125 0
10 3.125 0
9.375 3.75 0
10 3.75 0
7.5 3.75 0
8.125 3.75 0
7.5 4.375 0
8.125 4.375 0
8.125 3.75 0
8.75 3.75 0
8.125 4.375 0
8.75 4.375 0
7.5 4.375 0
8.125 4.375 0
7.5 5 0
8.125 5 0
8.125 4.375 0
8.75 4.375 0
8.125 5 0
8.75 5 0
8.75 3.75 0
9.375 3.75 0
8.75 4.375 0
9.375 4.375 0
9.375 3.75 0
10 3.75 0
9.375 4.375 0
10 4.375 0
8.75 4.375 0
9.375 4.375 0
8.75 5 0
9.375 5 0
9.375 4.375 0
10 4.375 0
9.375 5 0
10 5 0
0 5 0
0.625 5 0
0 5.625 0
0.625 5.625 0
0.625 5 0
1.25 5 0
0.625 5.625 0
1.25 5.625 0
0 5.625 0
0.625 5.625 0
0 6.25 0
0.625 6.25 0
0.625 5.625 0
1.25 5.625 0
0.625 6.25 0
1.25 6.25 0
1.25 5 0
1.875 5 0
1.25 5.625 0
1.875 5.625 0
1.875 5 0
2.5 5 0
1.875 5.625 0
2.5 5.625 0
1.25 5.625 0
1.875 5.625 0
1.25 6.25 0
1.875 6.25 0
1.875 5.625 0
2.5 5.625 0
1.875 6.25 0
2.5 6.25 0
0 6.25 0
0.625 6.25 0
0 6.875 0
0.625 6.875 0
0.625 6.25 0
1.25 6.25 0
0.625 6.875 0
1.25 6.875 0
0 6.875 0
0.625 6.875 0
0 7.5 0
0.625 7.5 0
0.625 6.875 0
1.25 6.875 0
0.625 7.5 0
1.25 7.5 0
1.25 6.25 0
1.875 6.25 0
1.25 6.875 0
1.875 6.875 0
1.875 6.25 0
2.5 6.25 0
1.875 6.875 0
2.5 6.875 0
1.25 6.875 0
1.875 6.875 0
1.25 7.5 0
1.875 7.5 0
1.875 6.875 0
2.5 6.875 0
1.875 7.5 0
2.5 7.5 0
2.5 5 0
3.125 5 0
2.5 5.625 0
3.125 5.625 0
3.125 5 0
3.75 5 0
3.125 5.625 0
3.75 5.625 0
2.5 5.625 0
3.125 5.625 0
2.5 6.25 0
3.125 6.25 0
3.125 5.625 0
3.75 5.625 0
3.125 6.25 0
3.75 6.25 0
3.75 5 0
4.375 5 0
3.75 5.625 0
4.375 5.625 0
4.375 5 0
5 5 0
4.375 5.625 0
5 5.625 0
3.75 5.625 0
4.375 5.625 0
3.75 6.25 0
4.375 6.25 0
4.375 5.625 0
5 5.625 0
4.375 6.25 0
5 6.25 0
2.5 6.25 0
3.125 6.25 0
2.5 6.875 0
3.125 6.875 0
3.125 6.25 0
3.75 6.25 0
3.125 6.875 0
3.75 6.875 0
2.5 6.875 0
3.125 6.875 0
2.5 7.5 0
3.125 7.5 0
3.125 6.875 0
3.75 6.875 0
3.125 7.5 0
3.75 7.5 0
3.75 6.25 0
4.375 6.25 0
3.75 6.875 0
4.375 6.875 0
4.375 6.25 0
5 6.25 0
4.375 6.875 0
5 6.875 0
3.75 6.875 0
4.375 6.875 0
3.75 7.5 0
4.375 7.5 0
4.375 6.875 0
5 6.875 0
4.375 7.5 0
5 7.5 0
0 7.5 0
0.625 7.5 0
0 8.125 0
0.625 8.125 0
0.625 7.5 0
1.25 7.5 0
0.625 8.125 0
1.25 8.125 0
0 8.125 0
0.625 8.125 0
0 8.75 0
0.625 8.75 0
0.625 8.125 0
1.25 8.125 0
0.625 8.75 0
1.25 8.75 0
1.25 7.5 0
1.875 7.5 0
1.25 8.125 0
1.875 8.125 0
1.875 7.5 0
2.5 7.5 0
1.875 8.125 0
2.5 8.125 0
1.25 8.125 0
1.875 8.125 0
1.25 8.75 0
1.875 8.75 0
1.875 8.125 0
2.5 8.125 0
1.875 8.75 0
2.5 8.75 0
0 8.75 0
0.625 8.75 0
0 9.375 0
0.625 9.375 0
0.625 8.75 0
1.25 8.75 0
0.625 9.375 0
1.25 9.375 0
0 9.375 0
0.625 9.375 0
0 10 0
0.625 10 0
0.625 9.375 0
1.25 9.375 0
0.625 10 0
1.25 10 0
1.25 8.75 0
1.875 8.75 0
1.25 9.375 0
1.875 9.375 0
1.875 8.75 0
2.5 8.75 0
1.875 9.375 0
2.5 9.375 0
1.25 9.375 0
1.875 9.375 0
1.25 10 0
1.875 10 0
1.875 9.375 0
2.5 9.375 0
1.875 10 0
2.5 10 0
2.5 7.5 0
3.125 7.5 0
2.5 8.125 0
3.125 8.125 0
3.125 7.5 0
3.75 7.5 0
3.125 8.125 0
3.75 8.125 0
2.5 8.125 0
3.125 8.125 0
2.5 8.75 0
3.125 8.75 0
3.125 8.125 0
3.75 8.125 0
3.125 8.75 0
3.75 8.75 0
3.75 7.5 0
4.375 7.5 0
3.75 8.125 0
4.375 8.125 0
4.375 7.5 0
5 7.5 0
4.375 8.125 0
5 8.125 0
3.75 8.125 0
4.375 8.125 0
3.75 8.75 0
4.375 8.75 0
4.375 8.125 0
5 8.125 0
4.375 8.75 0
5 8.75 0
2.5 8.75 0
3.125 8.75 0
2.5 9.375 0
3.125 9.375 0
3.125 8.75 0
3.75 8.75 0
3.125 9.375 0
3.75 9.375 0
2.5 9.375 0
3.125 9.375 0
2.5 10 0
3.125 10 0
3.125 9.375 0
3.75 9.375 0
3.125 10 0
3.75 10 0
3.75 8.75 0
4.375 8.75 0
3.75 9.375 0
4.375 9.375 0
4.375 8.75 0
5 8.75 0
4.375 9.375 0
5 9.375 0
3.75 9.375 0
4.375 9.375 0
3.75 10 0
4.375 10 0
4.375 9.375 0
5 9.375 0
4.375 10 0
5 10 0
5 5 0
5.625 5 0
5 5.625 0
5.625 5.625 0
5.625 5 0
6.25 5 0
5.625 5.625 0
6.25 5.625 0
5 5.625 0
5.625 5.625 0
5 6.25 0
5.625 6.25 0
5.625 5.625 0
6.25 5.625 0
5.625 6.25 0
6.25 6.25 0
6.25 5 0
6.875 5 0
6.25 5.625 0
6.875 5.625 0
6.875 5 0
7.5 5 0
6.875 5.625 0
7.5 5.625 0
6.25 5.625 0
6.875 5.625 0
6.25 6.25 0
6.875 6.25 0
6.875 5.625 0
7.5 5.625 0
6.875 6.25 0
7.5 6.25 0
5 6.25 0
5.625 6.25 0
5 6.875 0
5.625 6.875 0
5.625 6.25 0
6.25 6.25 0
5.625 6.875 0
6.25 6.875 0
5 6.875 0
5.625 6.875 0
5 7.5 0
5.625 7.5 0
5.625 6.875 0
6.25 6.875 0
5.625 7.5 0
6.25 7.5 0
6.25 6.25 0
6.875 6.25 0
[...]
POINT_DATA 4096
VECTORS velocity double
84.669 -53.2775 0
80.1756 -52.8472 0
84.3153 -48.7824 0
79.9596 -48.4944 0
80.1756 -52.8472 0
75.8828 -51.9022 0
79.9596 -48.4944 0
75.7119 -47.7048 0
84.3153 -48.7824 0
79.9596 -48.4944 0
83.526 -44.4805 0
79.3153 -44.2418 0
79.9596 -48.4944 0
75.7119 -47.7048 0
79.3153 -44.2418 0
75.1633 -43.5587 0
75.8828 -51.9022 0
71.7526 -50.5901 0
75.7119 -47.7048 0
71.6003 -46.5364 0
71.7526 -50.5901 0
67.7626 -49.0046 0
71.6003 -46.5364 0
67.6204 -45.0843 0
75.7119 -47.7048 0
71.6003 -46.5364 0
75.1633 -43.5587 0
71.1061 -42.51 0
71.6003 -46.5364 0
67.6204 -45.0843 0
71.1061 -42.51 0
67.1581 -41.1796 0
83.526 -44.4805 0
79.3153 -44.2418 0
82.3436 -40.3284 0
78.2614 -40.1122 0
79.3153 -44.2418 0
75.1633 -43.5587 0
78.2614 -40.1122 0
74.2136 -39.4939 0
82.3436 -40.3284 0
78.2614 -40.1122 0
80.7601 -36.2999 0
76.7925 -36.0969 0
78.2614 -40.1122 0
74.2136 -39.4939 0
76.7925 -36.0969 0
72.8461 -35.5199 0
75.1633 -43.5587 0
71.1061 -42.51 0
74.2136 -39.4939 0
70.2302 -38.5352 0
71.1061 -42.51 0
67.1581 -41.1796 0
70.2302 -38.5352 0
66.332 -37.3074 0
74.2136 -39.4939 0
70.2302 -38.5352 0
72.8461 -35.5199 0
68.944 -34.6265 0
70.2302 -38.5352 0
66.332 -37.3074 0
68.944 -34.6265 0
65.1071 -33.482 0
67.7626 -49.0046 0
63.9053 -47.2157 0
67.6204 -45.0843 0
63.7683 -43.4241 0
63.9053 -47.2157 0
60.1763 -45.2832 0
63.7683 -43.4241 0
60.042 -41.6183 0
67.6204 -45.0843 0
63.7683 -43.4241 0
67.1581 -41.1796 0
63.3249 -39.6413 0
63.7683 -43.4241 0
60.042 -41.6183 0
63.3249 -39.6413 0
59.6099 -37.9582 0
60.1763 -45.2832 0
56.5742 -43.2579 0
60.042 -41.6183 0
56.4411 -39.7192 0
56.5742 -43.2579 0
53.0989 -41.1828 0
56.4411 -39.7192 0
52.9662 -37.7709 0
60.042 -41.6183 0
56.4411 -39.7192 0
59.6099 -37.9582 0
56.0161 -36.1835 0
56.4411 -39.7192 0
52.9662 -37.7709 0
56.0161 -36.1835 0
52.5465 -34.3613 0
67.1581 -41.1796 0
63.3249 -39.6413 0
66.332 -37.3074 0
62.5322 -35.8792 0
63.3249 -39.6413 0
59.6099 -37.9582 0
62.5322 -35.8792 0
58.8401 -34.312 0
66.332 -37.3074 0
62.5322 -35.8792 0
65.1071 -33.482 0
61.3529 -32.1507 0
62.5322 -35.8792 0
58.8401 -34.312 0
61.3529 -32.1507 0
57.6958 -30.691 0
59.6099 -37.9582 0
56.0161 -36.1835 0
58.8401 -34.312 0
55.2632 -32.6579 0
56.0161 -36.1835 0
52.5465 -34.3613 0
55.2632 -32.6579 0
51.8076 -30.9605 0
58.8401 -34.312 0
55.2632 -32.6579 0
57.6958 -30.691 0
54.1478 -29.1532 0
55.2632 -32.6579 0
51.8076 -30.9605 0
54.1478 -29.1532 0
50.7184 -27.5791 0
80.7601 -36.2999 0
76.7925 -36.0969 0
78.7455 -32.3839 0
74.8848 -32.1884 0
76.7925 -36.0969 0
72.8461 -35.5199 0
74.8848 -32.1884 0
71.0366 -31.6376 0
78.7455 -32.3839 0
74.8848 -32.1884 0
76.26 -28.5741 0
72.5027 -28.3819 0
74.8848 -32.1884 0
71.0366 -31.6376 0
72.5027 -28.3819 0
68.7511 -27.8468 0
72.8461 -35.5199 0
68.944 -34.6265 0
71.0366 -31.6376 0
67.2183 -30.7915 0
68.944 -34.6265 0
65.1071 -33.482 0
67.2183 -30.7915 0
63.4502 -29.7141 0
71.0366 -31.6376 0
67.2183 -30.7915 0
68.7511 -27.8468 0
65.019 -27.0347 0
67.2183 -30.7915 0
63.4502 -29.7141 0
65.019 -27.0347 0
61.3259 -26.012 0
76.26 -28.5741 0
72.5027 -28.3819 0
73.2535 -24.8687 0
69.5998 -24.6765 0
72.5027 -28.3819 0
68.7511 -27.8468 0
69.5998 -24.6765 0
65.9463 -24.1487 0
73.2535 -24.8687 0
69.5998 -24.6765 0
69.6649 -21.2699 0
66.1189 -21.0742 0
69.5998 -24.6765 0
65.9463 -24.1487 0
66.1189 -21.0742 0
62.5676 -20.5468 0
68.7511 -27.8468 0
65.019 -27.0347 0
65.9463 -24.1487 0
62.3038 -23.3607 0
65.019 -27.0347 0
61.3259 -26.012 0
62.3038 -23.3607 0
58.6928 -22.3844 0
65.9463 -24.1487 0
62.3038 -23.3607 0
62.5676 -20.5468 0
59.0211 -19.7759 0
62.3038 -23.3607 0
58.6928 -22.3844 0
59.0211 -19.7759 0
55.5022 -18.8416 0
65.1071 -33.482 0
61.3529 -32.1507 0
63.4502 -29.7141 0
59.7522 -28.4674 0
61.3529 -32.1507 0
57.6958 -30.691 0
59.7522 -28.4674 0
56.1424 -27.1076 0
63.4502 -29.7141 0
59.7522 -28.4674 0
61.3259 -26.012 0
57.6938 -24.8409 0
59.7522 -28.4674 0
56.1424 -27.1076 0
57.6938 -24.8409 0
54.1444 -23.5756 0
57.6958 -30.691 0
54.1478 -29.1532 0
56.1424 -27.1076 0
52.6368 -25.6824 0
54.1478 -29.1532 0
50.7184 -27.5791 0
52.6368 -25.6824 0
49.2483 -24.2308 0
56.1424 -27.1076 0
52.6368 -25.6824 0
54.1444 -23.5756 0
50.697 -22.2609 0
52.6368 -25.6824 0
49.2483 -24.2308 0
50.697 -22.2609 0
47.3672 -20.9325 0
61.3259 -26.012 0
57.6938 -24.8409 0
58.6928 -22.3844 0
55.138 -21.2835 0
57.6938 -24.8409 0
54.1444 -23.5756 0
55.138 -21.2835 0
51.6643 -20.1106 0
58.6928 -22.3844 0
55.138 -21.2835 0
55.5022 -18.8416 0
52.0393 -17.8101 0
55.138 -21.2835 0
51.6643 -20.1106 0
52.0393 -17.8101 0
48.661 -16.7321 0
54.1444 -23.5756 0
50.697 -22.2609 0
51.6643 -20.1106 0
48.294 -18.9074 0
50.697 -22.2609 0
47.3672 -20.9325 0
48.294 -18.9074 0
45.0447 -17.705 0
51.6643 -20.1106 0
48.294 -18.9074 0
48.661 -16.7321 0
45.3918 -15.6448 0
48.294 -18.9074 0
45.0447 -17.705 0
45.3918 -15.6448 0
42.2504 -14.5739 0
53.0989 -41.1828 0
49.7506 -39.0943 0
52.9662 -37.7709 0
49.6185 -35.8099 0
49.7506 -39.0943 0
46.5299 -37.0224 0
49.6185 -35.8099 0
46.3986 -33.8658 0
52.9662 -37.7709 0
49.6185 -35.8099 0
52.5465 -34.3613 0
49.2036 -32.5279 0
49.6185 -35.8099 0
46.3986 -33.8658 0
49.2036 -32.5279 0
45.9893 -30.7125 0
46.5299 -37.0224 0
43.4368 -34.9915 0
46.3986 -33.8658 0
43.3068 -31.9626 0
43.4368 -34.9915 0
40.4707 -33.0211 0
43.3068 -31.9626 0
40.3428 -30.1188 0
46.3986 -33.8658 0
43.3068 -31.9626 0
45.9893 -30.7125 0
42.9045 -28.9381 0
43.3068 -31.9626 0
40.3428 -30.1188 0
42.9045 -28.9381 0
39.9492 -27.2224 0
52.5465 -34.3613 0
49.2036 -32.5279 0
51.8076 -30.9605 0
48.4783 -29.2551 0
49.2036 -32.5279 0
45.9893 -30.7125 0
48.4783 -29.2551 0
45.2786 -27.5697 0
51.8076 -30.9605 0
48.4783 -29.2551 0
50.7184 -27.5791 0
47.415 -26.0022 0
48.4783 -29.2551 0
45.2786 -27.5697 0
47.415 -26.0022 0
44.2429 -24.4487 0
45.9893 -30.7125 0
42.9045 -28.9381 0
45.2786 -27.5697 0
42.2105 -25.9261 0
42.9045 -28.9381 0
39.9492 -27.2224 0
42.2105 -25.9261 0
39.2744 -24.3408 0
45.2786 -27.5697 0
42.2105 -25.9261 0
44.2429 -24.4487 0
41.205 -22.9386 0
42.2105 -25.9261 0
39.2744 -24.3408 0
41.205 -22.9386 0
38.3022 -21.4866 0
40.4707 -33.0211 0
37.6302 -31.1263 0
40.3428 -30.1188 0
37.5051 -28.3489 0
37.6302 -31.1263 0
34.9131 -29.3184 0
37.5051 -28.3489 0
34.7915 -26.6633 0
40.3428 -30.1188 0
37.5051 -28.3489 0
39.9492 -27.2224 0
37.1222 -25.5787 0
37.5051 -28.3489 0
34.7915 -26.6633 0
37.1222 -25.5787 0
34.4213 -24.0166 0
34.9131 -29.3184 0
32.3162 -27.6058 0
34.7915 -26.6633 0
32.1989 -25.0694 0
32.3162 -27.6058 0
29.8357 -25.9942 0
32.1989 -25.0694 0
29.7233 -23.5721 0
34.7915 -26.6633 0
32.1989 -25.0694 0
34.4213 -24.0166 0
31.8431 -22.5427 0
32.1989 -25.0694 0
29.7233 -23.5721 0
31.8431 -22.5427 0
29.3837 -21.161 0
39.9492 -27.2224 0
37.1222 -25.5787 0
39.2744 -24.3408 0
36.4694 -22.8258 0
37.1222 -25.5787 0
34.4213 -24.0166 0
36.4694 -22.8258 0
33.7931 -21.3895 0
39.2744 -24.3408 0
36.4694 -22.8258 0
38.3022 -21.4866 0
35.5338 -20.1033 0
36.4694 -22.8258 0
33.7931 -21.3895 0
35.5338 -20.1033 0
32.8974 -18.7958 0
34.4213 -24.0166 0
31.8431 -22.5427 0
33.7931 -21.3895 0
31.2422 -20.0376 0
31.8431 -22.5427 0
29.3837 -21.161 0
31.2422 -20.0376 0
28.8122 -18.7733 0
33.7931 -21.3895 0
31.2422 -20.0376 0
32.8974 -18.7958 0
30.3891 -17.5686 0
31.2422 -20.0376 0
28.8122 -18.7733 0
30.3891 -17.5686 0
28.0042 -16.4238 0
50.7184 -27.5791 0
47.415 -26.0022 0
49.2483 -24.2308 0
45.9868 -22.7837 0
47.415 -26.0022 0
44.2429 -24.4487 0
45.9868 -22.7837 0
42.8588 -21.3647 0
49.2483 -24.2308 0
45.9868 -22.7837 0
47.3672 -20.9325 0
44.1669 -19.6176 0
45.9868 -22.7837 0
42.8588 -21.3647 0
44.1669 -19.6176 0
41.1037 -18.3365 0
44.2429 -24.4487 0
41.205 -22.9386 0
42.8588 -21.3647 0
39.8684 -19.9913 0
41.205 -22.9386 0
38.3022 -21.4866 0
39.8684 -19.9913 0
37.0168 -18.6762 0
42.8588 -21.3647 0
39.8684 -19.9913 0
41.1037 -18.3365 0
38.182 -17.1037 0
39.8684 -19.9913 0
37.0168 -18.6762 0
38.182 -17.1037 0
35.4031 -15.9291 0
47.3672 -20.9325 0
44.1669 -19.6176 0
45.0447 -17.705 0
41.9294 -16.5263 0
44.1669 -19.6176 0
41.1037 -18.3365 0
41.9294 -16.5263 0
38.9561 -15.3874 0
45.0447 -17.705 0
41.9294 -16.5263 0
42.2504 -14.5739 0
39.2495 -13.537 0
41.9294 -16.5263 0
38.9561 -15.3874 0
39.2495 -13.537 0
36.3966 -12.5454 0
41.1037 -18.3365 0
38.182 -17.1037 0
38.9561 -15.3874 0
36.1288 -14.2993 0
38.182 -17.1037 0
35.4031 -15.9291 0
36.1288 -14.2993 0
33.4482 -13.269 0
38.9561 -15.3874 0
36.1288 -14.2993 0
36.3966 -12.5454 0
33.6943 -11.6062 0
36.1288 -14.2993 0
33.4482 -13.269 0
33.6943 -11.6062 0
31.142 -10.7234 0
38.3022 -21.4866 0
35.5338 -20.1033 0
37.0168 -18.6762 0
34.303 -17.428 0
35.5338 -20.1033 0
32.8974 -18.7958 0
34.303 -17.428 0
31.7245 -16.2523 0
37.0168 -18.6762 0
34.303 -17.428 0
35.4031 -15.9291 0
32.7656 -14.8194 0
34.303 -17.428 0
31.7245 -16.2523 0
32.7656 -14.8194 0
30.2663 -13.7784 0
32.8974 -18.7958 0
30.3891 -17.5686 0
31.7245 -16.2523 0
29.277 -15.1522 0
30.3891 -17.5686 0
28.0042 -16.4238 0
29.277 -15.1522 0
26.9551 -14.1293 0
31.7245 -16.2523 0
29.277 -15.1522 0
30.2663 -13.7784 0
27.9003 -12.808 0
29.277 -15.1522 0
26.9551 -14.1293 0
27.9003 -12.808 0
25.6618 -11.9085 0
35.4031 -15.9291 0
32.7656 -14.8194 0
33.4482 -13.269 0
30.9122 -12.3008 0
32.7656 -14.8194 0
30.2663 -13.7784 0
30.9122 -12.3008 0
28.5165 -11.3968 0
33.4482 -13.269 0
30.9122 -12.3008 0
31.142 -10.7234 0
28.7363 -9.89881 0
30.9122 -12.3008 0
28.5165 -11.3968 0
28.7363 -9.89881 0
26.472 -9.13297 0
30.2663 -13.7784 0
27.9003 -12.808 0
28.5165 -11.3968 0
26.2557 -10.5576 0
27.9003 -12.808 0
25.6618 -11.9085 0
26.2557 -10.5576 0
24.1229 -9.78256 0
28.5165 -11.3968 0
26.2557 -10.5576 0
26.472 -9.13297 0
24.3424 -8.42522 0
26.2557 -10.5576 0
24.1229 -9.78256 0
24.3424 -8.42522 0
22.34 -7.77422 0
69.6649 -21.2699 0
66.1189 -21.0742 0
65.4189 -17.7836 0
61.9885 -17.5812 0
66.1189 -21.0742 0
62.5676 -20.5468 0
61.9885 -17.5812 0
58.5478 -17.0478 0
65.4189 -17.7836 0
61.9885 -17.5812 0
60.4212 -14.4209 0
57.1195 -14.2075 0
61.9885 -17.5812 0
58.5478 -17.0478 0
57.1195 -14.2075 0
53.8023 -13.6629 0
62.5676 -20.5468 0
59.0211 -19.7759 0
58.5478 -17.0478 0
55.1075 -16.2901 0
59.0211 -19.7759 0
55.5022 -18.8416 0
55.1075 -16.2901 0
51.6954 -15.3984 0
58.5478 -17.0478 0
55.1075 -16.2901 0
53.8023 -13.6629 0
50.4844 -12.9187 0
55.1075 -16.2901 0
51.6954 -15.3984 0
50.4844 -12.9187 0
47.2022 -12.0768 0
60.4212 -14.4209 0
57.1195 -14.2075 0
54.5501 -11.1976 0
51.3969 -10.9687 0
57.1195 -14.2075 0
53.8023 -13.6629 0
51.3969 -10.9687 0
48.2232 -10.4097 0
54.5501 -11.1976 0
51.3969 -10.9687 0
47.6439 -8.14036 0
44.6669 -7.88883 0
51.3969 -10.9687 0
48.2232 -10.4097 0
44.6669 -7.88883 0
41.6684 -7.31623 0
53.8023 -13.6629 0
50.4844 -12.9187 0
48.2232 -10.4097 0
45.0539 -9.68615 0
50.4844 -12.9187 0
47.2022 -12.0768 0
45.0539 -9.68615 0
41.9385 -8.91093 0
48.2232 -10.4097 0
45.0539 -9.68615 0
41.6684 -7.31623 0
38.6925 -6.63379 0
45.0539 -9.68615 0
41.9385 -8.91093 0
38.6925 -6.63379 0
35.8063 -5.95593 0
55.5022 -18.8416 0
52.0393 -17.8101 0
51.6954 -15.3984 0
48.3453 -14.4411 0
52.0393 -17.8101 0
48.661 -16.7321 0
48.3453 -14.4411 0
45.0893 -13.4656 0
51.6954 -15.3984 0
48.3453 -14.4411 0
47.2022 -12.0768 0
43.996 -11.2056 0
48.3453 -14.4411 0
45.0893 -13.4656 0
43.996 -11.2056 0
40.9003 -10.3459 0
48.661 -16.7321 0
45.3918 -15.6448 0
45.0893 -13.4656 0
41.9529 -12.5027 0
45.3918 -15.6448 0
42.2504 -14.5739 0
41.9529 -12.5027 0
38.9544 -11.5715 0
45.0893 -13.4656 0
41.9529 -12.5027 0
40.9003 -10.3459 0
37.9398 -9.51986 0
41.9529 -12.5027 0
38.9544 -11.5715 0
37.9398 -9.51986 0
35.1294 -8.73827 0
47.2022 -12.0768 0
43.996 -11.2056 0
41.9385 -8.91093 0
38.924 -8.14651 0
43.996 -11.2056 0
40.9003 -10.3459 0
38.924 -8.14651 0
36.0438 -7.4219 0
41.9385 -8.91093 0
38.924 -8.14651 0
35.8063 -5.95593 0
33.0582 -5.32817 0
38.924 -8.14651 0
36.0438 -7.4219 0
33.0582 -5.32817 0
30.4732 -4.76155 0
40.9003 -10.3459 0
37.9398 -9.51986 0
36.0438 -7.4219 0
33.3175 -6.74772 0
37.9398 -9.51986 0
35.1294 -8.73827 0
33.3175 -6.74772 0
30.7535 -6.12581 0
36.0438 -7.4219 0
33.3175 -6.74772 0
30.4732 -4.76155 0
28.0594 -4.25362 0
33.3175 -6.74772 0
30.7535 -6.12581 0
28.0594 -4.25362 0
25.8155 -3.79802 0
47.6439 -8.14036 0
44.6669 -7.88883 0
39.4656 -5.27997 0
36.7137 -5.00134 0
44.6669 -7.88883 0
41.6684 -7.31623 0
36.7137 -5.00134 0
33.9456 -4.43264 0
39.4656 -5.27997 0
36.7137 -5.00134 0
29.6698 -2.69998 0
27.2072 -2.37449 0
36.7137 -5.00134 0
33.9456 -4.43264 0
27.2072 -2.37449 0
24.7893 -1.86032 0
41.6684 -7.31623 0
38.6925 -6.63379 0
33.9456 -4.43264 0
31.2472 -3.83549 0
38.6925 -6.63379 0
35.8063 -5.95593 0
31.2472 -3.83549 0
28.699 -3.30268 0
33.9456 -4.43264 0
31.2472 -3.83549 0
24.7893 -1.86032 0
22.5428 -1.43103 0
31.2472 -3.83549 0
28.699 -3.30268 0
22.5428 -1.43103 0
20.5225 -1.09935 0
29.6698 -2.69998 0
27.2072 -2.37449 0
17.5059 -0.430722 0
15.5965 -0.128721 0
27.2072 -2.37449 0
24.7893 -1.86032 0
15.5965 -0.128721 0
13.8629 0.145447 0
17.5059 -0.430722 0
15.5965 -0.128721 0
1 1 0
1 1 0
15.5965 -0.128721 0
13.8629 0.145447 0
1 1 0
1 1 0
24.7893 -1.86032 0
22.5428 -1.43103 0
13.8629 0.145447 0
12.4393 0.316652 0
22.5428 -1.43103 0
20.5225 -1.09935 0
12.4393 0.316652 0
11.2484 0.428494 0
13.8629 0.145447 0
12.4393 0.316652 0
1 1 0
1 1 0
12.4393 0.316652 0
11.2484 0.428494 0
1 1 0
1 1 0
35.8063 -5.95593 0
33.0582 -5.32817 0
28.699 -3.30268 0
26.334 -2.84685 0
33.0582 -5.32817 0
30.4732 -4.76155 0
26.334 -2.84685 0
24.156 -2.45814 0
28.699 -3.30268 0
26.334 -2.84685 0
20.5225 -1.09935 0
18.714 -0.840785 0
26.334 -2.84685 0
24.156 -2.45814 0
18.714 -0.840785 0
17.0909 -0.633025 0
30.4732 -4.76155 0
28.0594 -4.25362 0
24.156 -2.45814 0
22.1562 -2.12349 0
28.0594 -4.25362 0
25.8155 -3.79802 0
22.1562 -2.12349 0
20.3215 -1.8319 0
24.156 -2.45814 0
22.1562 -2.12349 0
17.0909 -0.633025 0
15.6278 -0.461166 0
22.1562 -2.12349 0
20.3215 -1.8319 0
15.6278 -0.461166 0
14.3037 -0.315465 0
20.5225 -1.09935 0
18.714 -0.840785 0
11.2484 0.428494 0
10.2252 0.508379 0
18.714 -0.840785 0
17.0909 -0.633025 0
10.2252 0.508379 0
9.33034 0.569131 0
11.2484 0.428494 0
10.2252 0.508379 0
1 1 0
1 1 0
10.2252 0.508379 0
9.33034 0.569131 0
1 1 0
1 1 0
17.0909 -0.633025 0
15.6278 -0.461166 0
9.33034 0.569131 0
8.53732 0.617723 0
15.6278 -0.461166 0
14.3037 -0.315465 0
8.53732 0.617723 0
7.82835 0.657986 0
9.33034 0.569131 0
8.53732 0.617723 0
1 1 0
1 1 0
8.53732 0.617723 0
7.82835 0.657986 0
1 1 0
1 1 0
42.2504 -14.5739 0
39.2495 -13.537 0
38.9544 -11.5715 0
36.1047 -10.6832 0
39.2495 -13.537 0
36.3966 -12.5454 0
36.1047 -10.6832 0
33.4089 -9.84411 0
38.9544 -11.5715 0
36.1047 -10.6832 0
35.1294 -8.73827 0
32.4764 -8.00572 0
36.1047 -10.6832 0
33.4089 -9.84411 0
32.4764 -8.00572 0
29.9821 -7.32338 0
36.3966 -12.5454 0
33.6943 -11.6062 0
33.4089 -9.84411 0
30.8677 -9.05729 0
33.6943 -11.6062 0
31.142 -10.7234 0
30.8677 -9.05729 0
28.4784 -8.32381 0
33.4089 -9.84411 0
30.8677 -9.05729 0
29.9821 -7.32338 0
27.6442 -6.69069 0
30.8677 -9.05729 0
28.4784 -8.32381 0
27.6442 -6.69069 0
25.4572 -6.10621 0
35.1294 -8.73827 0
32.4764 -8.00572 0
30.7535 -6.12581 0
28.3531 -5.55431 0
32.4764 -8.00572 0
29.9821 -7.32338 0
28.3531 -5.55431 0
26.1129 -5.03011 0
30.7535 -6.12581 0
28.3531 -5.55431 0
25.8155 -3.79802 0
23.735 -3.38808 0
28.3531 -5.55431 0
26.1129 -5.03011 0
23.735 -3.38808 0
21.8089 -3.01805 0
29.9821 -7.32338 0
27.6442 -6.69069 0
26.1129 -5.03011 0
24.0263 -4.54988 0
27.6442 -6.69069 0
25.4572 -6.10621 0
24.0263 -4.54988 0
22.0856 -4.11045 0
26.1129 -5.03011 0
24.0263 -4.54988 0
21.8089 -3.01805 0
20.0275 -2.6832 0
24.0263 -4.54988 0
22.0856 -4.11045 0
20.0275 -2.6832 0
18.3805 -2.37972 0
31.142 -10.7234 0
28.7363 -9.89881 0
28.4784 -8.32381 0
26.2359 -7.64343 0
28.7363 -9.89881 0
26.472 -9.13297 0
26.2359 -7.64343 0
24.1336 -7.01513 0
28.4784 -8.32381 0
26.2359 -7.64343 0
25.4572 -6.10621 0
23.4143 -5.56804 0
26.2359 -7.64343 0
24.1336 -7.01513 0
23.4143 -5.56804 0
21.5074 -5.07409 0
26.472 -9.13297 0
24.3424 -8.42522 0
24.1336 -7.01513 0
22.1637 -6.43732 0
24.3424 -8.42522 0
22.34 -7.77422 0
22.1637 -6.43732 0
20.3179 -5.90806 0
24.1336 -7.01513 0
22.1637 -6.43732 0
21.5074 -5.07409 0
19.7277 -4.62214 0
22.1637 -6.43732 0
20.3179 -5.90806 0
19.7277 -4.62214 0
18.0663 -4.20998 0
25.4572 -6.10621 0
23.4143 -5.56804 0
22.0856 -4.11045 0
20.2819 -3.70892 0
23.4143 -5.56804 0
21.5074 -5.07409 0
20.2819 -3.70892 0
18.6059 -3.34269 0
22.0856 -4.11045 0
20.2819 -3.70892 0
18.3805 -2.37972 0
16.8578 -2.10453 0
20.2819 -3.70892 0
18.6059 -3.34269 0
16.8578 -2.10453 0
15.4495 -1.85507 0
21.5074 -5.07409 0
19.7277 -4.62214 0
18.6059 -3.34269 0
17.0483 -3.00934 0
19.7277 -4.62214 0
18.0663 -4.20998 0
17.0483 -3.00934 0
15.5998 -2.70669 0
18.6059 -3.34269 0
17.0483 -3.00934 0
15.4495 -1.85507 0
14.1462 -1.62919 0
17.0483 -3.00934 0
15.5998 -2.70669 0
14.1462 -1.62919 0
12.9389 -1.42498 0
25.8155 -3.79802 0
23.735 -3.38808 0
20.3215 -1.8319 0
18.6382 -1.57503 0
23.735 -3.38808 0
21.8089 -3.01805 0
18.6382 -1.57503 0
17.0932 -1.34677 0
20.3215 -1.8319 0
18.6382 -1.57503 0
14.3037 -0.315465 0
13.1015 -0.18958 0
18.6382 -1.57503 0
17.0932 -1.34677 0
13.1015 -0.18958 0
12.0071 -0.0792809 0
21.8089 -3.01805 0
20.0275 -2.6832 0
17.0932 -1.34677 0
15.6743 -1.14265 0
20.0275 -2.6832 0
18.3805 -2.37972 0
15.6743 -1.14265 0
14.3703 -0.959328 0
17.0932 -1.34677 0
15.6743 -1.14265 0
12.0071 -0.0792809 0
11.0089 0.018321 0
15.6743 -1.14265 0
14.3703 -0.959328 0
11.0089 0.018321 0
10.0968 0.105263 0
14.3037 -0.315465 0
13.1015 -0.18958 0
7.82835 0.657986 0
7.1905 0.692228 0
13.1015 -0.18958 0
12.0071 -0.0792809 0
7.1905 0.692228 0
6.61408 0.721888 0
7.82835 0.657986 0
7.1905 0.692228 0
1 1 0
1 1 0
7.1905 0.692228 0
6.61408 0.721888 0
1 1 0
1 1 0
12.0071 -0.0792809 0
11.0089 0.018321 0
6.61408 0.721888 0
6.09147 0.74791 0
11.0089 0.018321 0
10.0968 0.105263 0
6.09147 0.74791 0
5.61642 0.770935 0
6.61408 0.721888 0
6.09147 0.74791 0
1 1 0
1 1 0
6.09147 0.74791 0
5.61642 0.770935 0
1 1 0
1 1 0
18.3805 -2.37972 0
16.8578 -2.10453 0
14.3703 -0.959328 0
13.171 -0.794296 0
16.8578 -2.10453 0
15.4495 -1.85507 0
13.171 -0.794296 0
12.0671 -0.64557 0
14.3703 -0.959328 0
13.171 -0.794296 0
10.0968 0.105263 0
9.26218 0.18303 0
13.171 -0.794296 0
12.0671 -0.64557 0
9.26218 0.18303 0
8.49731 0.252746 0
15.4495 -1.85507 0
14.1462 -1.62919 0
12.0671 -0.64557 0
11.0497 -0.511547 0
14.1462 -1.62919 0
12.9389 -1.42498 0
11.0497 -0.511547 0
10.111 -0.390887 0
12.0671 -0.64557 0
11.0497 -0.511547 0
8.49731 0.252746 0
7.79531 0.315292 0
11.0497 -0.511547 0
10.111 -0.390887 0
7.79531 0.315292 0
7.14993 0.371389 0
10.0968 0.105263 0
9.26218 0.18303 0
5.61642 0.770935 0
5.18371 0.791421 0
9.26218 0.18303 0
8.49731 0.252746 0
5.18371 0.791421 0
4.78881 0.809703 0
5.61642 0.770935 0
5.18371 0.791421 0
1 1 0
1 1 0
5.18371 0.791421 0
4.78881 0.809703 0
1 1 0
1 1 0
8.49731 0.252746 0
7.79531 0.315292 0
4.78881 0.809703 0
4.42775 0.826042 0
7.79531 0.315292 0
7.14993 0.371389 0
4.42775 0.826042 0
4.09698 0.840648 0
4.78881 0.809703 0
4.42775 0.826042 0
1 1 0
1 1 0
4.42775 0.826042 0
4.09698 0.840648 0
1 1 0
1 1 0
29.8357 -25.9942 0
27.467 -24.487 0
29.7233 -23.5721 0
27.3601 -22.1745 0
27.467 -24.487 0
25.2049 -23.0863 0
27.3601 -22.1745 0
25.104 -20.8777 0
29.7233 -23.5721 0
27.3601 -22.1745 0
29.3837 -21.161 0
27.038 -19.8737 0
27.3601 -22.1745 0
25.104 -20.8777 0
27.038 -19.8737 0
24.8006 -18.6817 0
25.2049 -23.0863 0
23.0437 -21.7926 0
25.104 -20.8777 0
22.9491 -19.6819 0
23.0437 -21.7926 0
20.9771 -20.6055 0
22.9491 -19.6819 0
20.8892 -18.5864 0
25.104 -20.8777 0
22.9491 -19.6819 0
24.8006 -18.6817 0
22.6655 -17.5845 0
22.9491 -19.6819 0
20.8892 -18.5864 0
22.6655 -17.5845 0
20.6261 -16.581 0
29.3837 -21.161 0
27.038 -19.8737 0
28.8122 -18.7733 0
26.498 -17.5981 0
27.038 -19.8737 0
24.8006 -18.6817 0
26.498 -17.5981 0
24.2936 -16.5121 0
28.8122 -18.7733 0
26.498 -17.5981 0
28.0042 -16.4238 0
25.7371 -15.3624 0
26.498 -17.5981 0
24.2936 -16.5121 0
25.7371 -15.3624 0
23.5815 -14.3839 0
24.8006 -18.6817 0
22.6655 -17.5845 0
24.2936 -16.5121 0
22.1927 -15.5145 0
22.6655 -17.5845 0
20.6261 -16.581 0
22.1927 -15.5145 0
20.1885 -14.6037 0