# vtk DataFile Version 3.0
#This file was generated by the deal.II library on 2018/10/15 at 9:19:13
ASCII
DATASET UNSTRUCTURED_GRID

POINTS 20480 double
0 0 0
0.19635 0 0
0 0.304207 0
0.19635 0.304207 0
0.19635 0 0
0.392699 0 0
0.19635 0.304207 0
0.392699 0.304207 0
0 0.304207 0
0.19635 0.304207 0
0 0.617006 0
0.19635 0.617006 0
0.19635 0.304207 0
0.392699 0.304207 0
0.19635 0.617006 0
0.392699 0.617006 0
0.392699 0 0
0.589049 0 0
0.392699 0.304207 0
0.589049 0.304207 0
0.589049 0 0
0.785398 0 0
0.589049 0.304207 0
0.785398 0.304207 0
0.392699 0.304207 0
0.589049 0.304207 0
0.392699 0.617006 0
0.589049 0.617006 0
0.589049 0.304207 0
0.785398 0.304207 0
0.589049 0.617006 0
0.785398 0.617006 0
0 0.617006 0
0.19635 0.617006 0
0 0.929557 0
0.19635 0.929557 0
0.19635 0.617006 0
0.392699 0.617006 0
0.19635 0.929557 0
0.392699 0.929557 0
0 0.929557 0
0.19635 0.929557 0
0 1.24244 0
0.19635 1.24244 0
0.19635 0.929557 0
0.392699 0.929557 0
0.19635 1.24244 0
0.392699 1.24244 0
0.392699 0.617006 0
0.589049 0.617006 0
0.392699 0.929557 0
0.589049 0.929557 0
0.589049 0.617006 0
0.785398 0.617006 0
0.589049 0.929557 0
0.785398 0.929557 0
0.392699 0.929557 0
0.589049 0.929557 0
0.392699 1.24244 0
0.589049 1.24244 0
0.589049 0.929557 0
0.785398 0.929557 0
0.589049 1.24244 0
0.785398 1.24244 0
0.785398 0 0
0.981748 0 0
0.785398 0.304207 0
0.981748 0.304207 0
0.981748 0 0
1.1781 0 0
0.981748 0.304207 0
1.1781 0.304207 0
0.785398 0.304207 0
0.981748 0.304207 0
0.785398 0.617006 0
0.981748 0.617006 0
0.981748 0.304207 0
1.1781 0.304207 0
0.981748 0.617006 0
1.1781 0.617006 0
1.1781 0 0
1.37445 0 0
1.1781 0.304207 0
1.37445 0.304207 0
1.37445 0 0
1.5708 0 0
1.37445 0.304207 0
1.5708 0.304207 0
1.1781 0.304207 0
1.37445 0.304207 0
1.1781 0.617006 0
1.37445 0.617006 0
1.37445 0.304207 0
1.5708 0.304207 0
1.37445 0.617006 0
1.5708 0.617006 0
0.785398 0.617006 0
0.981748 0.617006 0
0.785398 0.929557 0
0.981748 0.929557 0
0.981748 0.617006 0
1.1781 0.617006 0
0.981748 0.929557 0
1.1781 0.929557 0
0.785398 0.929557 0
0.981748 0.929557 0
0.785398 1.24244 0
0.981748 1.24244 0
0.981748 0.929557 0
1.1781 0.929557 0
0.981748 1.24244 0
1.1781 1.24244 0
1.1781 0.617006 0
1.37445 0.617006 0
1.1781 0.929557 0
1.37445 0.929557 0
1.37445 0.617006 0
1.5708 0.617006 0
1.37445 0.929557 0
1.5708 0.929557 0
1.1781 0.929557 0
1.37445 0.929557 0
1.1781 1.24244 0
1.37445 1.24244 0
1.37445 0.929557 0
1.5708 0.929557 0
1.37445 1.24244 0
1.5708 1.24244 0
0 1.24244 0
0.19635 1.24244 0
0 1.55523 0
0.19635 1.55523 0
0.19635 1.24244 0
0.392699 1.24244 0
0.19635 1.55523 0
0.392699 1.55523 0
0 1.55523 0
0.19635 1.55523 0
0 1.86805 0
0.19635 1.86805 0
0.19635 1.55523 0
0.392699 1.55523 0
0.19635 1.86805 0
0.392699 1.86805 0
0.392699 1.24244 0
0.589049 1.24244 0
0.392699 1.55523 0
0.589049 1.55523 0
0.589049 1.24244 0
0.785398 1.24244 0
0.589049 1.55523 0
0.785398 1.55523 0
0.392699 1.55523 0
0.589049 1.55523 0
0.392699 1.86805 0
0.589049 1.86805 0
0.589049 1.55523 0
0.785398 1.55523 0
0.589049 1.86805 0
0.785398 1.86805 0
0 1.86805 0
0.19635 1.86805 0
0 2.18086 0
0.19635 2.18086 0
0.19635 1.86805 0
0.392699 1.86805 0
0.19635 2.18086 0
0.392699 2.18086 0
0 2.18086 0
0.19635 2.18086 0
0 2.49366 0
0.19635 2.49366 0
0.19635 2.18086 0
0.392699 2.18086 0
0.19635 2.49366 0
0.392699 2.49366 0
0.392699 1.86805 0
0.589049 1.86805 0
0.392699 2.18086 0
0.589049 2.18086 0
0.589049 1.86805 0
0.785398 1.86805 0
0.589049 2.18086 0
0.785398 2.18086 0
0.392699 2.18086 0
0.589049 2.18086 0
0.392699 2.49366 0
0.589049 2.49366 0
0.589049 2.18086 0
0.785398 2.18086 0
0.589049 2.49366 0
0.785398 2.49366 0
0.785398 1.24244 0
0.981748 1.24244 0
0.785398 1.55523 0
0.981748 1.55523 0
0.981748 1.24244 0
1.1781 1.24244 0
0.981748 1.55523 0
1.1781 1.55523 0
0.785398 1.55523 0
0.981748 1.55523 0
0.785398 1.86805 0
0.981748 1.86805 0
0.981748 1.55523 0
1.1781 1.55523 0
0.981748 1.86805 0
1.1781 1.86805 0
1.1781 1.24244 0
1.37445 1.24244 0
1.1781 1.55523 0
1.37445 1.55523 0
1.37445 1.24244 0
1.5708 1.24244 0
1.37445 1.55523 0
1.5708 1.55523 0
1.1781 1.55523 0
1.37445 1.55523 0
1.1781 1.86805 0
1.37445 1.86805 0
1.37445 1.55523 0
1.5708 1.55523 0
1.37445 1.86805 0
1.5708 1.86805 0
0.785398 1.86805 0
0.981748 1.86805 0
0.785398 2.18086 0
0.981748 2.18086 0
0.981748 1.86805 0
1.1781 1.86805 0
0.981748 2.18086 0
1.1781 2.18086 0
0.785398 2.18086 0
0.981748 2.18086 0
0.785398 2.49366 0
0.981748 2.49366 0
0.981748 2.18086 0
1.1781 2.18086 0
0.981748 2.49366 0
1.1781 2.49366 0
1.1781 1.86805 0
1.37445 1.86805 0
1.1781 2.18086 0
1.37445 2.18086 0
1.37445 1.86805 0
1.5708 1.86805 0
1.37445 2.18086 0
1.5708 2.18086 0
1.1781 2.18086 0
1.37445 2.18086 0
1.1781 2.49366 0
1.37445 2.49366 0
1.37445 2.18086 0
1.5708 2.18086 0
1.37445 2.49366 0
1.5708 2.49366 0
1.5708 0 0
1.76715 0 0
1.5708 0.304207 0
1.76715 0.304207 0
1.76715 0 0
1.9635 0 0
1.76715 0.304207 0
1.9635 0.304207 0
1.5708 0.304207 0
1.76715 0.304207 0
1.5708 0.617006 0
1.76715 0.617006 0
1.76715 0.304207 0
1.9635 0.304207 0
1.76715 0.617006 0
1.9635 0.617006 0
1.9635 0 0
2.15984 0 0
1.9635 0.304207 0
2.15984 0.304207 0
2.15984 0 0
2.35619 0 0
2.15984 0.304207 0
2.35619 0.304207 0
1.9635 0.304207 0
2.15984 0.304207 0
1.9635 0.617006 0
2.15984 0.617006 0
2.15984 0.304207 0
2.35619 0.304207 0
2.15984 0.617006 0
2.35619 0.617006 0
1.5708 0.617006 0
1.76715 0.617006 0
1.5708 0.929557 0
1.76715 0.929557 0
1.76715 0.617006 0
1.9635 0.617006 0
1.76715 0.929557 0
1.9635 0.929557 0
1.5708 0.929557 0
1.76715 0.929557 0
1.5708 1.24244 0
1.76715 1.24244 0
1.76715 0.929557 0
1.9635 0.929557 0
1.76715 1.24244 0
1.9635 1.24244 0
1.9635 0.617006 0
2.15984 0.617006 0
1.9635 0.929557 0
2.15984 0.929557 0
2.15984 0.617006 0
2.35619 0.617006 0
2.15984 0.929557 0
2.35619 0.929557 0
1.9635 0.929557 0
2.15984 0.929557 0
1.9635 1.24244 0
2.15984 1.24244 0
2.15984 0.929557 0
2.35619 0.929557 0
2.15984 1.24244 0
2.35619 1.24244 0
2.35619 0 0
2.55254 0 0
2.35619 0.304207 0
2.55254 0.304207 0
2.55254 0 0
2.74889 0 0
2.55254 0.304207 0
2.74889 0.304207 0
2.35619 0.304207 0
2.55254 0.304207 0
2.35619 0.617006 0
2.55254 0.617006 0
2.55254 0.304207 0
2.74889 0.304207 0
2.55254 0.617006 0
2.74889 0.617006 0
2.74889 0 0
2.94524 0 0
2.74889 0.304207 0
2.94524 0.304207 0
2.94524 0 0
3.14159 0 0
2.94524 0.304207 0
3.14159 0.304207 0
2.74889 0.304207 0
2.94524 0.304207 0
2.74889 0.617006 0
2.94524 0.617006 0
2.94524 0.304207 0
3.14159 0.304207 0
2.94524 0.617006 0
3.14159 0.617006 0
2.35619 0.617006 0
2.55254 0.617006 0
2.35619 0.929557 0
2.55254 0.929557 0
2.55254 0.617006 0
2.74889 0.617006 0
2.55254 0.929557 0
2.74889 0.929557 0
2.35619 0.929557 0
2.55254 0.929557 0
2.35619 1.24244 0
2.55254 1.24244 0
2.55254 0.929557 0
2.74889 0.929557 0
2.55254 1.24244 0
2.74889 1.24244 0
2.74889 0.617006 0
2.94524 0.617006 0
2.74889 0.929557 0
2.94524 0.929557 0
2.94524 0.617006 0
3.14159 0.617006 0
2.94524 0.929557 0
3.14159 0.929557 0
2.74889 0.929557 0
2.94524 0.929557 0
2.74889 1.24244 0
2.94524 1.24244 0
2.94524 0.929557 0
3.14159 0.929557 0
2.94524 1.24244 0
3.14159 1.24244 0
1.5708 1.24244 0
1.76715 1.24244 0
1.5708 1.55523 0
1.76715 1.55523 0
1.76715 1.24244 0
1.9635 1.24244 0
1.76715 1.55523 0
1.9635 1.55523 0
1.5708 1.55523 0
1.76715 1.55523 0
1.5708 1.86805 0
1.76715 1.86805 0
1.76715 1.55523 0
1.9635 1.55523 0
1.76715 1.86805 0
1.9635 1.86805 0
1.9635 1.24244 0
2.15984 1.24244 0
1.9635 1.55523 0
2.15984 1.55523 0
2.15984 1.24244 0
2.35619 1.24244 0
2.15984 1.55523 0
2.35619 1.55523 0
1.9635 1.55523 0
2.15984 1.55523 0
1.9635 1.86805 0
2.15984 1.86805 0
2.15984 1.55523 0
2.35619 1.55523 0
2.15984 1.86805 0
2.35619 1.86805 0
1.5708 1.86805 0
1.76715 1.86805 0
1.5708 2.18086 0
1.76715 2.18086 0
1.76715 1.86805 0
1.9635 1.86805 0
1.76715 2.18086 0
1.9635 2.18086 0
1.5708 2.18086 0
1.76715 2.18086 0
1.5708 2.49366 0
1.76715 2.49366 0
1.76715 2.18086 0
1.9635 2.18086 0
1.76715 2.49366 0
1.9635 2.49366 0
1.9635 1.86805 0
2.15984 1.86805 0
1.9635 2.18086 0
2.15984 2.18086 0
2.15984 1.86805 0
2.35619 1.86805 0
2.15984 2.18086 0
2.35619 2.18086 0
1.9635 2.18086 0
2.15984 2.18086 0
1.9635 2.49366 0
2.15984 2.49366 0
2.15984 2.18086 0
2.35619 2.18086 0
2.15984 2.49366 0
2.35619 2.49366 0
2.35619 1.24244 0
2.55254 1.24244 0
2.35619 1.55523 0
2.55254 1.55523 0
2.55254 1.24244 0
2.74889 1.24244 0
2.55254 1.55523 0
2.74889 1.55523 0
2.35619 1.55523 0
2.55254 1.55523 0
2.35619 1.86805 0
2.55254 1.86805 0
2.55254 1.55523 0
2.74889 1.55523 0
2.55254 1.86805 0
2.74889 1.86805 0
2.74889 1.24244 0
2.94524 1.24244 0
2.74889 1.55523 0
2.94524 1.55523 0
2.94524 1.24244 0
3.14159 1.24244 0
2.94524 1.55523 0
3.14159 1.55523 0
2.74889 1.55523 0
2.94524 1.55523 0
2.74889 1.86805 0
2.94524 1.86805 0
2.94524 1.55523 0
3.14159 1.55523 0
2.94524 1.86805 0
3.14159 1.86805 0
2.35619 1.86805 0
2.55254 1.86805 0
2.35619 2.18086 0
2.55254 2.18086 0
2.55254 1.86805 0
2.74889 1.86805 0
2.55254 2.18086 0
2.74889 2.18086 0
2.35619 2.18086 0
2.55254 2.18086 0
2.35619 2.49366 0
2.55254 2.49366 0
2.55254 2.18086 0
2.74889 2.18086 0
2.55254 2.49366 0
2.74889 2.49366 0
2.74889 1.86805 0
2.94524 1.86805 0
2.74889 2.18086 0
2.94524 2.18086 0
2.94524 1.86805 0
3.14159 1.86805 0
2.94524 2.18086 0
3.14159 2.18086 0
2.74889 2.18086 0
2.94524 2.18086 0
2.74889 2.49366 0
2.94524 2.49366 0
2.94524 2.18086 0
3.14159 2.18086 0
2.94524 2.49366 0
3.14159 2.49366 0
0 2.49366 0
0.19635 2.49366 0
0 2.80645 0
0.19635 2.80645 0
0.19635 2.49366 0
0.392699 2.49366 0
0.19635 2.80645 0
0.392699 2.80645 0
0 2.80645 0
0.19635 2.80645 0
0 3.11924 0
0.19635 3.11924 0
0.19635 2.80645 0
0.392699 2.80645 0
0.19635 3.11924 0
0.392699 3.11924 0
0.392699 2.49366 0
0.589049 2.49366 0
0.392699 2.80645 0
0.589049 2.80645 0
0.589049 2.49366 0
0.785398 2.49366 0
0.589049 2.80645 0
0.785398 2.80645 0
0.392699 2.80645 0
0.589049 2.80645 0
0.392699 3.11924 0
0.589049 3.11924 0
0.589049 2.80645 0
0.785398 2.80645 0
0.589049 3.11924 0
0.785398 3.11924 0
0 3.11924 0
0.19635 3.11924 0
0 3.43203 0
0.19635 3.43203 0
0.19635 3.11924 0
0.392699 3.11924 0
0.19635 3.43203 0
[...]
POINT_DATA 20480
VECTORS uf double
0 1 0
-5.91677e-15 1 0
0 1.00001 0
4.3861e-15 1.00001 0
-5.91677e-15 1 0
-2.40711e-15 1 0
4.3861e-15 1.00001 0
1.73183e-15 1.00001 0
0 1.00001 0
7.39506e-15 1.00001 0
0 1.00001 0
-6.62983e-15 1.00001 0
7.39506e-15 1.00001 0
7.89742e-15 1.00001 0
-6.62983e-15 1.00001 0
-6.13374e-15 1.00001 0
-2.40711e-15 1 0
7.39066e-16 1 0
1.73183e-15 1.00001 0
2.84233e-15 1.00001 0
7.39066e-16 1 0
-4.57983e-15 1 0
2.84233e-15 1.00001 0
2.28363e-15 1.00001 0
7.89742e-15 1.00001 0
-9.49763e-15 1.00001 0
-6.13374e-15 1.00001 0
7.7481e-15 1.00001 0
-9.49763e-15 1.00001 0
-5.21969e-15 1.00001 0
7.7481e-15 1.00001 0
1.65008e-14 1.00001 0
0 1.00001 0
4.04412e-15 1.00001 0
0 1.00001 0
5.34666e-15 1.00001 0
4.04412e-15 1.00001 0
-4.30576e-15 1.00001 0
5.34666e-15 1.00001 0
6.89727e-15 1.00001 0
0 1.00001 0
-1.40615e-15 1.00001 0
0 1.00001 0
-7.89027e-16 1.00001 0
-1.40615e-15 1.00001 0
-1.52351e-14 1.00001 0
-7.89027e-16 1.00001 0
8.60803e-15 1.00001 0
-4.30576e-15 1.00001 0
-2.68409e-15 1.00001 0
6.89727e-15 1.00001 0
2.91379e-15 1.00001 0
-2.68409e-15 1.00001 0
-9.17512e-15 1.00001 0
2.91379e-15 1.00001 0
-1.62217e-15 1.00001 0
-1.52351e-14 1.00001 0
-5.8417e-15 1.00001 0
8.60803e-15 1.00001 0
1.07536e-14 1.00001 0
-5.8417e-15 1.00001 0
8.15045e-16 1.00001 0
1.07536e-14 1.00001 0
3.50917e-15 1.00001 0
-4.57983e-15 1 0
-8.91636e-15 1 0
2.28363e-15 1.00001 0
4.05577e-15 1.00001 0
-8.91636e-15 1 0
-2.0735e-15 1 0
4.05577e-15 1.00001 0
1.27484e-14 1.00001 0
-5.21969e-15 1.00001 0
-6.88438e-15 1.00001 0
1.65008e-14 1.00001 0
1.51409e-14 1.00001 0
-6.88438e-15 1.00001 0
-1.19542e-14 1.00001 0
1.51409e-14 1.00001 0
1.15444e-14 1.00001 0
-2.0735e-15 1 0
-7.82036e-15 1 0
1.27484e-14 1.00001 0
8.13785e-15 1.00001 0
-7.82036e-15 1 0
-5.32818e-15 1 0
8.13785e-15 1.00001 0
-2.44436e-15 1.00001 0
-1.19542e-14 1.00001 0
-5.04821e-15 1.00001 0
1.15444e-14 1.00001 0
6.81648e-15 1.00001 0
-5.04821e-15 1.00001 0
1.39626e-15 1.00001 0
6.81648e-15 1.00001 0
2.16779e-14 1.00001 0
-9.17512e-15 1.00001 0
-1.46169e-14 1.00001 0
-1.62217e-15 1.00001 0
1.62908e-14 1.00001 0
-1.46169e-14 1.00001 0
-7.52925e-15 1.00001 0
1.62908e-14 1.00001 0
1.57892e-15 1.00001 0
8.15045e-16 1.00001 0
-1.46355e-14 1.00001 0
3.50917e-15 1.00001 0
1.38102e-14 1.00001 0
-1.46355e-14 1.00001 0
-6.63068e-15 1.00001 0
1.38102e-14 1.00001 0
1.24935e-14 1.00001 0
-7.52925e-15 1.00001 0
-4.19822e-15 1.00001 0
1.57892e-15 1.00001 0
3.42104e-15 1.00001 0
-4.19822e-15 1.00001 0
-2.54032e-14 1.00001 0
3.42104e-15 1.00001 0
1.46191e-14 1.00001 0
-6.63068e-15 1.00001 0
-2.29924e-15 1.00001 0
1.24935e-14 1.00001 0
2.5893e-15 1.00001 0
-2.29924e-15 1.00001 0
-5.06639e-15 1.00001 0
2.5893e-15 1.00001 0
8.5884e-15 1.00001 0
0 1.00001 0
-8.48059e-15 1.00001 0
0 1.00001 0
-7.07415e-16 1.00001 0
-8.48059e-15 1.00001 0
3.34276e-15 1.00001 0
-7.07415e-16 1.00001 0
1.26625e-14 1.00001 0
0 1.00001 0
-9.35875e-16 1.00001 0
0 1.00001 0
5.30274e-16 1.00001 0
-9.35875e-16 1.00001 0
-2.19022e-14 1.00001 0
5.30274e-16 1.00001 0
1.26376e-14 1.00001 0
3.34276e-15 1.00001 0
6.95489e-16 1.00001 0
1.26625e-14 1.00001 0
-1.47565e-14 1.00001 0
6.95489e-16 1.00001 0
-1.34114e-14 1.00001 0
-1.47565e-14 1.00001 0
2.06583e-14 1.00001 0
-2.19022e-14 1.00001 0
6.37031e-15 1.00001 0
1.26376e-14 1.00001 0
3.55102e-15 1.00001 0
6.37031e-15 1.00001 0
-2.40977e-14 1.00001 0
3.55102e-15 1.00001 0
1.76386e-14 1.00001 0
0 1.00001 0
-1.17452e-14 1.00001 0
0 1.00001 0
2.52257e-14 1.00001 0
-1.17452e-14 1.00001 0
-2.55475e-15 1.00001 0
2.52257e-14 1.00001 0
6.65654e-16 1.00001 0
0 1.00001 0
-1.39591e-14 1.00001 0
0 1.00001 0
-2.61298e-15 1.00001 0
-1.39591e-14 1.00001 0
3.29041e-16 1.00001 0
-2.61298e-15 1.00001 0
1.09281e-14 1.00001 0
-2.55475e-15 1.00001 0
-8.63587e-15 1.00001 0
6.65654e-16 1.00001 0
4.23499e-15 1.00001 0
-8.63587e-15 1.00001 0
-6.33415e-15 1.00001 0
4.23499e-15 1.00001 0
9.8661e-15 1.00001 0
3.29041e-16 1.00001 0
2.26777e-15 1.00001 0
1.09281e-14 1.00001 0
-3.82521e-15 1.00001 0
2.26777e-15 1.00001 0
-1.36596e-14 1.00001 0
-3.82521e-15 1.00001 0
1.50729e-14 1.00001 0
-1.34114e-14 1.00001 0
-7.51828e-15 1.00001 0
2.06583e-14 1.00001 0
1.33231e-14 1.00001 0
-7.51828e-15 1.00001 0
-9.53423e-15 1.00001 0
1.33231e-14 1.00001 0
6.29927e-15 1.00001 0
-2.40977e-14 1.00001 0
-1.04091e-14 1.00001 0
1.76386e-14 1.00001 0
1.01726e-14 1.00001 0
-1.04091e-14 1.00001 0
-1.17561e-14 1.00001 0
1.01726e-14 1.00001 0
1.86174e-14 1.00001 0
-9.53423e-15 1.00001 0
-2.99712e-15 1.00001 0
6.29927e-15 1.00001 0
6.82562e-15 1.00001 0
-2.99712e-15 1.00001 0
-2.70665e-15 1.00001 0
6.82562e-15 1.00001 0
-3.21957e-15 1.00001 0
-1.17561e-14 1.00001 0
-2.38512e-16 1.00001 0
1.86174e-14 1.00001 0
3.90049e-15 1.00001 0
-2.38512e-16 1.00001 0
6.09098e-15 1.00001 0
3.90049e-15 1.00001 0
1.99184e-16 1.00001 0
-6.33415e-15 1.00001 0
-4.0734e-15 1.00001 0
9.8661e-15 1.00001 0
7.91249e-15 1.00001 0
-4.0734e-15 1.00001 0
-1.40943e-14 1.00001 0
7.91249e-15 1.00001 0
1.8297e-14 1.00001 0
-1.36596e-14 1.00001 0
-2.63162e-14 1.00001 0
1.50729e-14 1.00001 0
2.10626e-14 1.00001 0
-2.63162e-14 1.00001 0
-2.66049e-14 1.00001 0
2.10626e-14 1.00001 0
2.14667e-14 1.00001 0
-1.40943e-14 1.00001 0
-3.67315e-15 1.00001 0
1.8297e-14 1.00001 0
1.96545e-15 1.00001 0
-3.67315e-15 1.00001 0
-1.27443e-14 1.00001 0
1.96545e-15 1.00001 0
2.0746e-14 1.00001 0
-2.66049e-14 1.00001 0
1.5595e-15 1.00001 0
2.14667e-14 1.00001 0
5.07739e-15 1.00001 0
1.5595e-15 1.00001 0
-1.79211e-14 1.00001 0
5.07739e-15 1.00001 0
9.79107e-15 1.00001 0
-5.32818e-15 1 0
-1.34955e-14 1 0
-2.44436e-15 1.00001 0
1.41891e-14 1.00001 0
-1.34955e-14 1 0
-1.07188e-14 1 0
1.41891e-14 1.00001 0
8.89202e-15 1.00001 0
1.39626e-15 1.00001 0
-7.43898e-15 1.00001 0
2.16779e-14 1.00001 0
1.17383e-14 1.00001 0
-7.43898e-15 1.00001 0
-3.55845e-15 1.00001 0
1.17383e-14 1.00001 0
4.73289e-15 1.00001 0
-1.07188e-14 1 0
-1.72876e-15 1 0
8.89202e-15 1.00001 0
1.76222e-15 1.00001 0
-1.72876e-15 1 0
9.8964e-15 1 0
1.76222e-15 1.00001 0
-8.88298e-15 1.00001 0
-3.55845e-15 1.00001 0
-1.74851e-15 1.00001 0
4.73289e-15 1.00001 0
5.70028e-15 1.00001 0
-1.74851e-15 1.00001 0
-3.35346e-15 1.00001 0
5.70028e-15 1.00001 0
5.34881e-15 1.00001 0
-2.54032e-14 1.00001 0
-1.15421e-14 1.00001 0
1.46191e-14 1.00001 0
1.3974e-14 1.00001 0
-1.15421e-14 1.00001 0
-6.43477e-16 1.00001 0
1.3974e-14 1.00001 0
1.03266e-14 1.00001 0
-5.06639e-15 1.00001 0
-1.92755e-14 1.00001 0
8.5884e-15 1.00001 0
2.00369e-14 1.00001 0
-1.92755e-14 1.00001 0
-6.84028e-15 1.00001 0
2.00369e-14 1.00001 0
5.27453e-15 1.00001 0
-6.43477e-16 1.00001 0
-1.51074e-15 1.00001 0
1.03266e-14 1.00001 0
1.46533e-14 1.00001 0
-1.51074e-15 1.00001 0
1.69005e-14 1.00001 0
1.46533e-14 1.00001 0
-7.78544e-15 1.00001 0
-6.84028e-15 1.00001 0
-2.41114e-14 1.00001 0
5.27453e-15 1.00001 0
2.57417e-14 1.00001 0
-2.41114e-14 1.00001 0
1.3692e-15 1.00001 0
2.57417e-14 1.00001 0
-3.92738e-16 1.00001 0
9.8964e-15 1 0
5.42005e-15 1 0
-8.88298e-15 1.00001 0
-6.8349e-16 1.00001 0
5.42005e-15 1 0
-1.61132e-14 1 0
-6.8349e-16 1.00001 0
2.79307e-14 1.00001 0
-3.35346e-15 1.00001 0
3.55335e-15 1.00001 0
5.34881e-15 1.00001 0
5.0974e-15 1.00001 0
3.55335e-15 1.00001 0
-1.06245e-14 1.00001 0
5.0974e-15 1.00001 0
1.38332e-14 1.00001 0
-1.61132e-14 1 0
7.99531e-16 1 0
2.79307e-14 1.00001 0
1.44707e-14 1.00001 0
7.99531e-16 1 0
-1.94229e-15 1 0
1.44707e-14 1.00001 0
1.95345e-14 1.00001 0
-1.06245e-14 1.00001 0
-1.52413e-14 1.00001 0
1.38332e-14 1.00001 0
2.18512e-14 1.00001 0
-1.52413e-14 1.00001 0
-2.35531e-14 1.00001 0
2.18512e-14 1.00001 0
2.32381e-14 1.00001 0
1.69005e-14 1.00001 0
5.11525e-16 1.00001 0
-7.78544e-15 1.00001 0
-4.39677e-15 1.00001 0
5.11525e-16 1.00001 0
-9.08567e-15 1.00001 0
-4.39677e-15 1.00001 0
1.37896e-14 1.00001 0
1.3692e-15 1.00001 0
1.18856e-14 1.00001 0
-3.92738e-16 1.00001 0
-1.005e-14 1.00001 0
1.18856e-14 1.00001 0
-4.01881e-15 1.00001 0
-1.005e-14 1.00001 0
4.46448e-15 1.00001 0
-9.08567e-15 1.00001 0
-1.92008e-14 1.00001 0
1.37896e-14 1.00001 0
1.75546e-14 1.00001 0
-1.92008e-14 1.00001 0
-9.8488e-15 1.00001 0
1.75546e-14 1.00001 0
1.12975e-14 1.00001 0
-4.01881e-15 1.00001 0
-1.38761e-14 1.00001 0
4.46448e-15 1.00001 0
2.24419e-14 1.00001 0
-1.38761e-14 1.00001 0
-1.50934e-14 1.00001 0
2.24419e-14 1.00001 0
3.14325e-14 1.00001 0
-2.70665e-15 1.00001 0
-8.46877e-15 1.00001 0
-3.21957e-15 1.00001 0
1.52996e-14 1.00001 0
-8.46877e-15 1.00001 0
1.46447e-15 1.00001 0
1.52996e-14 1.00001 0
9.0987e-15 1.00001 0
6.09098e-15 1.00001 0
-1.18358e-14 1.00001 0
1.99184e-16 1.00001 0
6.83342e-15 1.00001 0
-1.18358e-14 1.00001 0
-1.21601e-14 1.00001 0
6.83342e-15 1.00001 0
1.26988e-14 1.00001 0
1.46447e-15 1.00001 0
-1.32711e-14 1.00001 0
9.0987e-15 1.00001 0
1.6894e-14 1.00001 0
-1.32711e-14 1.00001 0
7.36171e-15 1.00001 0
1.6894e-14 1.00001 0
1.38579e-15 1.00001 0
-1.21601e-14 1.00001 0
-1.50356e-14 1.00001 0
1.26988e-14 1.00001 0
5.62416e-15 1.00001 0
-1.50356e-14 1.00001 0
-1.19795e-14 1.00001 0
5.62416e-15 1.00001 0
1.90732e-15 1.00001 0
-1.27443e-14 1.00001 0
-3.95073e-15 1.00001 0
2.0746e-14 1.00001 0
7.6817e-15 1.00001 0
-3.95073e-15 1.00001 0
-1.2752e-14 1.00001 0
7.6817e-15 1.00001 0
6.41324e-15 1.00001 0
-1.79211e-14 1.00001 0
-1.22975e-14 1.00001 0
9.79107e-15 1.00001 0
1.03443e-14 1.00001 0
-1.22975e-14 1.00001 0
-2.21273e-14 1.00001 0
1.03443e-14 1.00001 0
2.69503e-14 1.00001 0
-1.2752e-14 1.00001 0
-2.18273e-14 1.00001 0
6.41324e-15 1.00001 0
2.63239e-14 1.00001 0
-2.18273e-14 1.00001 0
1.41074e-15 1.00001 0
2.63239e-14 1.00001 0
-7.60716e-16 1.00001 0
-2.21273e-14 1.00001 0
-1.31654e-14 1.00001 0
2.69503e-14 1.00001 0
6.29173e-15 1.00001 0
-1.31654e-14 1.00001 0
-5.10752e-15 1.00001 0
6.29173e-15 1.00001 0
-5.21521e-16 1.00001 0
7.36171e-15 1.00001 0
1.07932e-14 1.00001 0
1.38579e-15 1.00001 0
-3.25031e-15 1.00001 0
1.07932e-14 1.00001 0
-4.74667e-15 1.00001 0
-3.25031e-15 1.00001 0
3.30743e-15 1.00001 0
-1.19795e-14 1.00001 0
1.67928e-15 1.00001 0
1.90732e-15 1.00001 0
-1.15375e-14 1.00001 0
1.67928e-15 1.00001 0
-4.34417e-15 1.00001 0
-1.15375e-14 1.00001 0
-1.80525e-15 1.00001 0
-4.74667e-15 1.00001 0
-2.31652e-14 1.00001 0
3.30743e-15 1.00001 0
7.70541e-15 1.00001 0
-2.31652e-14 1.00001 0
-2.98126e-14 1.00001 0
7.70541e-15 1.00001 0
9.18504e-15 1.00001 0
-4.34417e-15 1.00001 0
-9.57706e-15 1.00001 0
-1.80525e-15 1.00001 0
9.97376e-15 1.00001 0
-9.57706e-15 1.00001 0
-6.38716e-15 1.00001 0
9.97376e-15 1.00001 0
9.20647e-15 1.00001 0
1.41074e-15 1.00001 0
-6.80574e-16 1.00001 0
-7.60716e-16 1.00001 0
-1.5714e-15 1.00001 0
-6.80574e-16 1.00001 0
7.86499e-15 1.00001 0
-1.5714e-15 1.00001 0
-8.51063e-15 1.00001 0
-5.10752e-15 1.00001 0
-3.3063e-15 1.00001 0
-5.21521e-16 1.00001 0
6.28411e-15 1.00001 0
-3.3063e-15 1.00001 0
-6.03568e-15 1.00001 0
6.28411e-15 1.00001 0
9.46948e-15 1.00001 0
7.86499e-15 1.00001 0
-1.16729e-14 1.00001 0
-8.51063e-15 1.00001 0
1.85107e-14 1.00001 0
-1.16729e-14 1.00001 0
-1.78079e-14 1.00001 0
1.85107e-14 1.00001 0
2.91032e-14 1.00001 0
-6.03568e-15 1.00001 0
1.05221e-15 1.00001 0
9.46948e-15 1.00001 0
-1.10777e-14 1.00001 0
1.05221e-15 1.00001 0
-2.89536e-14 1.00001 0
-1.10777e-14 1.00001 0
2.61344e-14 1.00001 0
0 1.00001 0
2.7649e-15 1.00001 0
0 1.00001 0
1.92743e-14 1.00001 0
2.7649e-15 1.00001 0
-1.90236e-14 1.00001 0
1.92743e-14 1.00001 0
-1.77662e-14 1.00001 0
0 1.00001 0
-1.89019e-14 1.00001 0
0 1.00001 0
7.96024e-15 1.00001 0
-1.89019e-14 1.00001 0
5.84221e-16 1.00001 0
7.96024e-15 1.00001 0
6.50635e-15 1.00001 0
-1.90236e-14 1.00001 0
5.235e-15 1.00001 0
-1.77662e-14 1.00001 0
-5.11518e-15 1.00001 0
5.235e-15 1.00001 0
-1.22653e-14 1.00001 0
-5.11518e-15 1.00001 0
1.52117e-14 1.00001 0
5.84221e-16 1.00001 0
-1.40886e-16 1.00001 0
6.50635e-15 1.00001 0
1.02703e-14 1.00001 0
-1.40886e-16 1.00001 0
-2.0298e-14 1.00001 0
1.02703e-14 1.00001 0
2.07573e-14 1.00001 0
0 1.00001 0
-9.24346e-15 1.00001 0
0 1.00001 0
-8.87367e-15 1.00001 0
-9.24346e-15 1.00001 0
9.60072e-15 1.00001 0
-8.87367e-15 1.00001 0
1.43777e-14 1.00001 0
0 1.00001 0
1.06624e-14 1.00001 0
0 1 0
1.23601e-14 1 0
1.06624e-14 1.00001 0
-8.93378e-15 1.00001 0
1.23601e-14 1 0
-3.91873e-15 1 0
9.60072e-15 1.00001 0
-8.31609e-15 1.00001 0
1.43777e-14 1.00001 0
-1.72777e-15 1.00001 0
-8.31609e-15 1.00001 0
-2.51509e-14 1.00001 0
-1.72777e-15 1.00001 0
-2.90307e-15 1.00001 0
-8.93378e-15 1.00001 0
7.66771e-15 1.00001 0
-3.91873e-15 1 0
-2.93255e-16 1 0
7.66771e-15 1.00001 0
-3.30627e-16 1.00001 0
-2.93255e-16 1 0
1.70138e-14 1 0
-1.22653e-14 1.00001 0
-2.09564e-14 1.00001 0
1.52117e-14 1.00001 0
1.33316e-14 1.00001 0
-2.09564e-14 1.00001 0
-1.87134e-14 1.00001 0
1.33316e-14 1.00001 0
1.72263e-14 1.00001 0
-2.0298e-14 1.00001 0
-1.64706e-14 1.00001 0
2.07573e-14 1.00001 0
3.49778e-14 1.00001 0
-1.64706e-14 1.00001 0
-8.68387e-15 1.00001 0
3.49778e-14 1.00001 0
1.48624e-14 1.00001 0
-1.87134e-14 1.00001 0
-1.77201e-14 1.00001 0
1.72263e-14 1.00001 0
1.05938e-14 1.00001 0
-1.77201e-14 1.00001 0
-1.9172e-14 1.00001 0
1.05938e-14 1.00001 0
2.58522e-14 1.00001 0
-8.68387e-15 1.00001 0
3.7014e-15 1.00001 0
1.48624e-14 1.00001 0
-3.04944e-15 1.00001 0
3.7014e-15 1.00001 0
-1.68633e-14 1.00001 0
-3.04944e-15 1.00001 0
2.11816e-14 1.00001 0
-2.51509e-14 1.00001 0
-1.89968e-14 1.00001 0
-2.90307e-15 1.00001 0
9.71702e-16 1.00001 0
-1.89968e-14 1.00001 0
-2.12527e-14 1.00001 0
9.71702e-16 1.00001 0
1.91704e-14 1.00001 0
-3.30627e-16 1.00001 0
7.64344e-16 1.00001 0
1.70138e-14 1 0
6.12748e-15 1 0
7.64344e-16 1.00001 0
-1.09895e-14 1.00001 0
6.12748e-15 1 0
9.06256e-15 1 0
-2.12527e-14 1.00001 0
5.37991e-15 1.00001 0
1.91704e-14 1.00001 0
-9.11183e-15 1.00001 0
5.37991e-15 1.00001 0
-1.5522e-14 1.00001 0
-9.11183e-15 1.00001 0
1.43211e-14 1.00001 0
-1.09895e-14 1.00001 0
-2.79975e-15 1.00001 0
9.06256e-15 1 0
7.16829e-15 1 0
-2.79975e-15 1.00001 0
-1.56683e-14 1.00001 0
7.16829e-15 1 0
1.16094e-14 1 0
0 1 0
-9.03103e-15 1 0
0 1 0
-7.35563e-15 1 0
-9.03103e-15 1 0
-6.90891e-15 1 0
-7.35563e-15 1 0
1.0499e-14 1 0
0 1 0
9.8088e-15 1 0
0 1 0
1.19092e-14 1 0
9.8088e-15 1 0
-1.00307e-14 1 0
1.19092e-14 1 0
-1.40075e-15 1 0
-6.90891e-15 1 0
-5.6383e-15 1 0
1.0499e-14 1 0
-2.64517e-15 1 0
-5.6383e-15 1 0
-1.40083e-14 1 0
-2.64517e-15 1 0
1.39509e-14 1 0
-1.00307e-14 1 0
3.29945e-15 1 0
-1.40075e-15 1 0
1.12391e-14 1 0
3.29945e-15 1 0
-1.50227e-14 1 0
1.12391e-14 1 0
2.23813e-14 1 0
0 1 0
-1.42953e-14 1 0
0 1 0
-7.1109e-16 1 0
-1.42953e-14 1 0
-4.628e-15 1 0
-7.1109e-16 1 0
-5.95134e-15 1 0
0 1 0
-9.97801e-15 1 0
0 1 0
-2.14588e-15 1 0
-9.97801e-15 1 0
5.15505e-15 1 0
-2.14588e-15 1 0
3.50564e-15 1 0
-4.628e-15 1 0
-3.18746e-14 1 0
-5.95134e-15 1 0
-1.31766e-14 1 0
-3.18746e-14 1 0
-1.45693e-14 1 0
-1.31766e-14 1 0
-3.14679e-15 1 0
5.15505e-15 1 0
1.16401e-14 1 0
3.50564e-15 1 0
1.3431e-14 1 0
1.16401e-14 1 0
-1.00149e-14 1 0
1.3431e-14 1 0
2.12649e-15 1 0
-1.40083e-14 1 0
-3.74613e-14 1 0
1.39509e-14 1 0
1.15425e-14 1 0
-3.74613e-14 1 0
-7.28724e-15 1 0
1.15425e-14 1 0
9.99363e-15 1 0
-1.50227e-14 1 0
-3.22843e-15 1 0
2.23813e-14 1 0
1.29082e-14 1 0
-3.22843e-15 1 0
-2.69587e-15 1 0
1.29082e-14 1 0
5.12691e-15 1 0
-7.28724e-15 1 0
2.68954e-15 1 0
9.99363e-15 1 0
1.12505e-15 1 0
2.68954e-15 1 0
-1.52271e-14 1 0
1.12505e-15 1 0
1.64779e-14 1 0
-2.69587e-15 1 0
4.5255e-15 1 0
5.12691e-15 1 0
-7.07603e-15 1 0
4.5255e-15 1 0
-7.59403e-15 1 0
-7.07603e-15 1 0
1.40928e-14 1 0
-1.45693e-14 1 0
-1.87728e-14 1 0
-3.14679e-15 1 0
3.20304e-15 1 0
-1.87728e-14 1 0
-1.8801e-14 1 0
3.20304e-15 1 0
1.31031e-14 1 0
-1.00149e-14 1 0
-6.76519e-15 1 0
2.12649e-15 1 0
1.75642e-14 1 0
-6.76519e-15 1 0
-6.56784e-15 1 0
1.75642e-14 1 0
2.73096e-15 1 0
-1.8801e-14 1 0
5.7282e-15 1 0
1.31031e-14 1 0
-2.27498e-15 1 0
5.7282e-15 1 0
-1.85852e-14 1 0
-2.27498e-15 1 0
1.24057e-14 1 0
-6.56784e-15 1 0
-1.39618e-14 1 0
2.73096e-15 1 0
1.15716e-14 1 0
-1.39618e-14 1 0
-1.7969e-14 1 0
1.15716e-14 1 0
1.04372e-14 1 0
-1.9172e-14 1.00001 0
-1.84811e-14 1.00001 0
2.58522e-14 1.00001 0
2.00106e-14 1.00001 0
-1.84811e-14 1.00001 0
-2.08328e-14 1.00001 0
2.00106e-14 1.00001 0
2.26676e-14 1.00001 0
-1.68633e-14 1.00001 0
-1.31105e-14 1.00001 0
2.11816e-14 1.00001 0
1.83245e-14 1.00001 0
-1.31105e-14 1.00001 0
-1.55005e-14 1.00001 0
1.83245e-14 1.00001 0
1.55385e-14 1.00001 0
-2.08328e-14 1.00001 0
-8.56709e-15 1.00001 0
2.26676e-14 1.00001 0
1.45785e-14 1.00001 0
-8.56709e-15 1.00001 0
-1.30212e-14 1.00001 0
1.45785e-14 1.00001 0
1.9086e-14 1.00001 0
-1.55005e-14 1.00001 0
-1.56598e-15 1.00001 0
1.55385e-14 1.00001 0
-1.04933e-14 1.00001 0
-1.56598e-15 1.00001 0
-1.01201e-14 1.00001 0
-1.04933e-14 1.00001 0
1.65698e-14 1.00001 0
-1.5522e-14 1.00001 0
-1.63102e-14 1.00001 0
1.43211e-14 1.00001 0
1.03263e-14 1.00001 0
-1.63102e-14 1.00001 0
-1.36092e-14 1.00001 0
1.03263e-14 1.00001 0
1.73168e-15 1.00001 0
-1.56683e-14 1.00001 0
-9.17118e-15 1.00001 0
1.16094e-14 1 0
3.7761e-15 1 0
-9.17118e-15 1.00001 0
1.44166e-15 1.00001 0
3.7761e-15 1 0
1.10808e-14 1 0
-1.36092e-14 1.00001 0
7.80745e-15 1.00001 0
1.73168e-15 1.00001 0
3.07036e-15 1.00001 0
7.80745e-15 1.00001 0
-1.52797e-14 1.00001 0
3.07036e-15 1.00001 0
1.12868e-14 1.00001 0
1.44166e-15 1.00001 0
-3.35406e-15 1.00001 0
1.10808e-14 1 0
8.87745e-15 1 0
-3.35406e-15 1.00001 0
2.05453e-15 1.00001 0
8.87745e-15 1 0
4.23043e-15 1 0
-1.30212e-14 1.00001 0
-5.37539e-15 1.00001 0
1.9086e-14 1.00001 0
9.77562e-15 1.00001 0
-5.37539e-15 1.00001 0
-9.5026e-15 1.00001 0
9.77562e-15 1.00001 0
1.41671e-14 1.00001 0
-1.01201e-14 1.00001 0
-4.45005e-15 1.00001 0
1.65698e-14 1.00001 0
1.30341e-14 1.00001 0
-4.45005e-15 1.00001 0
1.65993e-15 1.00001 0
1.30341e-14 1.00001 0
-7.61902e-16 1.00001 0
-9.5026e-15 1.00001 0
1.10804e-14 1.00001 0
1.41671e-14 1.00001 0
-6.00618e-15 1.00001 0
1.10804e-14 1.00001 0
-1.00457e-14 1.00001 0
-6.00618e-15 1.00001 0
9.0172e-15 1.00001 0
1.65993e-15 1.00001 0
1.00704e-14 1.00001 0
-7.61902e-16 1.00001 0
-1.69967e-15 1.00001 0
1.00704e-14 1.00001 0
5.08992e-16 1.00001 0
-1.69967e-15 1.00001 0
-6.88408e-15 1.00001 0
-1.52797e-14 1.00001 0
-2.46239e-15 1.00001 0
1.12868e-14 1.00001 0
-7.97089e-15 1.00001 0
-2.46239e-15 1.00001 0
-5.57498e-15 1.00001 0
-7.97089e-15 1.00001 0
7.26027e-15 1.00001 0
2.05453e-15 1.00001 0
5.18423e-15 1.00001 0
4.23043e-15 1 0
5.26953e-15 1 0
5.18423e-15 1.00001 0
-3.24808e-15 1.00001 0
5.26953e-15 1 0
4.03738e-15 1 0
-5.57498e-15 1.00001 0
-1.03601e-15 1.00001 0
7.26027e-15 1.00001 0
3.49617e-15 1.00001 0
-1.03601e-15 1.00001 0
1.04088e-14 1.00001 0
3.49617e-15 1.00001 0
-5.41878e-16 1.00001 0
-3.24808e-15 1.00001 0
-6.42421e-15 1.00001 0
4.03738e-15 1 0
1.62591e-15 1 0
-6.42421e-15 1.00001 0
-1.00056e-14 1.00001 0
1.62591e-15 1 0
1.17105e-14 1 0
-1.52271e-14 1 0
-1.48002e-16 1 0
1.64779e-14 1 0
1.65194e-14 1 0
-1.48002e-16 1 0
-1.56115e-14 1 0
1.65194e-14 1 0
1.9326e-14 1 0
-7.59403e-15 1 0
-1.72684e-14 1 0
1.40928e-14 1 0
2.05039e-14 1 0
-1.72684e-14 1 0
-1.57522e-14 1 0
2.05039e-14 1 0
8.36245e-15 1 0
-1.56115e-14 1 0
3.51217e-16 1 0
1.9326e-14 1 0
1.6402e-15 1 0
3.51217e-16 1 0
-9.59721e-15 1 0
1.6402e-15 1 0
1.9285e-14 1 0
-1.57522e-14 1 0
-3.50066e-15 1 0
8.36245e-15 1 0
1.20767e-14 1 0
-3.50066e-15 1 0
-1.5882e-14 1 0
1.20767e-14 1 0
6.13836e-15 1 0
-1.85852e-14 1 0
-3.31116e-14 1 0
1.24057e-14 1 0
1.60303e-14 1 0
-3.31116e-14 1 0
-9.84853e-15 1 0
1.60303e-14 1 0
5.1808e-15 1 0
-1.7969e-14 1 0
-2.1241e-14 1 0
1.04372e-14 1 0
1.31568e-14 1 0
-2.1241e-14 1 0
-9.51915e-15 1 0
1.31568e-14 1 0
1.69316e-15 1 0
-9.84853e-15 1 0
-1.53568e-14 1 0
5.1808e-15 1 0
1.46849e-14 1 0
-1.53568e-14 1 0
-1.3029e-15 1 0
1.46849e-14 1 0
4.07109e-15 1 0
-9.51915e-15 1 0
-1.10076e-14 1 0
1.69316e-15 1 0
5.29636e-15 1 0
-1.10076e-14 1 0
-5.72418e-15 1 0
5.29636e-15 1 0
7.3869e-15 1 0
-9.59721e-15 1 0
-1.40436e-14 1 0
1.9285e-14 1 0
1.34961e-14 1 0
-1.40436e-14 1 0
-9.98681e-15 1 0
1.34961e-14 1 0
1.13265e-14 1 0
-1.5882e-14 1 0
-5.23345e-15 1 0
6.13836e-15 1 0
1.18159e-14 1 0
-5.23345e-15 1 0
-1.46365e-15 1 0
1.18159e-14 1 0
7.4064e-15 1 0
-9.98681e-15 1 0
-5.45742e-15 1 0
1.13265e-14 1 0
1.67541e-14 1 0
-5.45742e-15 1 0