# vtk DataFile Version 3.0
#This file was generated by the deal.II library on 2018/10/15 at 19:48:57
ASCII
DATASET UNSTRUCTURED_GRID

POINTS 20480 double
0 0 0
0.19635 0 0
0 0.293775 0
0.19635 0.293775 0
0.19635 0 0
0.392699 0 0
0.19635 0.293775 0
0.392699 0.293775 0
0 0.293775 0
0.19635 0.293775 0
0 0.606595 0
0.19635 0.606595 0
0.19635 0.293775 0
0.392699 0.293775 0
0.19635 0.606595 0
0.392699 0.606595 0
0.392699 0 0
0.589049 0 0
0.392699 0.293775 0
0.589049 0.293775 0
0.589049 0 0
0.785398 0 0
0.589049 0.293775 0
0.785398 0.293775 0
0.392699 0.293775 0
0.589049 0.293775 0
0.392699 0.606595 0
0.589049 0.606595 0
0.589049 0.293775 0
0.785398 0.293775 0
0.589049 0.606595 0
0.785398 0.606595 0
0 0.606595 0
0.19635 0.606595 0
0 0.91913 0
0.19635 0.91913 0
0.19635 0.606595 0
0.392699 0.606595 0
0.19635 0.91913 0
0.392699 0.91913 0
0 0.91913 0
0.19635 0.91913 0
0 1.23254 0
0.19635 1.23254 0
0.19635 0.91913 0
0.392699 0.91913 0
0.19635 1.23254 0
0.392699 1.23254 0
0.392699 0.606595 0
0.589049 0.606595 0
0.392699 0.91913 0
0.589049 0.91913 0
0.589049 0.606595 0
0.785398 0.606595 0
0.589049 0.91913 0
0.785398 0.91913 0
0.392699 0.91913 0
0.589049 0.91913 0
0.392699 1.23254 0
0.589049 1.23254 0
0.589049 0.91913 0
0.785398 0.91913 0
0.589049 1.23254 0
0.785398 1.23254 0
0.785398 0 0
0.981748 0 0
0.785398 0.293775 0
0.981748 0.293775 0
0.981748 0 0
1.1781 0 0
0.981748 0.293775 0
1.1781 0.293775 0
0.785398 0.293775 0
0.981748 0.293775 0
0.785398 0.606595 0
0.981748 0.606595 0
0.981748 0.293775 0
1.1781 0.293775 0
0.981748 0.606595 0
1.1781 0.606595 0
1.1781 0 0
1.37445 0 0
1.1781 0.293775 0
1.37445 0.293775 0
1.37445 0 0
1.5708 0 0
1.37445 0.293775 0
1.5708 0.293775 0
1.1781 0.293775 0
1.37445 0.293775 0
1.1781 0.606595 0
1.37445 0.606595 0
1.37445 0.293775 0
1.5708 0.293775 0
1.37445 0.606595 0
1.5708 0.606595 0
0.785398 0.606595 0
0.981748 0.606595 0
0.785398 0.91913 0
0.981748 0.91913 0
0.981748 0.606595 0
1.1781 0.606595 0
0.981748 0.91913 0
1.1781 0.91913 0
0.785398 0.91913 0
0.981748 0.91913 0
0.785398 1.23254 0
0.981748 1.23254 0
0.981748 0.91913 0
1.1781 0.91913 0
0.981748 1.23254 0
1.1781 1.23254 0
1.1781 0.606595 0
1.37445 0.606595 0
1.1781 0.91913 0
1.37445 0.91913 0
1.37445 0.606595 0
1.5708 0.606595 0
1.37445 0.91913 0
1.5708 0.91913 0
1.1781 0.91913 0
1.37445 0.91913 0
1.1781 1.23254 0
1.37445 1.23254 0
1.37445 0.91913 0
1.5708 0.91913 0
1.37445 1.23254 0
1.5708 1.23254 0
0 1.23254 0
0.19635 1.23254 0
0 1.54572 0
0.19635 1.54572 0
0.19635 1.23254 0
0.392699 1.23254 0
0.19635 1.54572 0
0.392699 1.54572 0
0 1.54572 0
0.19635 1.54572 0
0 1.85898 0
0.19635 1.85898 0
0.19635 1.54572 0
0.392699 1.54572 0
0.19635 1.85898 0
0.392699 1.85898 0
0.392699 1.23254 0
0.589049 1.23254 0
0.392699 1.54572 0
0.589049 1.54572 0
0.589049 1.23254 0
0.785398 1.23254 0
0.589049 1.54572 0
0.785398 1.54572 0
0.392699 1.54572 0
0.589049 1.54572 0
0.392699 1.85898 0
0.589049 1.85898 0
0.589049 1.54572 0
0.785398 1.54572 0
0.589049 1.85898 0
0.785398 1.85898 0
0 1.85898 0
0.19635 1.85898 0
0 2.17219 0
0.19635 2.17219 0
0.19635 1.85898 0
0.392699 1.85898 0
0.19635 2.17219 0
0.392699 2.17219 0
0 2.17219 0
0.19635 2.17219 0
0 2.4854 0
0.19635 2.4854 0
0.19635 2.17219 0
0.392699 2.17219 0
0.19635 2.4854 0
0.392699 2.4854 0
0.392699 1.85898 0
0.589049 1.85898 0
0.392699 2.17219 0
0.589049 2.17219 0
0.589049 1.85898 0
0.785398 1.85898 0
0.589049 2.17219 0
0.785398 2.17219 0
0.392699 2.17219 0
0.589049 2.17219 0
0.392699 2.4854 0
0.589049 2.4854 0
0.589049 2.17219 0
0.785398 2.17219 0
0.589049 2.4854 0
0.785398 2.4854 0
0.785398 1.23254 0
0.981748 1.23254 0
0.785398 1.54572 0
0.981748 1.54572 0
0.981748 1.23254 0
1.1781 1.23254 0
0.981748 1.54572 0
1.1781 1.54572 0
0.785398 1.54572 0
0.981748 1.54572 0
0.785398 1.85898 0
0.981748 1.85898 0
0.981748 1.54572 0
1.1781 1.54572 0
0.981748 1.85898 0
1.1781 1.85898 0
1.1781 1.23254 0
1.37445 1.23254 0
1.1781 1.54572 0
1.37445 1.54572 0
1.37445 1.23254 0
1.5708 1.23254 0
1.37445 1.54572 0
1.5708 1.54572 0
1.1781 1.54572 0
1.37445 1.54572 0
1.1781 1.85898 0
1.37445 1.85898 0
1.37445 1.54572 0
1.5708 1.54572 0
1.37445 1.85898 0
1.5708 1.85898 0
0.785398 1.85898 0
0.981748 1.85898 0
0.785398 2.17219 0
0.981748 2.17219 0
0.981748 1.85898 0
1.1781 1.85898 0
0.981748 2.17219 0
1.1781 2.17219 0
0.785398 2.17219 0
0.981748 2.17219 0
0.785398 2.4854 0
0.981748 2.4854 0
0.981748 2.17219 0
1.1781 2.17219 0
0.981748 2.4854 0
1.1781 2.4854 0
1.1781 1.85898 0
1.37445 1.85898 0
1.1781 2.17219 0
1.37445 2.17219 0
1.37445 1.85898 0
1.5708 1.85898 0
1.37445 2.17219 0
1.5708 2.17219 0
1.1781 2.17219 0
1.37445 2.17219 0
1.1781 2.4854 0
1.37445 2.4854 0
1.37445 2.17219 0
1.5708 2.17219 0
1.37445 2.4854 0
1.5708 2.4854 0
1.5708 0 0
1.76715 0 0
1.5708 0.293775 0
1.76715 0.293775 0
1.76715 0 0
1.9635 0 0
1.76715 0.293775 0
1.9635 0.293775 0
1.5708 0.293775 0
1.76715 0.293775 0
1.5708 0.606595 0
1.76715 0.606595 0
1.76715 0.293775 0
1.9635 0.293775 0
1.76715 0.606595 0
1.9635 0.606595 0
1.9635 0 0
2.15984 0 0
1.9635 0.293775 0
2.15984 0.293775 0
2.15984 0 0
2.35619 0 0
2.15984 0.293775 0
2.35619 0.293775 0
1.9635 0.293775 0
2.15984 0.293775 0
1.9635 0.606595 0
2.15984 0.606595 0
2.15984 0.293775 0
2.35619 0.293775 0
2.15984 0.606595 0
2.35619 0.606595 0
1.5708 0.606595 0
1.76715 0.606595 0
1.5708 0.91913 0
1.76715 0.91913 0
1.76715 0.606595 0
1.9635 0.606595 0
1.76715 0.91913 0
1.9635 0.91913 0
1.5708 0.91913 0
1.76715 0.91913 0
1.5708 1.23254 0
1.76715 1.23254 0
1.76715 0.91913 0
1.9635 0.91913 0
1.76715 1.23254 0
1.9635 1.23254 0
1.9635 0.606595 0
2.15984 0.606595 0
1.9635 0.91913 0
2.15984 0.91913 0
2.15984 0.606595 0
2.35619 0.606595 0
2.15984 0.91913 0
2.35619 0.91913 0
1.9635 0.91913 0
2.15984 0.91913 0
1.9635 1.23254 0
2.15984 1.23254 0
2.15984 0.91913 0
2.35619 0.91913 0
2.15984 1.23254 0
2.35619 1.23254 0
2.35619 0 0
2.55254 0 0
2.35619 0.293775 0
2.55254 0.293775 0
2.55254 0 0
2.74889 0 0
2.55254 0.293775 0
2.74889 0.293775 0
2.35619 0.293775 0
2.55254 0.293775 0
2.35619 0.606595 0
2.55254 0.606595 0
2.55254 0.293775 0
2.74889 0.293775 0
2.55254 0.606595 0
2.74889 0.606595 0
2.74889 0 0
2.94524 0 0
2.74889 0.293775 0
2.94524 0.293775 0
2.94524 0 0
3.14159 0 0
2.94524 0.293775 0
3.14159 0.293775 0
2.74889 0.293775 0
2.94524 0.293775 0
2.74889 0.606595 0
2.94524 0.606595 0
2.94524 0.293775 0
3.14159 0.293775 0
2.94524 0.606595 0
3.14159 0.606595 0
2.35619 0.606595 0
2.55254 0.606595 0
2.35619 0.91913 0
2.55254 0.91913 0
2.55254 0.606595 0
2.74889 0.606595 0
2.55254 0.91913 0
2.74889 0.91913 0
2.35619 0.91913 0
2.55254 0.91913 0
2.35619 1.23254 0
2.55254 1.23254 0
2.55254 0.91913 0
2.74889 0.91913 0
2.55254 1.23254 0
2.74889 1.23254 0
2.74889 0.606595 0
2.94524 0.606595 0
2.74889 0.91913 0
2.94524 0.91913 0
2.94524 0.606595 0
3.14159 0.606595 0
2.94524 0.91913 0
3.14159 0.91913 0
2.74889 0.91913 0
2.94524 0.91913 0
2.74889 1.23254 0
2.94524 1.23254 0
2.94524 0.91913 0
3.14159 0.91913 0
2.94524 1.23254 0
3.14159 1.23254 0
1.5708 1.23254 0
1.76715 1.23254 0
1.5708 1.54572 0
1.76715 1.54572 0
1.76715 1.23254 0
1.9635 1.23254 0
1.76715 1.54572 0
1.9635 1.54572 0
1.5708 1.54572 0
1.76715 1.54572 0
1.5708 1.85898 0
1.76715 1.85898 0
1.76715 1.54572 0
1.9635 1.54572 0
1.76715 1.85898 0
1.9635 1.85898 0
1.9635 1.23254 0
2.15984 1.23254 0
1.9635 1.54572 0
2.15984 1.54572 0
2.15984 1.23254 0
2.35619 1.23254 0
2.15984 1.54572 0
2.35619 1.54572 0
1.9635 1.54572 0
2.15984 1.54572 0
1.9635 1.85898 0
2.15984 1.85898 0
2.15984 1.54572 0
2.35619 1.54572 0
2.15984 1.85898 0
2.35619 1.85898 0
1.5708 1.85898 0
1.76715 1.85898 0
1.5708 2.17219 0
1.76715 2.17219 0
1.76715 1.85898 0
1.9635 1.85898 0
1.76715 2.17219 0
1.9635 2.17219 0
1.5708 2.17219 0
1.76715 2.17219 0
1.5708 2.4854 0
1.76715 2.4854 0
1.76715 2.17219 0
1.9635 2.17219 0
1.76715 2.4854 0
1.9635 2.4854 0
1.9635 1.85898 0
2.15984 1.85898 0
1.9635 2.17219 0
2.15984 2.17219 0
2.15984 1.85898 0
2.35619 1.85898 0
2.15984 2.17219 0
2.35619 2.17219 0
1.9635 2.17219 0
2.15984 2.17219 0
1.9635 2.4854 0
2.15984 2.4854 0
2.15984 2.17219 0
2.35619 2.17219 0
2.15984 2.4854 0
2.35619 2.4854 0
2.35619 1.23254 0
2.55254 1.23254 0
2.35619 1.54572 0
2.55254 1.54572 0
2.55254 1.23254 0
2.74889 1.23254 0
2.55254 1.54572 0
2.74889 1.54572 0
2.35619 1.54572 0
2.55254 1.54572 0
2.35619 1.85898 0
2.55254 1.85898 0
2.55254 1.54572 0
2.74889 1.54572 0
2.55254 1.85898 0
2.74889 1.85898 0
2.74889 1.23254 0
2.94524 1.23254 0
2.74889 1.54572 0
2.94524 1.54572 0
2.94524 1.23254 0
3.14159 1.23254 0
2.94524 1.54572 0
3.14159 1.54572 0
2.74889 1.54572 0
2.94524 1.54572 0
2.74889 1.85898 0
2.94524 1.85898 0
2.94524 1.54572 0
3.14159 1.54572 0
2.94524 1.85898 0
3.14159 1.85898 0
2.35619 1.85898 0
2.55254 1.85898 0
2.35619 2.17219 0
2.55254 2.17219 0
2.55254 1.85898 0
2.74889 1.85898 0
2.55254 2.17219 0
2.74889 2.17219 0
2.35619 2.17219 0
2.55254 2.17219 0
2.35619 2.4854 0
2.55254 2.4854 0
2.55254 2.17219 0
2.74889 2.17219 0
2.55254 2.4854 0
2.74889 2.4854 0
2.74889 1.85898 0
2.94524 1.85898 0
2.74889 2.17219 0
2.94524 2.17219 0
2.94524 1.85898 0
3.14159 1.85898 0
2.94524 2.17219 0
3.14159 2.17219 0
2.74889 2.17219 0
2.94524 2.17219 0
2.74889 2.4854 0
2.94524 2.4854 0
2.94524 2.17219 0
3.14159 2.17219 0
2.94524 2.4854 0
3.14159 2.4854 0
0 2.4854 0
0.19635 2.4854 0
0 2.79859 0
0.19635 2.79859 0
0.19635 2.4854 0
0.392699 2.4854 0
0.19635 2.79859 0
0.392699 2.79859 0
0 2.79859 0
0.19635 2.79859 0
0 3.11177 0
0.19635 3.11177 0
0.19635 2.79859 0
0.392699 2.79859 0
0.19635 3.11177 0
0.392699 3.11177 0
0.392699 2.4854 0
0.589049 2.4854 0
0.392699 2.79859 0
0.589049 2.79859 0
0.589049 2.4854 0
0.785398 2.4854 0
0.589049 2.79859 0
0.785398 2.79859 0
0.392699 2.79859 0
0.589049 2.79859 0
0.392699 3.11177 0
0.589049 3.11177 0
0.589049 2.79859 0
0.785398 2.79859 0
0.589049 3.11177 0
0.785398 3.11177 0
0 3.11177 0
0.19635 3.11177 0
0 3.42493 0
0.19635 3.42493 0
0.19635 3.11177 0
0.392699 3.11177 0
0.19635 3.42493 0
0.392699 3.42493 0
0 3.42493 0
0.19635 3.42493 0
0 3.73808 0
0.19635 3.73808 0
0.19635 3.42493 0
[...]
POINT_DATA 20480
VECTORS uf double
0 1 0
-4.50476e-15 1 0
0 1.00001 0
6.94507e-15 1.00001 0
-4.50476e-15 1 0
2.59473e-15 1 0
6.94507e-15 1.00001 0
-1.90252e-15 1.00001 0
0 1.00001 0
4.36086e-16 1.00001 0
0 1.00001 0
-2.04391e-14 1.00001 0
4.36086e-16 1.00001 0
9.72526e-15 1.00001 0
-2.04391e-14 1.00001 0
-8.34494e-15 1.00001 0
2.59473e-15 1 0
6.97086e-15 1 0
-1.90252e-15 1.00001 0
2.90008e-15 1.00001 0
6.97086e-15 1 0
4.41767e-15 1 0
2.90008e-15 1.00001 0
-8.92293e-15 1.00001 0
9.72526e-15 1.00001 0
-7.4232e-15 1.00001 0
-8.34494e-15 1.00001 0
3.1571e-16 1.00001 0
-7.4232e-15 1.00001 0
6.60271e-15 1.00001 0
3.1571e-16 1.00001 0
-3.771e-15 1.00001 0
0 1.00001 0
2.28188e-14 1.00001 0
0 1.00001 0
2.09236e-14 1.00001 0
2.28188e-14 1.00001 0
-3.86694e-15 1.00001 0
2.09236e-14 1.00001 0
4.0437e-15 1.00001 0
0 1.00001 0
-1.10448e-14 1.00001 0
0 1.00001 0
-1.80635e-14 1.00001 0
-1.10448e-14 1.00001 0
-8.76362e-15 1.00001 0
-1.80635e-14 1.00001 0
5.97693e-15 1.00001 0
-3.86694e-15 1.00001 0
4.80084e-16 1.00001 0
4.0437e-15 1.00001 0
-6.63374e-15 1.00001 0
4.80084e-16 1.00001 0
5.74048e-15 1.00001 0
-6.63374e-15 1.00001 0
-9.16505e-15 1.00001 0
-8.76362e-15 1.00001 0
8.5166e-15 1.00001 0
5.97693e-15 1.00001 0
-1.58613e-15 1.00001 0
8.5166e-15 1.00001 0
1.09518e-14 1.00001 0
-1.58613e-15 1.00001 0
-6.05683e-15 1.00001 0
4.41767e-15 1 0
-1.08222e-16 1 0
-8.92293e-15 1.00001 0
1.21744e-15 1.00001 0
-1.08222e-16 1 0
-5.03328e-15 1 0
1.21744e-15 1.00001 0
2.26108e-14 1.00001 0
6.60271e-15 1.00001 0
-7.76771e-15 1.00001 0
-3.771e-15 1.00001 0
7.01266e-15 1.00001 0
-7.76771e-15 1.00001 0
-1.79128e-14 1.00001 0
7.01266e-15 1.00001 0
9.80205e-15 1.00001 0
-5.03328e-15 1 0
-3.32015e-15 1 0
2.26108e-14 1.00001 0
9.77377e-15 1.00001 0
-3.32015e-15 1 0
-5.91633e-15 1 0
9.77377e-15 1.00001 0
-4.37384e-15 1.00001 0
-1.79128e-14 1.00001 0
-6.07045e-15 1.00001 0
9.80205e-15 1.00001 0
3.46563e-15 1.00001 0
-6.07045e-15 1.00001 0
1.36383e-14 1.00001 0
3.46563e-15 1.00001 0
-2.19327e-16 1.00001 0
5.74048e-15 1.00001 0
1.90038e-16 1.00001 0
-9.16505e-15 1.00001 0
4.60273e-15 1.00001 0
1.90038e-16 1.00001 0
1.78016e-15 1.00001 0
4.60273e-15 1.00001 0
-3.39173e-15 1.00001 0
1.09518e-14 1.00001 0
-4.14694e-15 1.00001 0
-6.05683e-15 1.00001 0
3.00891e-15 1.00001 0
-4.14694e-15 1.00001 0
-4.65463e-15 1.00001 0
3.00891e-15 1.00001 0
2.48043e-16 1.00001 0
1.78016e-15 1.00001 0
-1.90806e-15 1.00001 0
-3.39173e-15 1.00001 0
3.65311e-16 1.00001 0
-1.90806e-15 1.00001 0
-5.87987e-15 1.00001 0
3.65311e-16 1.00001 0
1.56684e-14 1.00001 0
-4.65463e-15 1.00001 0
2.83203e-15 1.00001 0
2.48043e-16 1.00001 0
-2.02588e-15 1.00001 0
2.83203e-15 1.00001 0
-2.04224e-15 1.00001 0
-2.02588e-15 1.00001 0
-1.13958e-14 1.00001 0
0 1.00001 0
9.87047e-15 1.00001 0
0 1.00001 0
-9.77679e-16 1.00001 0
9.87047e-15 1.00001 0
2.49858e-15 1.00001 0
-9.77679e-16 1.00001 0
7.90693e-15 1.00001 0
0 1.00001 0
-1.59331e-14 1.00001 0
0 1.00001 0
-1.75295e-14 1.00001 0
-1.59331e-14 1.00001 0
-1.47456e-14 1.00001 0
-1.75295e-14 1.00001 0
1.31437e-14 1.00001 0
2.49858e-15 1.00001 0
9.44248e-16 1.00001 0
7.90693e-15 1.00001 0
-1.20563e-14 1.00001 0
9.44248e-16 1.00001 0
-3.82711e-15 1.00001 0
-1.20563e-14 1.00001 0
6.2587e-15 1.00001 0
-1.47456e-14 1.00001 0
4.0753e-15 1.00001 0
1.31437e-14 1.00001 0
-2.50112e-16 1.00001 0
4.0753e-15 1.00001 0
-6.71886e-15 1.00001 0
-2.50112e-16 1.00001 0
4.61194e-15 1.00001 0
0 1.00001 0
1.65827e-14 1.00001 0
0 1.00001 0
2.54162e-14 1.00001 0
1.65827e-14 1.00001 0
1.09038e-15 1.00001 0
2.54162e-14 1.00001 0
-1.42147e-14 1.00001 0
0 1.00001 0
-1.98854e-14 1.00001 0
0 1.00001 0
-1.18818e-14 1.00001 0
-1.98854e-14 1.00001 0
1.49994e-14 1.00001 0
-1.18818e-14 1.00001 0
1.04651e-14 1.00001 0
1.09038e-15 1.00001 0
1.28004e-14 1.00001 0
-1.42147e-14 1.00001 0
-5.16075e-15 1.00001 0
1.28004e-14 1.00001 0
-3.36759e-15 1.00001 0
-5.16075e-15 1.00001 0
9.5552e-16 1.00001 0
1.49994e-14 1.00001 0
4.82153e-15 1.00001 0
1.04651e-14 1.00001 0
-8.31503e-15 1.00001 0
4.82153e-15 1.00001 0
-6.14187e-15 1.00001 0
-8.31503e-15 1.00001 0
1.93873e-14 1.00001 0
-3.82711e-15 1.00001 0
-5.09503e-15 1.00001 0
6.2587e-15 1.00001 0
6.49919e-15 1.00001 0
-5.09503e-15 1.00001 0
1.40501e-15 1.00001 0
6.49919e-15 1.00001 0
3.4414e-15 1.00001 0
-6.71886e-15 1.00001 0
-6.06611e-15 1.00001 0
4.61194e-15 1.00001 0
8.06351e-15 1.00001 0
-6.06611e-15 1.00001 0
-9.72737e-15 1.00001 0
8.06351e-15 1.00001 0
5.97149e-15 1.00001 0
1.40501e-15 1.00001 0
-6.28245e-16 1.00001 0
3.4414e-15 1.00001 0
-1.21718e-15 1.00001 0
-6.28245e-16 1.00001 0
8.36079e-15 1.00001 0
-1.21718e-15 1.00001 0
-6.395e-15 1.00001 0
-9.72737e-15 1.00001 0
6.33033e-15 1.00001 0
5.97149e-15 1.00001 0
-5.28772e-16 1.00001 0
6.33033e-15 1.00001 0
4.43906e-15 1.00001 0
-5.28772e-16 1.00001 0
-1.35869e-15 1.00001 0
-3.36759e-15 1.00001 0
-2.91554e-15 1.00001 0
9.5552e-16 1.00001 0
2.26264e-15 1.00001 0
-2.91554e-15 1.00001 0
3.97461e-15 1.00001 0
2.26264e-15 1.00001 0
3.96136e-15 1.00001 0
-6.14187e-15 1.00001 0
-1.31873e-14 1.00001 0
1.93873e-14 1.00001 0
1.11676e-14 1.00001 0
-1.31873e-14 1.00001 0
-1.27802e-14 1.00001 0
1.11676e-14 1.00001 0
8.14523e-15 1.00001 0
3.97461e-15 1.00001 0
4.77546e-15 1.00001 0
3.96136e-15 1.00001 0
-1.00055e-14 1.00001 0
4.77546e-15 1.00001 0
-1.8663e-15 1.00001 0
-1.00055e-14 1.00001 0
-1.49875e-15 1.00001 0
-1.27802e-14 1.00001 0
7.01345e-15 1.00001 0
8.14523e-15 1.00001 0
-1.88098e-15 1.00001 0
7.01345e-15 1.00001 0
2.30949e-15 1.00001 0
-1.88098e-15 1.00001 0
7.79349e-15 1.00001 0
-5.91633e-15 1 0
-5.53894e-15 1 0
-4.37384e-15 1.00001 0
5.06132e-15 1.00001 0
-5.53894e-15 1 0
-7.01643e-15 1 0
5.06132e-15 1.00001 0
8.63126e-15 1.00001 0
1.36383e-14 1.00001 0
3.4028e-15 1.00001 0
-2.19327e-16 1.00001 0
2.67943e-15 1.00001 0
3.4028e-15 1.00001 0
4.99285e-15 1.00001 0
2.67943e-15 1.00001 0
1.18054e-15 1.00001 0
-7.01643e-15 1 0
4.86025e-15 1 0
8.63126e-15 1.00001 0
-8.86399e-15 1.00001 0
4.86025e-15 1 0
7.89825e-15 1 0
-8.86399e-15 1.00001 0
-1.02507e-14 1.00001 0
4.99285e-15 1.00001 0
4.8969e-16 1.00001 0
1.18054e-15 1.00001 0
3.79198e-15 1.00001 0
4.8969e-16 1.00001 0
-2.23039e-15 1.00001 0
3.79198e-15 1.00001 0
4.65335e-15 1.00001 0
-5.87987e-15 1.00001 0
-8.30968e-15 1.00001 0
1.56684e-14 1.00001 0
2.0617e-14 1.00001 0
-8.30968e-15 1.00001 0
2.89084e-15 1.00001 0
2.0617e-14 1.00001 0
-4.30515e-15 1.00001 0
-2.04224e-15 1.00001 0
-2.44701e-14 1.00001 0
-1.13958e-14 1.00001 0
1.88194e-14 1.00001 0
-2.44701e-14 1.00001 0
-3.54956e-15 1.00001 0
1.88194e-14 1.00001 0
3.18753e-15 1.00001 0
2.89084e-15 1.00001 0
6.78805e-15 1.00001 0
-4.30515e-15 1.00001 0
4.75436e-15 1.00001 0
6.78805e-15 1.00001 0
6.04038e-15 1.00001 0
4.75436e-15 1.00001 0
-1.02242e-14 1.00001 0
-3.54956e-15 1.00001 0
-7.91832e-15 1.00001 0
3.18753e-15 1.00001 0
5.7701e-15 1.00001 0
-7.91832e-15 1.00001 0
1.58137e-14 1.00001 0
5.7701e-15 1.00001 0
-9.62133e-15 1.00001 0
7.89825e-15 1 0
-4.21369e-15 1 0
-1.02507e-14 1.00001 0
8.18793e-15 1.00001 0
-4.21369e-15 1 0
-1.33671e-14 1 0
8.18793e-15 1.00001 0
2.02678e-14 1.00001 0
-2.23039e-15 1.00001 0
-2.27076e-15 1.00001 0
4.65335e-15 1.00001 0
5.16999e-15 1.00001 0
-2.27076e-15 1.00001 0
1.76867e-15 1.00001 0
5.16999e-15 1.00001 0
5.12279e-16 1.00001 0
-1.33671e-14 1 0
9.82171e-16 1 0
2.02678e-14 1.00001 0
1.11987e-14 1.00001 0
9.82171e-16 1 0
7.66098e-15 1 0
1.11987e-14 1.00001 0
-4.50814e-15 1.00001 0
1.76867e-15 1.00001 0
-5.60298e-15 1.00001 0
5.12279e-16 1.00001 0
1.06758e-14 1.00001 0
-5.60298e-15 1.00001 0
3.17778e-15 1.00001 0
1.06758e-14 1.00001 0
6.08296e-15 1.00001 0
6.04038e-15 1.00001 0
-6.15349e-15 1.00001 0
-1.02242e-14 1.00001 0
-5.96551e-15 1.00001 0
-6.15349e-15 1.00001 0
-4.11758e-15 1.00001 0
-5.96551e-15 1.00001 0
-4.42369e-15 1.00001 0
1.58137e-14 1.00001 0
9.89064e-15 1.00001 0
-9.62133e-15 1.00001 0
-3.67277e-16 1.00001 0
9.89064e-15 1.00001 0
1.25119e-14 1.00001 0
-3.67277e-16 1.00001 0
-7.05789e-15 1.00001 0
-4.11758e-15 1.00001 0
-1.36118e-14 1.00001 0
-4.42369e-15 1.00001 0
1.05162e-14 1.00001 0
-1.36118e-14 1.00001 0
-8.30221e-16 1.00001 0
1.05162e-14 1.00001 0
1.85481e-15 1.00001 0
1.25119e-14 1.00001 0
-1.99785e-14 1.00001 0
-7.05789e-15 1.00001 0
2.8108e-14 1.00001 0
-1.99785e-14 1.00001 0
3.61143e-15 1.00001 0
2.8108e-14 1.00001 0
2.37465e-15 1.00001 0
8.36079e-15 1.00001 0
-1.27453e-14 1.00001 0
-6.395e-15 1.00001 0
1.29292e-14 1.00001 0
-1.27453e-14 1.00001 0
8.29453e-16 1.00001 0
1.29292e-14 1.00001 0
1.7267e-15 1.00001 0
4.43906e-15 1.00001 0
-1.5767e-14 1.00001 0
-1.35869e-15 1.00001 0
9.28716e-15 1.00001 0
-1.5767e-14 1.00001 0
-1.09291e-15 1.00001 0
9.28716e-15 1.00001 0
3.96517e-15 1.00001 0
8.29453e-16 1.00001 0
-1.30587e-14 1.00001 0
1.7267e-15 1.00001 0
1.68052e-14 1.00001 0
-1.30587e-14 1.00001 0
8.54043e-15 1.00001 0
1.68052e-14 1.00001 0
-2.21558e-15 1.00001 0
-1.09291e-15 1.00001 0
-2.31997e-14 1.00001 0
3.96517e-15 1.00001 0
1.84393e-14 1.00001 0
-2.31997e-14 1.00001 0
1.01993e-15 1.00001 0
1.84393e-14 1.00001 0
-4.46547e-15 1.00001 0
-1.8663e-15 1.00001 0
1.662e-15 1.00001 0
-1.49875e-15 1.00001 0
4.27829e-15 1.00001 0
1.662e-15 1.00001 0
3.44695e-15 1.00001 0
4.27829e-15 1.00001 0
2.64458e-16 1.00001 0
2.30949e-15 1.00001 0
-8.39371e-15 1.00001 0
7.79349e-15 1.00001 0
1.1039e-14 1.00001 0
-8.39371e-15 1.00001 0
-1.53707e-14 1.00001 0
1.1039e-14 1.00001 0
1.60161e-14 1.00001 0
3.44695e-15 1.00001 0
-1.10376e-14 1.00001 0
2.64458e-16 1.00001 0
1.44926e-14 1.00001 0
-1.10376e-14 1.00001 0
1.34131e-14 1.00001 0
1.44926e-14 1.00001 0
-1.35243e-14 1.00001 0
-1.53707e-14 1.00001 0
-6.04672e-15 1.00001 0
1.60161e-14 1.00001 0
7.72194e-15 1.00001 0
-6.04672e-15 1.00001 0
5.78985e-15 1.00001 0
7.72194e-15 1.00001 0
-3.29174e-15 1.00001 0
8.54043e-15 1.00001 0
8.49251e-15 1.00001 0
-2.21558e-15 1.00001 0
-4.46005e-15 1.00001 0
8.49251e-15 1.00001 0
-9.18949e-16 1.00001 0
-4.46005e-15 1.00001 0
1.1824e-14 1.00001 0
1.01993e-15 1.00001 0
7.48049e-15 1.00001 0
-4.46547e-15 1.00001 0
-9.20532e-15 1.00001 0
7.48049e-15 1.00001 0
-4.85613e-15 1.00001 0
-9.20532e-15 1.00001 0
-4.20944e-15 1.00001 0
-9.18949e-16 1.00001 0
-1.4668e-14 1.00001 0
1.1824e-14 1.00001 0
5.629e-16 1.00001 0
-1.4668e-14 1.00001 0
-4.11548e-15 1.00001 0
5.629e-16 1.00001 0
-1.11127e-15 1.00001 0
-4.85613e-15 1.00001 0
1.56857e-14 1.00001 0
-4.20944e-15 1.00001 0
-1.10809e-14 1.00001 0
1.56857e-14 1.00001 0
-6.64344e-16 1.00001 0
-1.10809e-14 1.00001 0
3.43383e-15 1.00001 0
1.34131e-14 1.00001 0
1.83743e-15 1.00001 0
-1.35243e-14 1.00001 0
-3.44906e-15 1.00001 0
1.83743e-15 1.00001 0
9.49644e-15 1.00001 0
-3.44906e-15 1.00001 0
-4.73002e-15 1.00001 0
5.78985e-15 1.00001 0
6.62394e-15 1.00001 0
-3.29174e-15 1.00001 0
-2.51165e-15 1.00001 0
6.62394e-15 1.00001 0
-4.93302e-15 1.00001 0
-2.51165e-15 1.00001 0
-1.33879e-15 1.00001 0
9.49644e-15 1.00001 0
8.49578e-16 1.00001 0
-4.73002e-15 1.00001 0
7.71009e-16 1.00001 0
8.49578e-16 1.00001 0
-1.26534e-14 1.00001 0
7.71009e-16 1.00001 0
5.7469e-15 1.00001 0
-4.93302e-15 1.00001 0
5.46853e-15 1.00001 0
-1.33879e-15 1.00001 0
-1.62337e-14 1.00001 0
5.46853e-15 1.00001 0
-2.63237e-15 1.00001 0
-1.62337e-14 1.00001 0
1.08556e-14 1.00001 0
0 1.00001 0
1.34214e-14 1.00001 0
0 1.00001 0
1.27294e-14 1.00001 0
1.34214e-14 1.00001 0
-2.48713e-14 1.00001 0
1.27294e-14 1.00001 0
-5.45735e-15 1.00001 0
0 1.00001 0
5.6146e-15 1.00001 0
0 1.00001 0
-4.86334e-16 1.00001 0
5.6146e-15 1.00001 0
-2.48631e-14 1.00001 0
-4.86334e-16 1.00001 0
4.80208e-15 1.00001 0
-2.48713e-14 1.00001 0
2.73875e-15 1.00001 0
-5.45735e-15 1.00001 0
-5.79429e-15 1.00001 0
2.73875e-15 1.00001 0
-1.43065e-14 1.00001 0
-5.79429e-15 1.00001 0
3.5506e-16 1.00001 0
-2.48631e-14 1.00001 0
-1.79246e-14 1.00001 0
4.80208e-15 1.00001 0
1.88244e-15 1.00001 0
-1.79246e-14 1.00001 0
-1.82961e-16 1.00001 0
1.88244e-15 1.00001 0
4.11654e-15 1.00001 0
0 1.00001 0
-3.65275e-14 1.00001 0
0 1.00001 0
-3.94725e-14 1.00001 0
-3.65275e-14 1.00001 0
1.76884e-14 1.00001 0
-3.94725e-14 1.00001 0
1.33637e-14 1.00001 0
0 1.00001 0
3.83145e-14 1.00001 0
0 1.00001 0
5.56841e-14 1.00001 0
3.83145e-14 1.00001 0
-4.4802e-15 1.00001 0
5.56841e-14 1.00001 0
-1.34276e-16 1.00001 0
1.76884e-14 1.00001 0
1.4335e-15 1.00001 0
1.33637e-14 1.00001 0
-1.26022e-15 1.00001 0
1.4335e-15 1.00001 0
-4.26562e-14 1.00001 0
-1.26022e-15 1.00001 0
-1.81554e-14 1.00001 0
-4.4802e-15 1.00001 0
4.48361e-15 1.00001 0
-1.34276e-16 1.00001 0
2.4944e-15 1.00001 0
4.48361e-15 1.00001 0
2.7051e-14 1.00001 0
2.4944e-15 1.00001 0
1.63293e-14 1.00001 0
-1.43065e-14 1.00001 0
-7.30141e-15 1.00001 0
3.5506e-16 1.00001 0
-2.23972e-15 1.00001 0
-7.30141e-15 1.00001 0
-2.43361e-15 1.00001 0
-2.23972e-15 1.00001 0
5.14361e-15 1.00001 0
-1.82961e-16 1.00001 0
-3.47359e-15 1.00001 0
4.11654e-15 1.00001 0
1.12088e-15 1.00001 0
-3.47359e-15 1.00001 0
-7.44846e-15 1.00001 0
1.12088e-15 1.00001 0
1.32425e-14 1.00001 0
-2.43361e-15 1.00001 0
-6.87818e-15 1.00001 0
5.14361e-15 1.00001 0
7.26235e-15 1.00001 0
-6.87818e-15 1.00001 0
-9.31988e-15 1.00001 0
7.26235e-15 1.00001 0
1.27746e-15 1.00001 0
-7.44846e-15 1.00001 0
3.02658e-15 1.00001 0
1.32425e-14 1.00001 0
-7.69772e-15 1.00001 0
3.02658e-15 1.00001 0
2.1582e-15 1.00001 0
-7.69772e-15 1.00001 0
-2.97243e-15 1.00001 0
-4.26562e-14 1.00001 0
5.33884e-15 1.00001 0
-1.81554e-14 1.00001 0
-8.8592e-15 1.00001 0
5.33884e-15 1.00001 0
-1.64621e-14 1.00001 0
-8.8592e-15 1.00001 0
3.07574e-15 1.00001 0
2.7051e-14 1.00001 0
9.49631e-16 1.00001 0
1.63293e-14 1.00001 0
7.28917e-15 1.00001 0
9.49631e-16 1.00001 0
4.60484e-15 1.00001 0
7.28917e-15 1.00001 0
-9.51998e-15 1.00001 0
-1.64621e-14 1.00001 0
6.13687e-15 1.00001 0
3.07574e-15 1.00001 0
5.37603e-15 1.00001 0
6.13687e-15 1.00001 0
5.26584e-15 1.00001 0
5.37603e-15 1.00001 0
3.68682e-16 1.00001 0
4.60484e-15 1.00001 0
-1.26914e-14 1.00001 0
-9.51998e-15 1.00001 0
7.32826e-15 1.00001 0
-1.26914e-14 1.00001 0
-4.01962e-15 1.00001 0
7.32826e-15 1.00001 0
1.75163e-15 1.00001 0
0 1.00001 0
-3.44932e-14 1.00001 0
0 1.00001 0
-9.76227e-15 1.00001 0
-3.44932e-14 1.00001 0
-1.08165e-15 1.00001 0
-9.76227e-15 1.00001 0
-7.25141e-15 1.00001 0
0 1.00001 0
1.81754e-14 1.00001 0
0 1.00001 0
2.22925e-14 1.00001 0
1.81754e-14 1.00001 0
-9.09015e-15 1.00001 0
2.22925e-14 1.00001 0
-1.85297e-14 1.00001 0
-1.08165e-15 1.00001 0
-6.13171e-15 1.00001 0
-7.25141e-15 1.00001 0
-4.85101e-15 1.00001 0
-6.13171e-15 1.00001 0
6.12053e-15 1.00001 0
-4.85101e-15 1.00001 0
-3.51533e-15 1.00001 0
-9.09015e-15 1.00001 0
5.20626e-15 1.00001 0
-1.85297e-14 1.00001 0
8.12031e-15 1.00001 0
5.20626e-15 1.00001 0
1.01217e-14 1.00001 0
8.12031e-15 1.00001 0
1.2314e-14 1.00001 0
0 1.00001 0
-3.04049e-14 1.00001 0
0 1 0
-3.1153e-14 1 0
-3.04049e-14 1.00001 0
-1.36649e-15 1.00001 0
-3.1153e-14 1 0
1.1239e-15 1 0
0 1 0
1.57868e-14 1 0
0 1 0
9.10608e-15 1 0
1.57868e-14 1 0
-9.78506e-15 1 0
9.10608e-15 1 0
-4.09413e-15 1 0
-1.36649e-15 1.00001 0
-2.51905e-14 1.00001 0
1.1239e-15 1 0
-1.02463e-14 1 0
-2.51905e-14 1.00001 0
-1.64274e-14 1.00001 0
-1.02463e-14 1 0
-1.83314e-14 1 0
-9.78506e-15 1 0
-7.38632e-15 1 0
-4.09413e-15 1 0
4.65592e-15 1 0
-7.38632e-15 1 0
-1.92042e-14 1 0
4.65592e-15 1 0
-1.78125e-14 1 0
6.12053e-15 1.00001 0
-5.28435e-14 1.00001 0
-3.51533e-15 1.00001 0
-2.89282e-14 1.00001 0
-5.28435e-14 1.00001 0
5.22517e-15 1.00001 0
-2.89282e-14 1.00001 0
9.33058e-15 1.00001 0
1.01217e-14 1.00001 0
2.21321e-14 1.00001 0
1.2314e-14 1.00001 0
4.02481e-14 1.00001 0
2.21321e-14 1.00001 0
-8.60961e-15 1.00001 0
4.02481e-14 1.00001 0
-3.32613e-15 1.00001 0
5.22517e-15 1.00001 0
-8.73013e-15 1.00001 0
9.33058e-15 1.00001 0
7.87959e-15 1.00001 0
-8.73013e-15 1.00001 0
-8.18311e-15 1.00001 0
7.87959e-15 1.00001 0
7.6801e-15 1.00001 0
-8.60961e-15 1.00001 0
-5.50717e-15 1.00001 0
-3.32613e-15 1.00001 0
-1.33786e-15 1.00001 0
-5.50717e-15 1.00001 0
-1.34022e-14 1.00001 0
-1.33786e-15 1.00001 0
1.31352e-14 1.00001 0
-1.64274e-14 1.00001 0
-1.77794e-14 1.00001 0
-1.83314e-14 1 0
5.48572e-15 1 0
-1.77794e-14 1.00001 0
-1.3319e-15 1.00001 0
5.48572e-15 1 0
2.56742e-15 1 0
-1.92042e-14 1 0
-2.61975e-14 1 0
-1.78125e-14 1 0
-8.2111e-15 1 0
-2.61975e-14 1 0
5.65485e-15 1 0
-8.2111e-15 1 0
-9.38427e-15 1 0
-1.3319e-15 1.00001 0
-4.52062e-17 1.00001 0
2.56742e-15 1 0
3.46982e-15 1 0
-4.52062e-17 1.00001 0
-4.1884e-15 1.00001 0
3.46982e-15 1 0
1.7015e-15 1 0
5.65485e-15 1 0
-1.46426e-14 1 0
-9.38427e-15 1 0
-1.13247e-15 1 0
-1.46426e-14 1 0
-7.78054e-15 1 0
-1.13247e-15 1 0
1.7574e-15 1 0
-9.31988e-15 1.00001 0
-8.83815e-15 1.00001 0
1.27746e-15 1.00001 0
-2.96754e-16 1.00001 0
-8.83815e-15 1.00001 0
-1.23069e-14 1.00001 0
-2.96754e-16 1.00001 0
9.34168e-15 1.00001 0
2.1582e-15 1.00001 0
-1.8209e-15 1.00001 0
-2.97243e-15 1.00001 0
1.07701e-14 1.00001 0
-1.8209e-15 1.00001 0
-6.78424e-15 1.00001 0
1.07701e-14 1.00001 0
-1.97919e-15 1.00001 0
-1.23069e-14 1.00001 0
-9.99545e-15 1.00001 0
9.34168e-15 1.00001 0
2.4749e-15 1.00001 0
-9.99545e-15 1.00001 0
-5.27011e-15 1.00001 0
2.4749e-15 1.00001 0
6.51928e-15 1.00001 0
-6.78424e-15 1.00001 0
2.37207e-15 1.00001 0
-1.97919e-15 1.00001 0
-9.17431e-15 1.00001 0
2.37207e-15 1.00001 0
-4.98836e-15 1.00001 0
-9.17431e-15 1.00001 0
-3.02336e-15 1.00001 0
5.26584e-15 1.00001 0
-9.85218e-15 1.00001 0
3.68682e-16 1.00001 0
3.00413e-15 1.00001 0
-9.85218e-15 1.00001 0
7.45744e-16 1.00001 0
3.00413e-15 1.00001 0
9.19758e-15 1.00001 0
-4.01962e-15 1.00001 0
1.57964e-15 1.00001 0
1.75163e-15 1.00001 0
1.07562e-14 1.00001 0
1.57964e-15 1.00001 0
-7.82578e-15 1.00001 0
1.07562e-14 1.00001 0
1.74027e-15 1.00001 0
7.45744e-16 1.00001 0
7.38468e-15 1.00001 0
9.19758e-15 1.00001 0
3.96155e-15 1.00001 0
7.38468e-15 1.00001 0
6.32001e-15 1.00001 0
3.96155e-15 1.00001 0
3.24171e-15 1.00001 0
-7.82578e-15 1.00001 0
-1.12863e-14 1.00001 0
1.74027e-15 1.00001 0
1.30605e-14 1.00001 0
-1.12863e-14 1.00001 0
-9.09789e-16 1.00001 0
1.30605e-14 1.00001 0
-4.25163e-15 1.00001 0
-5.27011e-15 1.00001 0
-5.1389e-15 1.00001 0
6.51928e-15 1.00001 0
-1.24692e-15 1.00001 0
-5.1389e-15 1.00001 0
1.66007e-15 1.00001 0
-1.24692e-15 1.00001 0
-8.65871e-15 1.00001 0
-4.98836e-15 1.00001 0
-1.59516e-15 1.00001 0
-3.02336e-15 1.00001 0
1.55187e-14 1.00001 0
-1.59516e-15 1.00001 0
1.00054e-14 1.00001 0
1.55187e-14 1.00001 0
6.70429e-15 1.00001 0
1.66007e-15 1.00001 0
1.12095e-14 1.00001 0
-8.65871e-15 1.00001 0
1.72561e-15 1.00001 0
1.12095e-14 1.00001 0
-4.58997e-15 1.00001 0
1.72561e-15 1.00001 0
4.15739e-15 1.00001 0
1.00054e-14 1.00001 0
3.11726e-15 1.00001 0
6.70429e-15 1.00001 0
-8.3934e-15 1.00001 0
3.11726e-15 1.00001 0
-9.70385e-16 1.00001 0
-8.3934e-15 1.00001 0
5.542e-15 1.00001 0
6.32001e-15 1.00001 0
-6.97107e-15 1.00001 0
3.24171e-15 1.00001 0
-7.99001e-15 1.00001 0
-6.97107e-15 1.00001 0
-8.22731e-15 1.00001 0
-7.99001e-15 1.00001 0
4.84262e-15 1.00001 0
-9.09789e-16 1.00001 0
9.05713e-15 1.00001 0
-4.25163e-15 1.00001 0
7.44658e-17 1.00001 0
9.05713e-15 1.00001 0
5.39577e-15 1.00001 0
7.44658e-17 1.00001 0
-1.20563e-14 1.00001 0
-8.22731e-15 1.00001 0
3.0634e-15 1.00001 0
4.84262e-15 1.00001 0
-6.05353e-15 1.00001 0
3.0634e-15 1.00001 0
-7.04331e-15 1.00001 0
-6.05353e-15 1.00001 0
-5.77267e-15 1.00001 0
5.39577e-15 1.00001 0
-8.54001e-16 1.00001 0
-1.20563e-14 1.00001 0
5.77822e-15 1.00001 0
-8.54001e-16 1.00001 0
6.80291e-15 1.00001 0
5.77822e-15 1.00001 0
2.94568e-15 1.00001 0
-8.18311e-15 1.00001 0
-2.01962e-14 1.00001 0
7.6801e-15 1.00001 0
1.14715e-14 1.00001 0
-2.01962e-14 1.00001 0
-4.80546e-15 1.00001 0
1.14715e-14 1.00001 0
-2.37882e-15 1.00001 0
-1.34022e-14 1.00001 0
-1.05201e-14 1.00001 0
1.31352e-14 1.00001 0
8.76722e-15 1.00001 0
-1.05201e-14 1.00001 0
-6.34573e-15 1.00001 0
8.76722e-15 1.00001 0
3.47752e-15 1.00001 0
-4.80546e-15 1.00001 0
-6.93885e-15 1.00001 0
-2.37882e-15 1.00001 0
1.23047e-15 1.00001 0
-6.93885e-15 1.00001 0
-1.97383e-15 1.00001 0
1.23047e-15 1.00001 0
7.3386e-15 1.00001 0
-6.34573e-15 1.00001 0
4.07946e-15 1.00001 0
3.47752e-15 1.00001 0
6.47066e-16 1.00001 0
4.07946e-15 1.00001 0
-6.39652e-15 1.00001 0
6.47066e-16 1.00001 0
5.33623e-15 1.00001 0