# vtk DataFile Version 3.0
#This file was generated by the deal.II library on 2018/10/15 at 7:33:55
ASCII
DATASET UNSTRUCTURED_GRID

POINTS 20480 double
0 0 0
0.19635 0 0
0 0.305837 0
0.19635 0.305837 0
0.19635 0 0
0.392699 0 0
0.19635 0.305837 0
0.392699 0.305837 0
0 0.305837 0
0.19635 0.305837 0
0 0.618598 0
0.19635 0.618598 0
0.19635 0.305837 0
0.392699 0.305837 0
0.19635 0.618598 0
0.392699 0.618598 0
0.392699 0 0
0.589049 0 0
0.392699 0.305837 0
0.589049 0.305837 0
0.589049 0 0
0.785398 0 0
0.589049 0.305837 0
0.785398 0.305837 0
0.392699 0.305837 0
0.589049 0.305837 0
0.392699 0.618598 0
0.589049 0.618598 0
0.589049 0.305837 0
0.785398 0.305837 0
0.589049 0.618598 0
0.785398 0.618598 0
0 0.618598 0
0.19635 0.618598 0
0 0.931143 0
0.19635 0.931143 0
0.19635 0.618598 0
0.392699 0.618598 0
0.19635 0.931143 0
0.392699 0.931143 0
0 0.931143 0
0.19635 0.931143 0
0 1.24394 0
0.19635 1.24394 0
0.19635 0.931143 0
0.392699 0.931143 0
0.19635 1.24394 0
0.392699 1.24394 0
0.392699 0.618598 0
0.589049 0.618598 0
0.392699 0.931143 0
0.589049 0.931143 0
0.589049 0.618598 0
0.785398 0.618598 0
0.589049 0.931143 0
0.785398 0.931143 0
0.392699 0.931143 0
0.589049 0.931143 0
0.392699 1.24394 0
0.589049 1.24394 0
0.589049 0.931143 0
0.785398 0.931143 0
0.589049 1.24394 0
0.785398 1.24394 0
0.785398 0 0
0.981748 0 0
0.785398 0.305837 0
0.981748 0.305837 0
0.981748 0 0
1.1781 0 0
0.981748 0.305837 0
1.1781 0.305837 0
0.785398 0.305837 0
0.981748 0.305837 0
0.785398 0.618598 0
0.981748 0.618598 0
0.981748 0.305837 0
1.1781 0.305837 0
0.981748 0.618598 0
1.1781 0.618598 0
1.1781 0 0
1.37445 0 0
1.1781 0.305837 0
1.37445 0.305837 0
1.37445 0 0
1.5708 0 0
1.37445 0.305837 0
1.5708 0.305837 0
1.1781 0.305837 0
1.37445 0.305837 0
1.1781 0.618598 0
1.37445 0.618598 0
1.37445 0.305837 0
1.5708 0.305837 0
1.37445 0.618598 0
1.5708 0.618598 0
0.785398 0.618598 0
0.981748 0.618598 0
0.785398 0.931143 0
0.981748 0.931143 0
0.981748 0.618598 0
1.1781 0.618598 0
0.981748 0.931143 0
1.1781 0.931143 0
0.785398 0.931143 0
0.981748 0.931143 0
0.785398 1.24394 0
0.981748 1.24394 0
0.981748 0.931143 0
1.1781 0.931143 0
0.981748 1.24394 0
1.1781 1.24394 0
1.1781 0.618598 0
1.37445 0.618598 0
1.1781 0.931143 0
1.37445 0.931143 0
1.37445 0.618598 0
1.5708 0.618598 0
1.37445 0.931143 0
1.5708 0.931143 0
1.1781 0.931143 0
1.37445 0.931143 0
1.1781 1.24394 0
1.37445 1.24394 0
1.37445 0.931143 0
1.5708 0.931143 0
1.37445 1.24394 0
1.5708 1.24394 0
0 1.24394 0
0.19635 1.24394 0
0 1.55668 0
0.19635 1.55668 0
0.19635 1.24394 0
0.392699 1.24394 0
0.19635 1.55668 0
0.392699 1.55668 0
0 1.55668 0
0.19635 1.55668 0
0 1.86943 0
0.19635 1.86943 0
0.19635 1.55668 0
0.392699 1.55668 0
0.19635 1.86943 0
0.392699 1.86943 0
0.392699 1.24394 0
0.589049 1.24394 0
0.392699 1.55668 0
0.589049 1.55668 0
0.589049 1.24394 0
0.785398 1.24394 0
0.589049 1.55668 0
0.785398 1.55668 0
0.392699 1.55668 0
0.589049 1.55668 0
0.392699 1.86943 0
0.589049 1.86943 0
0.589049 1.55668 0
0.785398 1.55668 0
0.589049 1.86943 0
0.785398 1.86943 0
0 1.86943 0
0.19635 1.86943 0
0 2.18218 0
0.19635 2.18218 0
0.19635 1.86943 0
0.392699 1.86943 0
0.19635 2.18218 0
0.392699 2.18218 0
0 2.18218 0
0.19635 2.18218 0
0 2.49492 0
0.19635 2.49492 0
0.19635 2.18218 0
0.392699 2.18218 0
0.19635 2.49492 0
0.392699 2.49492 0
0.392699 1.86943 0
0.589049 1.86943 0
0.392699 2.18218 0
0.589049 2.18218 0
0.589049 1.86943 0
0.785398 1.86943 0
0.589049 2.18218 0
0.785398 2.18218 0
0.392699 2.18218 0
0.589049 2.18218 0
0.392699 2.49492 0
0.589049 2.49492 0
0.589049 2.18218 0
0.785398 2.18218 0
0.589049 2.49492 0
0.785398 2.49492 0
0.785398 1.24394 0
0.981748 1.24394 0
0.785398 1.55668 0
0.981748 1.55668 0
0.981748 1.24394 0
1.1781 1.24394 0
0.981748 1.55668 0
1.1781 1.55668 0
0.785398 1.55668 0
0.981748 1.55668 0
0.785398 1.86943 0
0.981748 1.86943 0
0.981748 1.55668 0
1.1781 1.55668 0
0.981748 1.86943 0
1.1781 1.86943 0
1.1781 1.24394 0
1.37445 1.24394 0
1.1781 1.55668 0
1.37445 1.55668 0
1.37445 1.24394 0
1.5708 1.24394 0
1.37445 1.55668 0
1.5708 1.55668 0
1.1781 1.55668 0
1.37445 1.55668 0
1.1781 1.86943 0
1.37445 1.86943 0
1.37445 1.55668 0
1.5708 1.55668 0
1.37445 1.86943 0
1.5708 1.86943 0
0.785398 1.86943 0
0.981748 1.86943 0
0.785398 2.18218 0
0.981748 2.18218 0
0.981748 1.86943 0
1.1781 1.86943 0
0.981748 2.18218 0
1.1781 2.18218 0
0.785398 2.18218 0
0.981748 2.18218 0
0.785398 2.49492 0
0.981748 2.49492 0
0.981748 2.18218 0
1.1781 2.18218 0
0.981748 2.49492 0
1.1781 2.49492 0
1.1781 1.86943 0
1.37445 1.86943 0
1.1781 2.18218 0
1.37445 2.18218 0
1.37445 1.86943 0
1.5708 1.86943 0
1.37445 2.18218 0
1.5708 2.18218 0
1.1781 2.18218 0
1.37445 2.18218 0
1.1781 2.49492 0
1.37445 2.49492 0
1.37445 2.18218 0
1.5708 2.18218 0
1.37445 2.49492 0
1.5708 2.49492 0
1.5708 0 0
1.76715 0 0
1.5708 0.305837 0
1.76715 0.305837 0
1.76715 0 0
1.9635 0 0
1.76715 0.305837 0
1.9635 0.305837 0
1.5708 0.305837 0
1.76715 0.305837 0
1.5708 0.618598 0
1.76715 0.618598 0
1.76715 0.305837 0
1.9635 0.305837 0
1.76715 0.618598 0
1.9635 0.618598 0
1.9635 0 0
2.15984 0 0
1.9635 0.305837 0
2.15984 0.305837 0
2.15984 0 0
2.35619 0 0
2.15984 0.305837 0
2.35619 0.305837 0
1.9635 0.305837 0
2.15984 0.305837 0
1.9635 0.618598 0
2.15984 0.618598 0
2.15984 0.305837 0
2.35619 0.305837 0
2.15984 0.618598 0
2.35619 0.618598 0
1.5708 0.618598 0
1.76715 0.618598 0
1.5708 0.931143 0
1.76715 0.931143 0
1.76715 0.618598 0
1.9635 0.618598 0
1.76715 0.931143 0
1.9635 0.931143 0
1.5708 0.931143 0
1.76715 0.931143 0
1.5708 1.24394 0
1.76715 1.24394 0
1.76715 0.931143 0
1.9635 0.931143 0
1.76715 1.24394 0
1.9635 1.24394 0
1.9635 0.618598 0
2.15984 0.618598 0
1.9635 0.931143 0
2.15984 0.931143 0
2.15984 0.618598 0
2.35619 0.618598 0
2.15984 0.931143 0
2.35619 0.931143 0
1.9635 0.931143 0
2.15984 0.931143 0
1.9635 1.24394 0
2.15984 1.24394 0
2.15984 0.931143 0
2.35619 0.931143 0
2.15984 1.24394 0
2.35619 1.24394 0
2.35619 0 0
2.55254 0 0
2.35619 0.305837 0
2.55254 0.305837 0
2.55254 0 0
2.74889 0 0
2.55254 0.305837 0
2.74889 0.305837 0
2.35619 0.305837 0
2.55254 0.305837 0
2.35619 0.618598 0
2.55254 0.618598 0
2.55254 0.305837 0
2.74889 0.305837 0
2.55254 0.618598 0
2.74889 0.618598 0
2.74889 0 0
2.94524 0 0
2.74889 0.305837 0
2.94524 0.305837 0
2.94524 0 0
3.14159 0 0
2.94524 0.305837 0
3.14159 0.305837 0
2.74889 0.305837 0
2.94524 0.305837 0
2.74889 0.618598 0
2.94524 0.618598 0
2.94524 0.305837 0
3.14159 0.305837 0
2.94524 0.618598 0
3.14159 0.618598 0
2.35619 0.618598 0
2.55254 0.618598 0
2.35619 0.931143 0
2.55254 0.931143 0
2.55254 0.618598 0
2.74889 0.618598 0
2.55254 0.931143 0
2.74889 0.931143 0
2.35619 0.931143 0
2.55254 0.931143 0
2.35619 1.24394 0
2.55254 1.24394 0
2.55254 0.931143 0
2.74889 0.931143 0
2.55254 1.24394 0
2.74889 1.24394 0
2.74889 0.618598 0
2.94524 0.618598 0
2.74889 0.931143 0
2.94524 0.931143 0
2.94524 0.618598 0
3.14159 0.618598 0
2.94524 0.931143 0
3.14159 0.931143 0
2.74889 0.931143 0
2.94524 0.931143 0
2.74889 1.24394 0
2.94524 1.24394 0
2.94524 0.931143 0
3.14159 0.931143 0
2.94524 1.24394 0
3.14159 1.24394 0
1.5708 1.24394 0
1.76715 1.24394 0
1.5708 1.55668 0
1.76715 1.55668 0
1.76715 1.24394 0
1.9635 1.24394 0
1.76715 1.55668 0
1.9635 1.55668 0
1.5708 1.55668 0
1.76715 1.55668 0
1.5708 1.86943 0
1.76715 1.86943 0
1.76715 1.55668 0
1.9635 1.55668 0
1.76715 1.86943 0
1.9635 1.86943 0
1.9635 1.24394 0
2.15984 1.24394 0
1.9635 1.55668 0
2.15984 1.55668 0
2.15984 1.24394 0
2.35619 1.24394 0
2.15984 1.55668 0
2.35619 1.55668 0
1.9635 1.55668 0
2.15984 1.55668 0
1.9635 1.86943 0
2.15984 1.86943 0
2.15984 1.55668 0
2.35619 1.55668 0
2.15984 1.86943 0
2.35619 1.86943 0
1.5708 1.86943 0
1.76715 1.86943 0
1.5708 2.18218 0
1.76715 2.18218 0
1.76715 1.86943 0
1.9635 1.86943 0
1.76715 2.18218 0
1.9635 2.18218 0
1.5708 2.18218 0
1.76715 2.18218 0
1.5708 2.49492 0
1.76715 2.49492 0
1.76715 2.18218 0
1.9635 2.18218 0
1.76715 2.49492 0
1.9635 2.49492 0
1.9635 1.86943 0
2.15984 1.86943 0
1.9635 2.18218 0
2.15984 2.18218 0
2.15984 1.86943 0
2.35619 1.86943 0
2.15984 2.18218 0
2.35619 2.18218 0
1.9635 2.18218 0
2.15984 2.18218 0
1.9635 2.49492 0
2.15984 2.49492 0
2.15984 2.18218 0
2.35619 2.18218 0
2.15984 2.49492 0
2.35619 2.49492 0
2.35619 1.24394 0
2.55254 1.24394 0
2.35619 1.55668 0
2.55254 1.55668 0
2.55254 1.24394 0
2.74889 1.24394 0
2.55254 1.55668 0
2.74889 1.55668 0
2.35619 1.55668 0
2.55254 1.55668 0
2.35619 1.86943 0
2.55254 1.86943 0
2.55254 1.55668 0
2.74889 1.55668 0
2.55254 1.86943 0
2.74889 1.86943 0
2.74889 1.24394 0
2.94524 1.24394 0
2.74889 1.55668 0
2.94524 1.55668 0
2.94524 1.24394 0
3.14159 1.24394 0
2.94524 1.55668 0
3.14159 1.55668 0
2.74889 1.55668 0
2.94524 1.55668 0
2.74889 1.86943 0
2.94524 1.86943 0
2.94524 1.55668 0
3.14159 1.55668 0
2.94524 1.86943 0
3.14159 1.86943 0
2.35619 1.86943 0
2.55254 1.86943 0
2.35619 2.18218 0
2.55254 2.18218 0
2.55254 1.86943 0
2.74889 1.86943 0
2.55254 2.18218 0
2.74889 2.18218 0
2.35619 2.18218 0
2.55254 2.18218 0
2.35619 2.49492 0
2.55254 2.49492 0
2.55254 2.18218 0
2.74889 2.18218 0
2.55254 2.49492 0
2.74889 2.49492 0
2.74889 1.86943 0
2.94524 1.86943 0
2.74889 2.18218 0
2.94524 2.18218 0
2.94524 1.86943 0
3.14159 1.86943 0
2.94524 2.18218 0
3.14159 2.18218 0
2.74889 2.18218 0
2.94524 2.18218 0
2.74889 2.49492 0
2.94524 2.49492 0
2.94524 2.18218 0
3.14159 2.18218 0
2.94524 2.49492 0
3.14159 2.49492 0
0 2.49492 0
0.19635 2.49492 0
0 2.80765 0
0.19635 2.80765 0
0.19635 2.49492 0
0.392699 2.49492 0
0.19635 2.80765 0
0.392699 2.80765 0
0 2.80765 0
0.19635 2.80765 0
0 3.12039 0
0.19635 3.12039 0
0.19635 2.80765 0
0.392699 2.80765 0
0.19635 3.12039 0
0.392699 3.12039 0
0.392699 2.49492 0
0.589049 2.49492 0
0.392699 2.80765 0
0.589049 2.80765 0
0.589049 2.49492 0
0.785398 2.49492 0
0.589049 2.80765 0
0.785398 2.80765 0
0.392699 2.80765 0
0.589049 2.80765 0
0.392699 3.12039 0
0.589049 3.12039 0
0.589049 2.80765 0
0.785398 2.80765 0
0.589049 3.12039 0
0.785398 3.12039 0
0 3.12039 0
0.19635 3.12039 0
0 3.43311 0
0.19635 3.43311 0
0.19635 3.12039 0
0.392699 3.12039 0
0.19635 3.43311 0
[...]
POINT_DATA 20480
VECTORS uf double
0 1 0
-3.9543e-15 1 0
0 1.00001 0
-4.99537e-15 1.00001 0
-3.9543e-15 1 0
1.68591e-15 1 0
-4.99537e-15 1.00001 0
-6.07556e-15 1.00001 0
0 1.00001 0
1.57276e-14 1.00001 0
0 1.00001 0
-1.8555e-14 1.00001 0
1.57276e-14 1.00001 0
3.2767e-15 1.00001 0
-1.8555e-14 1.00001 0
-8.23144e-15 1.00001 0
1.68591e-15 1 0
-1.21539e-15 1 0
-6.07556e-15 1.00001 0
9.02341e-15 1.00001 0
-1.21539e-15 1 0
4.67562e-15 1 0
9.02341e-15 1.00001 0
-5.96121e-15 1.00001 0
3.2767e-15 1.00001 0
-2.21441e-14 1.00001 0
-8.23144e-15 1.00001 0
8.6801e-15 1.00001 0
-2.21441e-14 1.00001 0
-7.02695e-15 1.00001 0
8.6801e-15 1.00001 0
5.42385e-15 1.00001 0
0 1.00001 0
1.19467e-14 1.00001 0
0 1.00001 0
7.61449e-15 1.00001 0
1.19467e-14 1.00001 0
8.36726e-15 1.00001 0
7.61449e-15 1.00001 0
-1.15517e-14 1.00001 0
0 1.00001 0
-7.97211e-15 1.00001 0
0 1.00001 0
-2.05291e-15 1.00001 0
-7.97211e-15 1.00001 0
-4.20488e-15 1.00001 0
-2.05291e-15 1.00001 0
1.03159e-14 1.00001 0
8.36726e-15 1.00001 0
-3.5897e-15 1.00001 0
-1.15517e-14 1.00001 0
-6.08312e-15 1.00001 0
-3.5897e-15 1.00001 0
-1.48653e-14 1.00001 0
-6.08312e-15 1.00001 0
1.41874e-14 1.00001 0
-4.20488e-15 1.00001 0
9.13734e-15 1.00001 0
1.03159e-14 1.00001 0
3.87592e-15 1.00001 0
9.13734e-15 1.00001 0
-9.99322e-15 1.00001 0
3.87592e-15 1.00001 0
1.71007e-14 1.00001 0
4.67562e-15 1 0
-3.83624e-15 1 0
-5.96121e-15 1.00001 0
1.02979e-15 1.00001 0
-3.83624e-15 1 0
4.23911e-16 1 0
1.02979e-15 1.00001 0
1.23667e-14 1.00001 0
-7.02695e-15 1.00001 0
-3.49643e-15 1.00001 0
5.42385e-15 1.00001 0
-1.15289e-15 1.00001 0
-3.49643e-15 1.00001 0
-1.91763e-14 1.00001 0
-1.15289e-15 1.00001 0
9.9033e-15 1.00001 0
4.23911e-16 1 0
-6.93572e-15 1 0
1.23667e-14 1.00001 0
1.51389e-14 1.00001 0
-6.93572e-15 1 0
-1.01065e-14 1 0
1.51389e-14 1.00001 0
4.57086e-15 1.00001 0
-1.91763e-14 1.00001 0
-1.24983e-14 1.00001 0
9.9033e-15 1.00001 0
1.44735e-14 1.00001 0
-1.24983e-14 1.00001 0
-1.16941e-15 1.00001 0
1.44735e-14 1.00001 0
2.61585e-14 1.00001 0
-1.48653e-14 1.00001 0
3.08846e-16 1.00001 0
1.41874e-14 1.00001 0
9.74755e-15 1.00001 0
3.08846e-16 1.00001 0
-1.49807e-14 1.00001 0
9.74755e-15 1.00001 0
2.56145e-14 1.00001 0
-9.99322e-15 1.00001 0
-1.80966e-14 1.00001 0
1.71007e-14 1.00001 0
2.57522e-14 1.00001 0
-1.80966e-14 1.00001 0
-1.64352e-14 1.00001 0
2.57522e-14 1.00001 0
1.63144e-14 1.00001 0
-1.49807e-14 1.00001 0
-1.87816e-14 1.00001 0
2.56145e-14 1.00001 0
1.76476e-14 1.00001 0
-1.87816e-14 1.00001 0
-2.51655e-14 1.00001 0
1.76476e-14 1.00001 0
1.73919e-14 1.00001 0
-1.64352e-14 1.00001 0
-5.39166e-15 1.00001 0
1.63144e-14 1.00001 0
-3.0976e-15 1.00001 0
-5.39166e-15 1.00001 0
-4.34804e-15 1.00001 0
-3.0976e-15 1.00001 0
6.40032e-15 1.00001 0
0 1.00001 0
4.47192e-15 1.00001 0
0 1.00001 0
4.9508e-15 1.00001 0
4.47192e-15 1.00001 0
1.07707e-15 1.00001 0
4.9508e-15 1.00001 0
7.73262e-15 1.00001 0
0 1.00001 0
-1.2023e-14 1.00001 0
0 1.00001 0
-1.73556e-14 1.00001 0
-1.2023e-14 1.00001 0
-1.71736e-14 1.00001 0
-1.73556e-14 1.00001 0
2.71592e-14 1.00001 0
1.07707e-15 1.00001 0
7.81833e-15 1.00001 0
7.73262e-15 1.00001 0
-1.04699e-14 1.00001 0
7.81833e-15 1.00001 0
-1.16682e-14 1.00001 0
-1.04699e-14 1.00001 0
1.59931e-14 1.00001 0
-1.71736e-14 1.00001 0
-4.70873e-15 1.00001 0
2.71592e-14 1.00001 0
1.29858e-14 1.00001 0
-4.70873e-15 1.00001 0
-2.23218e-14 1.00001 0
1.29858e-14 1.00001 0
9.77164e-15 1.00001 0
0 1.00001 0
1.29607e-14 1.00001 0
0 1.00001 0
5.01741e-15 1.00001 0
1.29607e-14 1.00001 0
-2.61695e-14 1.00001 0
5.01741e-15 1.00001 0
1.8777e-14 1.00001 0
0 1.00001 0
-5.82195e-16 1.00001 0
0 1.00001 0
-7.46773e-16 1.00001 0
-5.82195e-16 1.00001 0
-7.44864e-15 1.00001 0
-7.46773e-16 1.00001 0
2.63653e-14 1.00001 0
-2.61695e-14 1.00001 0
-8.2137e-15 1.00001 0
1.8777e-14 1.00001 0
6.03456e-15 1.00001 0
-8.2137e-15 1.00001 0
8.92625e-16 1.00001 0
6.03456e-15 1.00001 0
5.80758e-15 1.00001 0
-7.44864e-15 1.00001 0
1.74968e-16 1.00001 0
2.63653e-14 1.00001 0
2.94738e-15 1.00001 0
1.74968e-16 1.00001 0
-1.11467e-14 1.00001 0
2.94738e-15 1.00001 0
1.90905e-14 1.00001 0
-1.16682e-14 1.00001 0
-1.62381e-14 1.00001 0
1.59931e-14 1.00001 0
1.49816e-14 1.00001 0
-1.62381e-14 1.00001 0
-1.76448e-14 1.00001 0
1.49816e-14 1.00001 0
1.09449e-14 1.00001 0
-2.23218e-14 1.00001 0
-1.23895e-14 1.00001 0
9.77164e-15 1.00001 0
1.75291e-14 1.00001 0
-1.23895e-14 1.00001 0
-1.7462e-14 1.00001 0
1.75291e-14 1.00001 0
2.62604e-14 1.00001 0
-1.76448e-14 1.00001 0
1.51143e-15 1.00001 0
1.09449e-14 1.00001 0
9.22737e-15 1.00001 0
1.51143e-15 1.00001 0
-8.90662e-15 1.00001 0
9.22737e-15 1.00001 0
7.91471e-15 1.00001 0
-1.7462e-14 1.00001 0
-5.71859e-15 1.00001 0
2.62604e-14 1.00001 0
6.78471e-15 1.00001 0
-5.71859e-15 1.00001 0
-4.07778e-15 1.00001 0
6.78471e-15 1.00001 0
6.96996e-15 1.00001 0
8.92625e-16 1.00001 0
-1.67253e-14 1.00001 0
5.80758e-15 1.00001 0
1.20327e-14 1.00001 0
-1.67253e-14 1.00001 0
-1.05121e-14 1.00001 0
1.20327e-14 1.00001 0
3.81022e-15 1.00001 0
-1.11467e-14 1.00001 0
-2.10954e-14 1.00001 0
1.90905e-14 1.00001 0
2.74167e-14 1.00001 0
-2.10954e-14 1.00001 0
-1.3135e-14 1.00001 0
2.74167e-14 1.00001 0
2.4349e-14 1.00001 0
-1.05121e-14 1.00001 0
-2.21896e-15 1.00001 0
3.81022e-15 1.00001 0
9.52914e-15 1.00001 0
-2.21896e-15 1.00001 0
-8.8153e-15 1.00001 0
9.52914e-15 1.00001 0
2.76998e-15 1.00001 0
-1.3135e-14 1.00001 0
-2.30055e-14 1.00001 0
2.4349e-14 1.00001 0
1.64498e-14 1.00001 0
-2.30055e-14 1.00001 0
-1.19294e-14 1.00001 0
1.64498e-14 1.00001 0
1.75668e-14 1.00001 0
-1.01065e-14 1 0
-2.27863e-14 1 0
4.57086e-15 1.00001 0
2.06536e-14 1.00001 0
-2.27863e-14 1 0
-1.83736e-14 1 0
2.06536e-14 1.00001 0
2.13102e-14 1.00001 0
-1.16941e-15 1.00001 0
-6.1961e-16 1.00001 0
2.61585e-14 1.00001 0
2.01168e-14 1.00001 0
-6.1961e-16 1.00001 0
-9.3499e-15 1.00001 0
2.01168e-14 1.00001 0
1.71e-14 1.00001 0
-1.83736e-14 1 0
-8.05177e-16 1 0
2.13102e-14 1.00001 0
6.01786e-15 1.00001 0
-8.05177e-16 1 0
7.36947e-15 1 0
6.01786e-15 1.00001 0
-9.74602e-15 1.00001 0
-9.3499e-15 1.00001 0
-1.44944e-14 1.00001 0
1.71e-14 1.00001 0
2.09832e-14 1.00001 0
-1.44944e-14 1.00001 0
2.91661e-15 1.00001 0
2.09832e-14 1.00001 0
1.24859e-15 1.00001 0
-2.51655e-14 1.00001 0
-2.84618e-14 1.00001 0
1.73919e-14 1.00001 0
3.39783e-14 1.00001 0
-2.84618e-14 1.00001 0
3.01207e-15 1.00001 0
3.39783e-14 1.00001 0
-5.49048e-15 1.00001 0
-4.34804e-15 1.00001 0
-2.54229e-14 1.00001 0
6.40032e-15 1.00001 0
2.5249e-14 1.00001 0
-2.54229e-14 1.00001 0
-3.2943e-15 1.00001 0
2.5249e-14 1.00001 0
2.04916e-15 1.00001 0
3.01207e-15 1.00001 0
-2.12054e-15 1.00001 0
-5.49048e-15 1.00001 0
1.403e-15 1.00001 0
-2.12054e-15 1.00001 0
1.89808e-14 1.00001 0
1.403e-15 1.00001 0
-1.275e-14 1.00001 0
-3.2943e-15 1.00001 0
-1.67423e-14 1.00001 0
2.04916e-15 1.00001 0
2.36553e-14 1.00001 0
-1.67423e-14 1.00001 0
1.82805e-15 1.00001 0
2.36553e-14 1.00001 0
3.31538e-15 1.00001 0
7.36947e-15 1 0
3.50443e-15 1 0
-9.74602e-15 1.00001 0
-1.53645e-16 1.00001 0
3.50443e-15 1 0
-1.99683e-14 1 0
-1.53645e-16 1.00001 0
4.27305e-14 1.00001 0
2.91661e-15 1.00001 0
8.32166e-15 1.00001 0
1.24859e-15 1.00001 0
-1.06218e-14 1.00001 0
8.32166e-15 1.00001 0
-2.44421e-14 1.00001 0
-1.06218e-14 1.00001 0
1.86373e-14 1.00001 0
-1.99683e-14 1 0
-2.47211e-15 1 0
4.27305e-14 1.00001 0
2.07713e-14 1.00001 0
-2.47211e-15 1 0
1.6932e-17 1 0
2.07713e-14 1.00001 0
8.25814e-15 1.00001 0
-2.44421e-14 1.00001 0
-1.53975e-14 1.00001 0
1.86373e-14 1.00001 0
2.19854e-14 1.00001 0
-1.53975e-14 1.00001 0
-1.19585e-14 1.00001 0
2.19854e-14 1.00001 0
3.1892e-14 1.00001 0
1.89808e-14 1.00001 0
1.0679e-14 1.00001 0
-1.275e-14 1.00001 0
-2.65035e-15 1.00001 0
1.0679e-14 1.00001 0
-1.99433e-14 1.00001 0
-2.65035e-15 1.00001 0
2.2304e-14 1.00001 0
1.82805e-15 1.00001 0
2.94933e-15 1.00001 0
3.31538e-15 1.00001 0
3.83696e-15 1.00001 0
2.94933e-15 1.00001 0
-1.21952e-14 1.00001 0
3.83696e-15 1.00001 0
9.1114e-15 1.00001 0
-1.99433e-14 1.00001 0
-2.33181e-14 1.00001 0
2.2304e-14 1.00001 0
1.76235e-14 1.00001 0
-2.33181e-14 1.00001 0
-3.37948e-14 1.00001 0
1.76235e-14 1.00001 0
2.82541e-14 1.00001 0
-1.21952e-14 1.00001 0
-1.20586e-14 1.00001 0
9.1114e-15 1.00001 0
1.52498e-14 1.00001 0
-1.20586e-14 1.00001 0
-1.93391e-14 1.00001 0
1.52498e-14 1.00001 0
1.66659e-14 1.00001 0
-8.90662e-15 1.00001 0
-3.01978e-14 1.00001 0
7.91471e-15 1.00001 0
2.05299e-14 1.00001 0
-3.01978e-14 1.00001 0
1.03993e-15 1.00001 0
2.05299e-14 1.00001 0
2.01136e-14 1.00001 0
-4.07778e-15 1.00001 0
-1.28923e-14 1.00001 0
6.96996e-15 1.00001 0
2.87055e-14 1.00001 0
-1.28923e-14 1.00001 0
-2.62911e-14 1.00001 0
2.87055e-14 1.00001 0
2.47031e-14 1.00001 0
1.03993e-15 1.00001 0
-1.16571e-14 1.00001 0
2.01136e-14 1.00001 0
1.45573e-14 1.00001 0
-1.16571e-14 1.00001 0
1.00306e-14 1.00001 0
1.45573e-14 1.00001 0
-5.04788e-16 1.00001 0
-2.62911e-14 1.00001 0
-1.20388e-14 1.00001 0
2.47031e-14 1.00001 0
1.0861e-14 1.00001 0
-1.20388e-14 1.00001 0
-1.84793e-14 1.00001 0
1.0861e-14 1.00001 0
1.46925e-14 1.00001 0
-8.8153e-15 1.00001 0
-2.41334e-14 1.00001 0
2.76998e-15 1.00001 0
1.28264e-14 1.00001 0
-2.41334e-14 1.00001 0
-2.07039e-14 1.00001 0
1.28264e-14 1.00001 0
1.42626e-14 1.00001 0
-1.19294e-14 1.00001 0
-7.23029e-15 1.00001 0
1.75668e-14 1.00001 0
-7.87045e-15 1.00001 0
-7.23029e-15 1.00001 0
-2.6653e-14 1.00001 0
-7.87045e-15 1.00001 0
2.33191e-14 1.00001 0
-2.07039e-14 1.00001 0
-2.75912e-14 1.00001 0
1.42626e-14 1.00001 0
3.31294e-14 1.00001 0
-2.75912e-14 1.00001 0
-1.17399e-14 1.00001 0
3.31294e-14 1.00001 0
1.00304e-14 1.00001 0
-2.6653e-14 1.00001 0
-1.56379e-14 1.00001 0
2.33191e-14 1.00001 0
6.19477e-15 1.00001 0
-1.56379e-14 1.00001 0
-4.90047e-15 1.00001 0
6.19477e-15 1.00001 0
4.26021e-15 1.00001 0
1.00306e-14 1.00001 0
-1.31397e-15 1.00001 0
-5.04788e-16 1.00001 0
1.17317e-14 1.00001 0
-1.31397e-15 1.00001 0
-1.68012e-15 1.00001 0
1.17317e-14 1.00001 0
-4.49975e-16 1.00001 0
-1.84793e-14 1.00001 0
-1.10321e-14 1.00001 0
1.46925e-14 1.00001 0
7.52422e-16 1.00001 0
-1.10321e-14 1.00001 0
5.96063e-16 1.00001 0
7.52422e-16 1.00001 0
7.26038e-16 1.00001 0
-1.68012e-15 1.00001 0
-2.70606e-14 1.00001 0
-4.49975e-16 1.00001 0
1.74834e-14 1.00001 0
-2.70606e-14 1.00001 0
-1.93582e-14 1.00001 0
1.74834e-14 1.00001 0
9.30554e-15 1.00001 0
5.96063e-16 1.00001 0
-1.36458e-14 1.00001 0
7.26038e-16 1.00001 0
2.17377e-14 1.00001 0
-1.36458e-14 1.00001 0
-5.30904e-15 1.00001 0
2.17377e-14 1.00001 0
1.44513e-14 1.00001 0
-1.17399e-14 1.00001 0
-7.39532e-15 1.00001 0
1.00304e-14 1.00001 0
1.22539e-14 1.00001 0
-7.39532e-15 1.00001 0
1.11467e-14 1.00001 0
1.22539e-14 1.00001 0
-1.79609e-14 1.00001 0
-4.90047e-15 1.00001 0
-1.87936e-14 1.00001 0
4.26021e-15 1.00001 0
1.5332e-14 1.00001 0
-1.87936e-14 1.00001 0
6.81738e-15 1.00001 0
1.5332e-14 1.00001 0
-7.58704e-16 1.00001 0
1.11467e-14 1.00001 0
-1.82427e-14 1.00001 0
-1.79609e-14 1.00001 0
8.5385e-15 1.00001 0
-1.82427e-14 1.00001 0
-2.64152e-14 1.00001 0
8.5385e-15 1.00001 0
2.02563e-14 1.00001 0
6.81738e-15 1.00001 0
3.38935e-15 1.00001 0
-7.58704e-16 1.00001 0
3.05913e-15 1.00001 0
3.38935e-15 1.00001 0
-2.54184e-15 1.00001 0
3.05913e-15 1.00001 0
9.71608e-15 1.00001 0
0 1.00001 0
1.50086e-15 1.00001 0
0 1.00001 0
2.059e-14 1.00001 0
1.50086e-15 1.00001 0
-3.4647e-14 1.00001 0
2.059e-14 1.00001 0
-3.69699e-16 1.00001 0
0 1.00001 0
-2.23999e-14 1.00001 0
0 1.00001 0
1.00523e-14 1.00001 0
-2.23999e-14 1.00001 0
-1.64963e-15 1.00001 0
1.00523e-14 1.00001 0
-1.88043e-15 1.00001 0
-3.4647e-14 1.00001 0
2.64556e-15 1.00001 0
-3.69699e-16 1.00001 0
-8.65874e-15 1.00001 0
2.64556e-15 1.00001 0
-1.10344e-14 1.00001 0
-8.65874e-15 1.00001 0
5.25564e-15 1.00001 0
-1.64963e-15 1.00001 0
1.94899e-15 1.00001 0
-1.88043e-15 1.00001 0
4.39063e-15 1.00001 0
1.94899e-15 1.00001 0
-8.15132e-15 1.00001 0
4.39063e-15 1.00001 0
1.58577e-14 1.00001 0
0 1.00001 0
-1.25876e-14 1.00001 0
0 1 0
4.73898e-15 1 0
-1.25876e-14 1.00001 0
1.62322e-14 1.00001 0
4.73898e-15 1 0
1.5663e-15 1 0
0 1 0
-6.78772e-15 1 0
0 1 0
1.80475e-14 1 0
-6.78772e-15 1 0
-5.4071e-15 1 0
1.80475e-14 1 0
-2.45645e-15 1 0
1.62322e-14 1.00001 0
-3.40943e-15 1.00001 0
1.5663e-15 1 0
2.24319e-15 1 0
-3.40943e-15 1.00001 0
-2.06526e-14 1.00001 0
2.24319e-15 1 0
-3.15708e-15 1 0
-5.4071e-15 1 0
2.36893e-15 1 0
-2.45645e-15 1 0
-4.72693e-15 1 0
2.36893e-15 1 0
-4.07171e-16 1 0
-4.72693e-15 1 0
2.3822e-14 1 0
-1.10344e-14 1.00001 0
-3.01777e-14 1.00001 0
5.25564e-15 1.00001 0
1.72611e-14 1.00001 0
-3.01777e-14 1.00001 0
-2.78445e-14 1.00001 0
1.72611e-14 1.00001 0
1.62293e-14 1.00001 0
-8.15132e-15 1.00001 0
-2.39671e-14 1.00001 0
1.58577e-14 1.00001 0
4.24385e-14 1.00001 0
-2.39671e-14 1.00001 0
-5.04587e-15 1.00001 0
4.24385e-14 1.00001 0
1.3906e-14 1.00001 0
-2.78445e-14 1.00001 0
-1.6398e-14 1.00001 0
1.62293e-14 1.00001 0
6.15653e-15 1.00001 0
-1.6398e-14 1.00001 0
-2.59326e-14 1.00001 0
6.15653e-15 1.00001 0
2.85568e-14 1.00001 0
-5.04587e-15 1.00001 0
1.68562e-14 1.00001 0
1.3906e-14 1.00001 0
-9.71208e-15 1.00001 0
1.68562e-14 1.00001 0
-8.46536e-15 1.00001 0
-9.71208e-15 1.00001 0
1.38734e-14 1.00001 0
-2.06526e-14 1.00001 0
-2.53226e-14 1.00001 0
-3.15708e-15 1 0
1.41193e-14 1 0
-2.53226e-14 1.00001 0
-1.89929e-14 1.00001 0
1.41193e-14 1 0
1.71234e-14 1 0
-4.07171e-16 1 0
-8.25944e-15 1 0
2.3822e-14 1 0
6.81474e-15 1 0
-8.25944e-15 1 0
-5.63932e-15 1 0
6.81474e-15 1 0
5.8871e-16 1 0
-1.89929e-14 1.00001 0
5.2269e-15 1.00001 0
1.71234e-14 1 0
3.43961e-15 1 0
5.2269e-15 1.00001 0
-6.52509e-15 1.00001 0
3.43961e-15 1 0
5.87493e-15 1 0
-5.63932e-15 1 0
-1.48107e-14 1 0
5.8871e-16 1 0
1.06439e-14 1 0
-1.48107e-14 1 0
-1.72783e-14 1 0
1.06439e-14 1 0
1.56983e-14 1 0
0 1 0
-2.10833e-14 1 0
0 1 0
2.09903e-14 1 0
-2.10833e-14 1 0
-6.79892e-15 1 0
2.09903e-14 1 0
1.42898e-14 1 0
0 1 0
-5.58185e-15 1 0
0 1 0
9.46642e-15 1 0
-5.58185e-15 1 0
-9.83579e-15 1 0
9.46642e-15 1 0
-3.22945e-15 1 0
-6.79892e-15 1 0
-3.15105e-16 1 0
1.42898e-14 1 0
2.19753e-15 1 0
-3.15105e-16 1 0
-2.4377e-14 1 0
2.19753e-15 1 0
1.603e-14 1 0
-9.83579e-15 1 0
-2.16064e-16 1 0
-3.22945e-15 1 0
8.03224e-15 1 0
-2.16064e-16 1 0
-1.09787e-14 1 0
8.03224e-15 1 0
1.4314e-14 1 0
0 1 0
-1.01866e-14 1 0
0 1 0
3.68121e-15 1 0
-1.01866e-14 1 0
-6.79738e-15 1 0
3.68121e-15 1 0
-3.73902e-15 1 0
0 1 0
-1.71702e-14 1 0
0 1 0
1.00822e-15 1 0
-1.71702e-14 1 0
5.01985e-16 1 0
1.00822e-15 1 0
8.71497e-15 1 0
-6.79738e-15 1 0
-2.64464e-14 1 0
-3.73902e-15 1 0
-9.0921e-15 1 0
-2.64464e-14 1 0
-1.04731e-14 1 0
-9.0921e-15 1 0
6.2834e-16 1 0
5.01985e-16 1 0
-1.06588e-15 1 0
8.71497e-15 1 0
2.33843e-14 1 0
-1.06588e-15 1 0
-1.40744e-14 1 0
2.33843e-14 1 0
-1.2821e-15 1 0
-2.4377e-14 1 0
-3.65991e-14 1 0
1.603e-14 1 0
2.30648e-14 1 0
-3.65991e-14 1 0
-4.83893e-15 1 0
2.30648e-14 1 0
1.01614e-14 1 0
-1.09787e-14 1 0
-1.0893e-14 1 0
1.4314e-14 1 0
1.32027e-14 1 0
-1.0893e-14 1 0
-6.25007e-15 1 0
1.32027e-14 1 0
6.44614e-15 1 0
-4.83893e-15 1 0
-9.3882e-15 1 0
1.01614e-14 1 0
6.22061e-15 1 0
-9.3882e-15 1 0
-2.4971e-14 1 0
6.22061e-15 1 0
2.50748e-14 1 0
-6.25007e-15 1 0
-5.94862e-15 1 0
6.44614e-15 1 0
6.6727e-15 1 0
-5.94862e-15 1 0
-1.48731e-14 1 0
6.6727e-15 1 0
1.78335e-14 1 0
-1.04731e-14 1 0
-2.32865e-14 1 0
6.2834e-16 1 0
-1.59037e-15 1 0
-2.32865e-14 1 0
-1.14769e-14 1 0
-1.59037e-15 1 0
1.04479e-14 1 0
-1.40744e-14 1 0
3.22674e-15 1 0
-1.2821e-15 1 0
1.35012e-14 1 0
3.22674e-15 1 0
-3.69088e-15 1 0
1.35012e-14 1 0
1.44054e-15 1 0
-1.14769e-14 1 0
-4.44108e-15 1 0
1.04479e-14 1 0
1.25445e-14 1 0
-4.44108e-15 1 0
-2.28052e-14 1 0
1.25445e-14 1 0
1.52537e-14 1 0
-3.69088e-15 1 0
-1.97227e-14 1 0
1.44054e-15 1 0
7.99247e-15 1 0
-1.97227e-14 1 0
-1.92961e-14 1 0
7.99247e-15 1 0
8.982e-15 1 0
-2.59326e-14 1.00001 0
6.08704e-15 1.00001 0
2.85568e-14 1.00001 0
1.0065e-14 1.00001 0
6.08704e-15 1.00001 0
-1.9487e-14 1.00001 0
1.0065e-14 1.00001 0
2.3863e-14 1.00001 0
-8.46536e-15 1.00001 0
-5.63926e-15 1.00001 0
1.38734e-14 1.00001 0
9.03975e-15 1.00001 0
-5.63926e-15 1.00001 0
-1.80766e-15 1.00001 0
9.03975e-15 1.00001 0
-4.27325e-16 1.00001 0
-1.9487e-14 1.00001 0
-8.39045e-15 1.00001 0
2.3863e-14 1.00001 0
1.20055e-14 1.00001 0
-8.39045e-15 1.00001 0
-1.55316e-14 1.00001 0
1.20055e-14 1.00001 0
2.25735e-14 1.00001 0
-1.80766e-15 1.00001 0
-3.78934e-15 1.00001 0
-4.27325e-16 1.00001 0
7.62842e-15 1.00001 0
-3.78934e-15 1.00001 0
-1.82036e-14 1.00001 0
7.62842e-15 1.00001 0
2.367e-14 1.00001 0
-6.52509e-15 1.00001 0
-1.01448e-14 1.00001 0
5.87493e-15 1 0
1.32838e-14 1 0
-1.01448e-14 1.00001 0
9.2848e-16 1.00001 0
1.32838e-14 1 0
3.29049e-16 1 0
-1.72783e-14 1 0
-1.88535e-14 1 0
1.56983e-14 1 0
1.53728e-14 1 0
-1.88535e-14 1 0
-4.21763e-15 1 0
1.53728e-14 1 0
4.7057e-15 1 0
9.2848e-16 1.00001 0
-5.07664e-15 1.00001 0
3.29049e-16 1 0
6.38649e-15 1 0
-5.07664e-15 1.00001 0
-1.93043e-14 1.00001 0
6.38649e-15 1 0
1.67129e-14 1 0
-4.21763e-15 1 0
-8.22079e-15 1 0
4.7057e-15 1 0
1.06924e-14 1 0
-8.22079e-15 1 0
-8.89545e-15 1 0
1.06924e-14 1 0
9.61118e-15 1 0
-1.55316e-14 1.00001 0
-4.57317e-16 1.00001 0
2.25735e-14 1.00001 0
-4.78102e-15 1.00001 0
-4.57317e-16 1.00001 0
4.35789e-15 1.00001 0
-4.78102e-15 1.00001 0
-1.10506e-15 1.00001 0
-1.82036e-14 1.00001 0
1.04281e-14 1.00001 0
2.367e-14 1.00001 0
3.28109e-15 1.00001 0
1.04281e-14 1.00001 0
-3.74174e-16 1.00001 0
3.28109e-15 1.00001 0
1.30813e-15 1.00001 0
4.35789e-15 1.00001 0
1.35208e-15 1.00001 0
-1.10506e-15 1.00001 0
6.38063e-15 1.00001 0
1.35208e-15 1.00001 0
2.59316e-15 1.00001 0
6.38063e-15 1.00001 0
4.34289e-15 1.00001 0
-3.74174e-16 1.00001 0
-5.05629e-15 1.00001 0
1.30813e-15 1.00001 0
3.91922e-15 1.00001 0
-5.05629e-15 1.00001 0
4.5895e-15 1.00001 0
3.91922e-15 1.00001 0
-3.43193e-15 1.00001 0
-1.93043e-14 1.00001 0
-3.32538e-15 1.00001 0
1.67129e-14 1 0
6.72169e-16 1 0
-3.32538e-15 1.00001 0
3.66582e-15 1.00001 0
6.72169e-16 1 0
1.94676e-15 1 0
-8.89545e-15 1 0
-2.12727e-15 1 0
9.61118e-15 1 0
-1.33428e-15 1 0
-2.12727e-15 1 0
-7.30737e-15 1 0
-1.33428e-15 1 0
1.06752e-14 1 0
3.66582e-15 1.00001 0
-1.12522e-14 1.00001 0
1.94676e-15 1 0
1.72131e-14 1 0
-1.12522e-14 1.00001 0
6.36829e-16 1.00001 0
1.72131e-14 1 0
-5.55033e-15 1 0
-7.30737e-15 1 0
-1.38399e-14 1 0
1.06752e-14 1 0
1.24103e-14 1 0
-1.38399e-14 1 0
6.94764e-16 1 0
1.24103e-14 1 0
7.07568e-15 1 0
-2.4971e-14 1 0
-1.98445e-14 1 0
2.50748e-14 1 0
2.12669e-14 1 0
-1.98445e-14 1 0
-5.16888e-15 1 0
2.12669e-14 1 0
4.59699e-15 1 0
-1.48731e-14 1 0
-1.35062e-14 1 0
1.78335e-14 1 0
1.40303e-14 1 0
-1.35062e-14 1 0
-9.24646e-15 1 0
1.40303e-14 1 0
5.07664e-15 1 0
-5.16888e-15 1 0
-8.63711e-15 1 0
4.59699e-15 1 0
9.78863e-15 1 0
-8.63711e-15 1 0
-2.06994e-14 1 0
9.78863e-15 1 0
2.0554e-14 1 0
-9.24646e-15 1 0
-1.14644e-14 1 0
5.07664e-15 1 0
9.17717e-15 1 0
-1.14644e-14 1 0
-1.06083e-14 1 0
9.17717e-15 1 0
-1.75548e-15 1 0
-2.28052e-14 1 0
-2.74468e-14 1 0
1.52537e-14 1 0
1.25212e-14 1 0
-2.74468e-14 1 0
-1.51242e-14 1 0
1.25212e-14 1 0
7.31537e-15 1 0
-1.92961e-14 1 0
-1.3867e-14 1 0
8.982e-15 1 0
5.58364e-15 1 0
-1.3867e-14 1 0
-1.25691e-14 1 0
5.58364e-15 1 0
4.90555e-15 1 0
-1.51242e-14 1 0
-9.09561e-15 1 0
7.31537e-15 1 0
7.73512e-15 1 0
-9.09561e-15 1 0
6.73351e-17 1 0
7.73512e-15 1 0
5.14155e-15 1 0
-1.25691e-14 1 0
-9.40476e-15 1 0
4.90555e-15 1 0
1.23802e-14 1 0
-9.40476e-15 1 0
-2.62712e-15 1 0
1.23802e-14 1 0
6.46043e-15 1 0
-2.06994e-14 1 0
-1.26523e-14 1 0
2.0554e-14 1 0
1.90356e-14 1 0
-1.26523e-14 1 0
-1.97605e-14 1 0
1.90356e-14 1 0
2.10014e-14 1 0
-1.06083e-14 1 0
-9.97868e-15 1 0
-1.75548e-15 1 0
4.02692e-15 1 0
-9.97868e-15 1 0
-1.13272e-14 1 0
4.02692e-15 1 0
4.12868e-15 1 0
-1.97605e-14 1 0
-1.743e-14 1 0
2.10014e-14 1 0
1.88325e-14 1 0
-1.743e-14 1 0
-2.16004e-14 1 0
1.88325e-14 1 0
2.33594e-14 1 0
-1.13272e-14 1 0
-1.45357e-14 1 0
4.12868e-15 1 0
9.87707e-15 1 0
-1.45357e-14 1 0
-1.45715e-14 1 0
9.87707e-15 1 0
8.02167e-15 1 0
6.73351e-17 1 0
-8.57591e-15 1 0
5.14155e-15 1 0
9.12982e-15 1 0
-8.57591e-15 1 0
-5.05737e-15 1 0
9.12982e-15 1 0
7.10617e-16 1 0
-2.62712e-15 1 0
-1.15381e-15 1 0
6.46043e-15 1 0
8.57179e-15 1 0
-1.15381e-15 1 0
1.20377e-15 1 0