# vtk DataFile Version 3.0
#This file was generated by the deal.II library on 2018/10/15 at 5:48:56
ASCII
DATASET UNSTRUCTURED_GRID

POINTS 20480 double
0 0 0
0.19635 0 0
0 0.307415 0
0.19635 0.307415 0
0.19635 0 0
0.392699 0 0
0.19635 0.307415 0
0.392699 0.307415 0
0 0.307415 0
0.19635 0.307415 0
0 0.620129 0
0.19635 0.620129 0
0.19635 0.307415 0
0.392699 0.307415 0
0.19635 0.620129 0
0.392699 0.620129 0
0.392699 0 0
0.589049 0 0
0.392699 0.307415 0
0.589049 0.307415 0
0.589049 0 0
0.785398 0 0
0.589049 0.307415 0
0.785398 0.307415 0
0.392699 0.307415 0
0.589049 0.307415 0
0.392699 0.620129 0
0.589049 0.620129 0
0.589049 0.307415 0
0.785398 0.307415 0
0.589049 0.620129 0
0.785398 0.620129 0
0 0.620129 0
0.19635 0.620129 0
0 0.932666 0
0.19635 0.932666 0
0.19635 0.620129 0
0.392699 0.620129 0
0.19635 0.932666 0
0.392699 0.932666 0
0 0.932666 0
0.19635 0.932666 0
0 1.24539 0
0.19635 1.24539 0
0.19635 0.932666 0
0.392699 0.932666 0
0.19635 1.24539 0
0.392699 1.24539 0
0.392699 0.620129 0
0.589049 0.620129 0
0.392699 0.932666 0
0.589049 0.932666 0
0.589049 0.620129 0
0.785398 0.620129 0
0.589049 0.932666 0
0.785398 0.932666 0
0.392699 0.932666 0
0.589049 0.932666 0
0.392699 1.24539 0
0.589049 1.24539 0
0.589049 0.932666 0
0.785398 0.932666 0
0.589049 1.24539 0
0.785398 1.24539 0
0.785398 0 0
0.981748 0 0
0.785398 0.307415 0
0.981748 0.307415 0
0.981748 0 0
1.1781 0 0
0.981748 0.307415 0
1.1781 0.307415 0
0.785398 0.307415 0
0.981748 0.307415 0
0.785398 0.620129 0
0.981748 0.620129 0
0.981748 0.307415 0
1.1781 0.307415 0
0.981748 0.620129 0
1.1781 0.620129 0
1.1781 0 0
1.37445 0 0
1.1781 0.307415 0
1.37445 0.307415 0
1.37445 0 0
1.5708 0 0
1.37445 0.307415 0
1.5708 0.307415 0
1.1781 0.307415 0
1.37445 0.307415 0
1.1781 0.620129 0
1.37445 0.620129 0
1.37445 0.307415 0
1.5708 0.307415 0
1.37445 0.620129 0
1.5708 0.620129 0
0.785398 0.620129 0
0.981748 0.620129 0
0.785398 0.932666 0
0.981748 0.932666 0
0.981748 0.620129 0
1.1781 0.620129 0
0.981748 0.932666 0
1.1781 0.932666 0
0.785398 0.932666 0
0.981748 0.932666 0
0.785398 1.24539 0
0.981748 1.24539 0
0.981748 0.932666 0
1.1781 0.932666 0
0.981748 1.24539 0
1.1781 1.24539 0
1.1781 0.620129 0
1.37445 0.620129 0
1.1781 0.932666 0
1.37445 0.932666 0
1.37445 0.620129 0
1.5708 0.620129 0
1.37445 0.932666 0
1.5708 0.932666 0
1.1781 0.932666 0
1.37445 0.932666 0
1.1781 1.24539 0
1.37445 1.24539 0
1.37445 0.932666 0
1.5708 0.932666 0
1.37445 1.24539 0
1.5708 1.24539 0
0 1.24539 0
0.19635 1.24539 0
0 1.55807 0
0.19635 1.55807 0
0.19635 1.24539 0
0.392699 1.24539 0
0.19635 1.55807 0
0.392699 1.55807 0
0 1.55807 0
0.19635 1.55807 0
0 1.87076 0
0.19635 1.87076 0
0.19635 1.55807 0
0.392699 1.55807 0
0.19635 1.87076 0
0.392699 1.87076 0
0.392699 1.24539 0
0.589049 1.24539 0
0.392699 1.55807 0
0.589049 1.55807 0
0.589049 1.24539 0
0.785398 1.24539 0
0.589049 1.55807 0
0.785398 1.55807 0
0.392699 1.55807 0
0.589049 1.55807 0
0.392699 1.87076 0
0.589049 1.87076 0
0.589049 1.55807 0
0.785398 1.55807 0
0.589049 1.87076 0
0.785398 1.87076 0
0 1.87076 0
0.19635 1.87076 0
0 2.18345 0
0.19635 2.18345 0
0.19635 1.87076 0
0.392699 1.87076 0
0.19635 2.18345 0
0.392699 2.18345 0
0 2.18345 0
0.19635 2.18345 0
0 2.49613 0
0.19635 2.49613 0
0.19635 2.18345 0
0.392699 2.18345 0
0.19635 2.49613 0
0.392699 2.49613 0
0.392699 1.87076 0
0.589049 1.87076 0
0.392699 2.18345 0
0.589049 2.18345 0
0.589049 1.87076 0
0.785398 1.87076 0
0.589049 2.18345 0
0.785398 2.18345 0
0.392699 2.18345 0
0.589049 2.18345 0
0.392699 2.49613 0
0.589049 2.49613 0
0.589049 2.18345 0
0.785398 2.18345 0
0.589049 2.49613 0
0.785398 2.49613 0
0.785398 1.24539 0
0.981748 1.24539 0
0.785398 1.55807 0
0.981748 1.55807 0
0.981748 1.24539 0
1.1781 1.24539 0
0.981748 1.55807 0
1.1781 1.55807 0
0.785398 1.55807 0
0.981748 1.55807 0
0.785398 1.87076 0
0.981748 1.87076 0
0.981748 1.55807 0
1.1781 1.55807 0
0.981748 1.87076 0
1.1781 1.87076 0
1.1781 1.24539 0
1.37445 1.24539 0
1.1781 1.55807 0
1.37445 1.55807 0
1.37445 1.24539 0
1.5708 1.24539 0
1.37445 1.55807 0
1.5708 1.55807 0
1.1781 1.55807 0
1.37445 1.55807 0
1.1781 1.87076 0
1.37445 1.87076 0
1.37445 1.55807 0
1.5708 1.55807 0
1.37445 1.87076 0
1.5708 1.87076 0
0.785398 1.87076 0
0.981748 1.87076 0
0.785398 2.18345 0
0.981748 2.18345 0
0.981748 1.87076 0
1.1781 1.87076 0
0.981748 2.18345 0
1.1781 2.18345 0
0.785398 2.18345 0
0.981748 2.18345 0
0.785398 2.49613 0
0.981748 2.49613 0
0.981748 2.18345 0
1.1781 2.18345 0
0.981748 2.49613 0
1.1781 2.49613 0
1.1781 1.87076 0
1.37445 1.87076 0
1.1781 2.18345 0
1.37445 2.18345 0
1.37445 1.87076 0
1.5708 1.87076 0
1.37445 2.18345 0
1.5708 2.18345 0
1.1781 2.18345 0
1.37445 2.18345 0
1.1781 2.49613 0
1.37445 2.49613 0
1.37445 2.18345 0
1.5708 2.18345 0
1.37445 2.49613 0
1.5708 2.49613 0
1.5708 0 0
1.76715 0 0
1.5708 0.307415 0
1.76715 0.307415 0
1.76715 0 0
1.9635 0 0
1.76715 0.307415 0
1.9635 0.307415 0
1.5708 0.307415 0
1.76715 0.307415 0
1.5708 0.620129 0
1.76715 0.620129 0
1.76715 0.307415 0
1.9635 0.307415 0
1.76715 0.620129 0
1.9635 0.620129 0
1.9635 0 0
2.15984 0 0
1.9635 0.307415 0
2.15984 0.307415 0
2.15984 0 0
2.35619 0 0
2.15984 0.307415 0
2.35619 0.307415 0
1.9635 0.307415 0
2.15984 0.307415 0
1.9635 0.620129 0
2.15984 0.620129 0
2.15984 0.307415 0
2.35619 0.307415 0
2.15984 0.620129 0
2.35619 0.620129 0
1.5708 0.620129 0
1.76715 0.620129 0
1.5708 0.932666 0
1.76715 0.932666 0
1.76715 0.620129 0
1.9635 0.620129 0
1.76715 0.932666 0
1.9635 0.932666 0
1.5708 0.932666 0
1.76715 0.932666 0
1.5708 1.24539 0
1.76715 1.24539 0
1.76715 0.932666 0
1.9635 0.932666 0
1.76715 1.24539 0
1.9635 1.24539 0
1.9635 0.620129 0
2.15984 0.620129 0
1.9635 0.932666 0
2.15984 0.932666 0
2.15984 0.620129 0
2.35619 0.620129 0
2.15984 0.932666 0
2.35619 0.932666 0
1.9635 0.932666 0
2.15984 0.932666 0
1.9635 1.24539 0
2.15984 1.24539 0
2.15984 0.932666 0
2.35619 0.932666 0
2.15984 1.24539 0
2.35619 1.24539 0
2.35619 0 0
2.55254 0 0
2.35619 0.307415 0
2.55254 0.307415 0
2.55254 0 0
2.74889 0 0
2.55254 0.307415 0
2.74889 0.307415 0
2.35619 0.307415 0
2.55254 0.307415 0
2.35619 0.620129 0
2.55254 0.620129 0
2.55254 0.307415 0
2.74889 0.307415 0
2.55254 0.620129 0
2.74889 0.620129 0
2.74889 0 0
2.94524 0 0
2.74889 0.307415 0
2.94524 0.307415 0
2.94524 0 0
3.14159 0 0
2.94524 0.307415 0
3.14159 0.307415 0
2.74889 0.307415 0
2.94524 0.307415 0
2.74889 0.620129 0
2.94524 0.620129 0
2.94524 0.307415 0
3.14159 0.307415 0
2.94524 0.620129 0
3.14159 0.620129 0
2.35619 0.620129 0
2.55254 0.620129 0
2.35619 0.932666 0
2.55254 0.932666 0
2.55254 0.620129 0
2.74889 0.620129 0
2.55254 0.932666 0
2.74889 0.932666 0
2.35619 0.932666 0
2.55254 0.932666 0
2.35619 1.24539 0
2.55254 1.24539 0
2.55254 0.932666 0
2.74889 0.932666 0
2.55254 1.24539 0
2.74889 1.24539 0
2.74889 0.620129 0
2.94524 0.620129 0
2.74889 0.932666 0
2.94524 0.932666 0
2.94524 0.620129 0
3.14159 0.620129 0
2.94524 0.932666 0
3.14159 0.932666 0
2.74889 0.932666 0
2.94524 0.932666 0
2.74889 1.24539 0
2.94524 1.24539 0
2.94524 0.932666 0
3.14159 0.932666 0
2.94524 1.24539 0
3.14159 1.24539 0
1.5708 1.24539 0
1.76715 1.24539 0
1.5708 1.55807 0
1.76715 1.55807 0
1.76715 1.24539 0
1.9635 1.24539 0
1.76715 1.55807 0
1.9635 1.55807 0
1.5708 1.55807 0
1.76715 1.55807 0
1.5708 1.87076 0
1.76715 1.87076 0
1.76715 1.55807 0
1.9635 1.55807 0
1.76715 1.87076 0
1.9635 1.87076 0
1.9635 1.24539 0
2.15984 1.24539 0
1.9635 1.55807 0
2.15984 1.55807 0
2.15984 1.24539 0
2.35619 1.24539 0
2.15984 1.55807 0
2.35619 1.55807 0
1.9635 1.55807 0
2.15984 1.55807 0
1.9635 1.87076 0
2.15984 1.87076 0
2.15984 1.55807 0
2.35619 1.55807 0
2.15984 1.87076 0
2.35619 1.87076 0
1.5708 1.87076 0
1.76715 1.87076 0
1.5708 2.18345 0
1.76715 2.18345 0
1.76715 1.87076 0
1.9635 1.87076 0
1.76715 2.18345 0
1.9635 2.18345 0
1.5708 2.18345 0
1.76715 2.18345 0
1.5708 2.49613 0
1.76715 2.49613 0
1.76715 2.18345 0
1.9635 2.18345 0
1.76715 2.49613 0
1.9635 2.49613 0
1.9635 1.87076 0
2.15984 1.87076 0
1.9635 2.18345 0
2.15984 2.18345 0
2.15984 1.87076 0
2.35619 1.87076 0
2.15984 2.18345 0
2.35619 2.18345 0
1.9635 2.18345 0
2.15984 2.18345 0
1.9635 2.49613 0
2.15984 2.49613 0
2.15984 2.18345 0
2.35619 2.18345 0
2.15984 2.49613 0
2.35619 2.49613 0
2.35619 1.24539 0
2.55254 1.24539 0
2.35619 1.55807 0
2.55254 1.55807 0
2.55254 1.24539 0
2.74889 1.24539 0
2.55254 1.55807 0
2.74889 1.55807 0
2.35619 1.55807 0
2.55254 1.55807 0
2.35619 1.87076 0
2.55254 1.87076 0
2.55254 1.55807 0
2.74889 1.55807 0
2.55254 1.87076 0
2.74889 1.87076 0
2.74889 1.24539 0
2.94524 1.24539 0
2.74889 1.55807 0
2.94524 1.55807 0
2.94524 1.24539 0
3.14159 1.24539 0
2.94524 1.55807 0
3.14159 1.55807 0
2.74889 1.55807 0
2.94524 1.55807 0
2.74889 1.87076 0
2.94524 1.87076 0
2.94524 1.55807 0
3.14159 1.55807 0
2.94524 1.87076 0
3.14159 1.87076 0
2.35619 1.87076 0
2.55254 1.87076 0
2.35619 2.18345 0
2.55254 2.18345 0
2.55254 1.87076 0
2.74889 1.87076 0
2.55254 2.18345 0
2.74889 2.18345 0
2.35619 2.18345 0
2.55254 2.18345 0
2.35619 2.49613 0
2.55254 2.49613 0
2.55254 2.18345 0
2.74889 2.18345 0
2.55254 2.49613 0
2.74889 2.49613 0
2.74889 1.87076 0
2.94524 1.87076 0
2.74889 2.18345 0
2.94524 2.18345 0
2.94524 1.87076 0
3.14159 1.87076 0
2.94524 2.18345 0
3.14159 2.18345 0
2.74889 2.18345 0
2.94524 2.18345 0
2.74889 2.49613 0
2.94524 2.49613 0
2.94524 2.18345 0
3.14159 2.18345 0
2.94524 2.49613 0
3.14159 2.49613 0
0 2.49613 0
0.19635 2.49613 0
0 2.80881 0
0.19635 2.80881 0
0.19635 2.49613 0
0.392699 2.49613 0
0.19635 2.80881 0
0.392699 2.80881 0
0 2.80881 0
0.19635 2.80881 0
0 3.12148 0
0.19635 3.12148 0
0.19635 2.80881 0
0.392699 2.80881 0
0.19635 3.12148 0
0.392699 3.12148 0
0.392699 2.49613 0
0.589049 2.49613 0
0.392699 2.80881 0
0.589049 2.80881 0
0.589049 2.49613 0
0.785398 2.49613 0
0.589049 2.80881 0
0.785398 2.80881 0
0.392699 2.80881 0
0.589049 2.80881 0
0.392699 3.12148 0
0.589049 3.12148 0
0.589049 2.80881 0
0.785398 2.80881 0
0.589049 3.12148 0
0.785398 3.12148 0
0 3.12148 0
0.19635 3.12148 0
0 3.43416 0
0.19635 3.43416 0
0.19635 3.12148 0
0.392699 3.12148 0
0.19635 3.43416 0
[...]
POINT_DATA 20480
VECTORS uf double
0 1 0
-7.98879e-15 1 0
0 1.00001 0
8.49813e-15 1.00001 0
-7.98879e-15 1 0
-5.84741e-15 1 0
8.49813e-15 1.00001 0
5.92263e-15 1.00001 0
0 1.00001 0
-7.11288e-15 1.00001 0
0 1.00001 0
1.01215e-14 1.00001 0
-7.11288e-15 1.00001 0
-5.16685e-15 1.00001 0
1.01215e-14 1.00001 0
7.12818e-15 1.00001 0
-5.84741e-15 1 0
-2.09886e-15 1 0
5.92263e-15 1.00001 0
1.92432e-16 1.00001 0
-2.09886e-15 1 0
-1.95084e-14 1 0
1.92432e-16 1.00001 0
1.60291e-14 1.00001 0
-5.16685e-15 1.00001 0
-1.41297e-15 1.00001 0
7.12818e-15 1.00001 0
7.14072e-15 1.00001 0
-1.41297e-15 1.00001 0
3.06039e-15 1.00001 0
7.14072e-15 1.00001 0
6.96315e-15 1.00001 0
0 1.00001 0
-1.40987e-14 1.00001 0
0 1.00001 0
3.00433e-14 1.00001 0
-1.40987e-14 1.00001 0
-1.07727e-15 1.00001 0
3.00433e-14 1.00001 0
1.13954e-14 1.00001 0
0 1.00001 0
-2.96665e-14 1.00001 0
0 1.00001 0
2.14282e-14 1.00001 0
-2.96665e-14 1.00001 0
-2.75694e-14 1.00001 0
2.14282e-14 1.00001 0
2.21806e-14 1.00001 0
-1.07727e-15 1.00001 0
-7.00067e-15 1.00001 0
1.13954e-14 1.00001 0
1.52718e-14 1.00001 0
-7.00067e-15 1.00001 0
-1.05661e-14 1.00001 0
1.52718e-14 1.00001 0
1.01993e-14 1.00001 0
-2.75694e-14 1.00001 0
-2.29495e-14 1.00001 0
2.21806e-14 1.00001 0
2.50532e-14 1.00001 0
-2.29495e-14 1.00001 0
-1.6073e-14 1.00001 0
2.50532e-14 1.00001 0
2.94032e-14 1.00001 0
-1.95084e-14 1 0
-8.03141e-15 1 0
1.60291e-14 1.00001 0
6.98764e-15 1.00001 0
-8.03141e-15 1 0
-2.0323e-15 1 0
6.98764e-15 1.00001 0
1.26158e-14 1.00001 0
3.06039e-15 1.00001 0
-1.46669e-14 1.00001 0
6.96315e-15 1.00001 0
2.11159e-14 1.00001 0
-1.46669e-14 1.00001 0
-1.57569e-14 1.00001 0
2.11159e-14 1.00001 0
2.1339e-14 1.00001 0
-2.0323e-15 1 0
-2.89958e-14 1 0
1.26158e-14 1.00001 0
3.53646e-14 1.00001 0
-2.89958e-14 1 0
-1.83061e-14 1 0
3.53646e-14 1.00001 0
1.41699e-14 1.00001 0
-1.57569e-14 1.00001 0
-2.56613e-14 1.00001 0
2.1339e-14 1.00001 0
2.85649e-14 1.00001 0
-2.56613e-14 1.00001 0
-2.7362e-15 1.00001 0
2.85649e-14 1.00001 0
7.93849e-15 1.00001 0
-1.05661e-14 1.00001 0
-2.04901e-14 1.00001 0
1.01993e-14 1.00001 0
2.38668e-14 1.00001 0
-2.04901e-14 1.00001 0
-2.48256e-14 1.00001 0
2.38668e-14 1.00001 0
2.08234e-14 1.00001 0
-1.6073e-14 1.00001 0
-1.95615e-14 1.00001 0
2.94032e-14 1.00001 0
2.34724e-14 1.00001 0
-1.95615e-14 1.00001 0
-2.25123e-14 1.00001 0
2.34724e-14 1.00001 0
2.28024e-14 1.00001 0
-2.48256e-14 1.00001 0
-1.62577e-14 1.00001 0
2.08234e-14 1.00001 0
1.94398e-14 1.00001 0
-1.62577e-14 1.00001 0
-9.85668e-15 1.00001 0
1.94398e-14 1.00001 0
2.65381e-14 1.00001 0
-2.25123e-14 1.00001 0
-1.22159e-14 1.00001 0
2.28024e-14 1.00001 0
4.42034e-15 1.00001 0
-1.22159e-14 1.00001 0
-1.26374e-14 1.00001 0
4.42034e-15 1.00001 0
-6.16044e-16 1.00001 0
0 1.00001 0
-2.32831e-14 1.00001 0
0 1.00001 0
1.78002e-14 1.00001 0
-2.32831e-14 1.00001 0
-4.5222e-15 1.00001 0
1.78002e-14 1.00001 0
1.07586e-15 1.00001 0
0 1.00001 0
-6.33072e-15 1.00001 0
0 1.00001 0
-4.06423e-15 1.00001 0
-6.33072e-15 1.00001 0
-9.46143e-15 1.00001 0
-4.06423e-15 1.00001 0
1.22692e-14 1.00001 0
-4.5222e-15 1.00001 0
-1.18645e-14 1.00001 0
1.07586e-15 1.00001 0
3.39212e-16 1.00001 0
-1.18645e-14 1.00001 0
-4.05252e-14 1.00001 0
3.39212e-16 1.00001 0
3.17583e-14 1.00001 0
-9.46143e-15 1.00001 0
-1.26996e-14 1.00001 0
1.22692e-14 1.00001 0
1.37142e-14 1.00001 0
-1.26996e-14 1.00001 0
-2.87454e-14 1.00001 0
1.37142e-14 1.00001 0
3.37451e-14 1.00001 0
0 1.00001 0
-1.29574e-14 1.00001 0
0 1.00001 0
1.64068e-14 1.00001 0
-1.29574e-14 1.00001 0
-1.87929e-14 1.00001 0
1.64068e-14 1.00001 0
1.07906e-14 1.00001 0
0 1.00001 0
-1.2105e-14 1.00001 0
0 1.00001 0
1.60625e-14 1.00001 0
-1.2105e-14 1.00001 0
-1.43944e-14 1.00001 0
1.60625e-14 1.00001 0
2.33336e-14 1.00001 0
-1.87929e-14 1.00001 0
-1.27558e-14 1.00001 0
1.07906e-14 1.00001 0
6.4942e-15 1.00001 0
-1.27558e-14 1.00001 0
-4.84848e-14 1.00001 0
6.4942e-15 1.00001 0
3.4275e-14 1.00001 0
-1.43944e-14 1.00001 0
-4.49099e-15 1.00001 0
2.33336e-14 1.00001 0
7.86519e-16 1.00001 0
-4.49099e-15 1.00001 0
-1.83852e-14 1.00001 0
7.86519e-16 1.00001 0
1.84284e-14 1.00001 0
-4.05252e-14 1.00001 0
-2.11737e-14 1.00001 0
3.17583e-14 1.00001 0
1.87612e-14 1.00001 0
-2.11737e-14 1.00001 0
-7.46885e-15 1.00001 0
1.87612e-14 1.00001 0
6.04677e-15 1.00001 0
-2.87454e-14 1.00001 0
-1.78508e-14 1.00001 0
3.37451e-14 1.00001 0
1.29283e-14 1.00001 0
-1.78508e-14 1.00001 0
-1.53623e-14 1.00001 0
1.29283e-14 1.00001 0
1.41957e-14 1.00001 0
-7.46885e-15 1.00001 0
-2.96347e-15 1.00001 0
6.04677e-15 1.00001 0
1.07437e-14 1.00001 0
-2.96347e-15 1.00001 0
4.23642e-15 1.00001 0
1.07437e-14 1.00001 0
1.67709e-15 1.00001 0
-1.53623e-14 1.00001 0
-2.93615e-15 1.00001 0
1.41957e-14 1.00001 0
4.79838e-15 1.00001 0
-2.93615e-15 1.00001 0
-6.17142e-15 1.00001 0
4.79838e-15 1.00001 0
2.47468e-15 1.00001 0
-4.84848e-14 1.00001 0
-1.04104e-14 1.00001 0
3.4275e-14 1.00001 0
1.70231e-14 1.00001 0
-1.04104e-14 1.00001 0
-2.15847e-14 1.00001 0
1.70231e-14 1.00001 0
3.53852e-14 1.00001 0
-1.83852e-14 1.00001 0
-2.88643e-14 1.00001 0
1.84284e-14 1.00001 0
2.55609e-14 1.00001 0
-2.88643e-14 1.00001 0
-4.41201e-14 1.00001 0
2.55609e-14 1.00001 0
3.61281e-14 1.00001 0
-2.15847e-14 1.00001 0
-2.05408e-14 1.00001 0
3.53852e-14 1.00001 0
2.12495e-14 1.00001 0
-2.05408e-14 1.00001 0
-1.06307e-14 1.00001 0
2.12495e-14 1.00001 0
1.54485e-14 1.00001 0
-4.41201e-14 1.00001 0
-1.50986e-14 1.00001 0
3.61281e-14 1.00001 0
1.30303e-14 1.00001 0
-1.50986e-14 1.00001 0
-1.96433e-14 1.00001 0
1.30303e-14 1.00001 0
1.95638e-14 1.00001 0
-1.83061e-14 1 0
-1.36016e-14 1 0
1.41699e-14 1.00001 0
2.45051e-14 1.00001 0
-1.36016e-14 1 0
-8.78843e-15 1 0
2.45051e-14 1.00001 0
1.77703e-14 1.00001 0
-2.7362e-15 1.00001 0
-2.01792e-14 1.00001 0
7.93849e-15 1.00001 0
2.46925e-14 1.00001 0
-2.01792e-14 1.00001 0
-1.68342e-14 1.00001 0
2.46925e-14 1.00001 0
2.05556e-14 1.00001 0
-8.78843e-15 1 0
-2.47895e-15 1 0
1.77703e-14 1.00001 0
1.39495e-14 1.00001 0
-2.47895e-15 1 0
-6.614e-15 1 0
1.39495e-14 1.00001 0
8.80424e-15 1.00001 0
-1.68342e-14 1.00001 0
-2.47326e-14 1.00001 0
2.05556e-14 1.00001 0
2.15049e-14 1.00001 0
-2.47326e-14 1.00001 0
-4.7697e-15 1.00001 0
2.15049e-14 1.00001 0
-5.6199e-15 1.00001 0
-9.85668e-15 1.00001 0
-2.7206e-14 1.00001 0
2.65381e-14 1.00001 0
2.84564e-14 1.00001 0
-2.7206e-14 1.00001 0
-1.63982e-14 1.00001 0
2.84564e-14 1.00001 0
1.31485e-14 1.00001 0
-1.26374e-14 1.00001 0
-1.96822e-14 1.00001 0
-6.16044e-16 1.00001 0
1.30273e-14 1.00001 0
-1.96822e-14 1.00001 0
-9.055e-15 1.00001 0
1.30273e-14 1.00001 0
7.35392e-15 1.00001 0
-1.63982e-14 1.00001 0
-1.05861e-14 1.00001 0
1.31485e-14 1.00001 0
1.85062e-14 1.00001 0
-1.05861e-14 1.00001 0
2.48136e-14 1.00001 0
1.85062e-14 1.00001 0
-8.06775e-15 1.00001 0
-9.055e-15 1.00001 0
-2.66561e-14 1.00001 0
7.35392e-15 1.00001 0
2.7824e-14 1.00001 0
-2.66561e-14 1.00001 0
4.85169e-15 1.00001 0
2.7824e-14 1.00001 0
-8.0846e-15 1.00001 0
-6.614e-15 1 0
-4.85175e-15 1 0
8.80424e-15 1.00001 0
5.67487e-15 1.00001 0
-4.85175e-15 1 0
-1.51404e-14 1 0
5.67487e-15 1.00001 0
3.88881e-14 1.00001 0
-4.7697e-15 1.00001 0
2.37555e-15 1.00001 0
-5.6199e-15 1.00001 0
4.4997e-15 1.00001 0
2.37555e-15 1.00001 0
-2.89442e-14 1.00001 0
4.4997e-15 1.00001 0
2.03497e-14 1.00001 0
-1.51404e-14 1 0
3.65667e-15 1 0
3.88881e-14 1.00001 0
1.30367e-14 1.00001 0
3.65667e-15 1 0
-1.72912e-15 1 0
1.30367e-14 1.00001 0
5.19416e-15 1.00001 0
-2.89442e-14 1.00001 0
-1.28543e-14 1.00001 0
2.03497e-14 1.00001 0
5.82374e-15 1.00001 0
-1.28543e-14 1.00001 0
-2.23105e-14 1.00001 0
5.82374e-15 1.00001 0
4.24189e-14 1.00001 0
2.48136e-14 1.00001 0
8.92634e-16 1.00001 0
-8.06775e-15 1.00001 0
3.3733e-15 1.00001 0
8.92634e-16 1.00001 0
-1.49608e-14 1.00001 0
3.3733e-15 1.00001 0
2.22687e-14 1.00001 0
4.85169e-15 1.00001 0
7.78497e-15 1.00001 0
-8.0846e-15 1.00001 0
-1.94339e-14 1.00001 0
7.78497e-15 1.00001 0
-3.00628e-14 1.00001 0
-1.94339e-14 1.00001 0
3.08554e-14 1.00001 0
-1.49608e-14 1.00001 0
-1.34324e-14 1.00001 0
2.22687e-14 1.00001 0
2.63772e-14 1.00001 0
-1.34324e-14 1.00001 0
-2.99369e-14 1.00001 0
2.63772e-14 1.00001 0
3.78398e-14 1.00001 0
-3.00628e-14 1.00001 0
-3.08577e-14 1.00001 0
3.08554e-14 1.00001 0
3.63095e-14 1.00001 0
-3.08577e-14 1.00001 0
-3.31002e-14 1.00001 0
3.63095e-14 1.00001 0
2.37919e-14 1.00001 0
4.23642e-15 1.00001 0
-1.17026e-14 1.00001 0
1.67709e-15 1.00001 0
1.02577e-14 1.00001 0
-1.17026e-14 1.00001 0
-9.65707e-15 1.00001 0
1.02577e-14 1.00001 0
1.88598e-14 1.00001 0
-6.17142e-15 1.00001 0
-1.45312e-14 1.00001 0
2.47468e-15 1.00001 0
2.12022e-14 1.00001 0
-1.45312e-14 1.00001 0
-1.91877e-14 1.00001 0
2.12022e-14 1.00001 0
1.48059e-14 1.00001 0
-9.65707e-15 1.00001 0
-1.93874e-14 1.00001 0
1.88598e-14 1.00001 0
1.49825e-14 1.00001 0
-1.93874e-14 1.00001 0
1.56768e-15 1.00001 0
1.49825e-14 1.00001 0
1.04188e-14 1.00001 0
-1.91877e-14 1.00001 0
-1.66491e-14 1.00001 0
1.48059e-14 1.00001 0
1.3418e-14 1.00001 0
-1.66491e-14 1.00001 0
-1.62134e-14 1.00001 0
1.3418e-14 1.00001 0
1.46541e-14 1.00001 0
-1.06307e-14 1.00001 0
-2.93186e-14 1.00001 0
1.54485e-14 1.00001 0
2.66131e-14 1.00001 0
-2.93186e-14 1.00001 0
-1.67615e-14 1.00001 0
2.66131e-14 1.00001 0
2.03982e-14 1.00001 0
-1.96433e-14 1.00001 0
-5.7713e-15 1.00001 0
1.95638e-14 1.00001 0
-2.51058e-15 1.00001 0
-5.7713e-15 1.00001 0
-3.03862e-14 1.00001 0
-2.51058e-15 1.00001 0
2.97324e-14 1.00001 0
-1.67615e-14 1.00001 0
-2.45959e-14 1.00001 0
2.03982e-14 1.00001 0
2.97677e-14 1.00001 0
-2.45959e-14 1.00001 0
-1.75701e-14 1.00001 0
2.97677e-14 1.00001 0
2.05381e-14 1.00001 0
-3.03862e-14 1.00001 0
-6.62727e-15 1.00001 0
2.97324e-14 1.00001 0
5.93521e-15 1.00001 0
-6.62727e-15 1.00001 0
-5.58885e-15 1.00001 0
5.93521e-15 1.00001 0
-4.45437e-15 1.00001 0
1.56768e-15 1.00001 0
1.6918e-14 1.00001 0
1.04188e-14 1.00001 0
-8.9344e-15 1.00001 0
1.6918e-14 1.00001 0
-1.96245e-14 1.00001 0
-8.9344e-15 1.00001 0
1.59574e-14 1.00001 0
-1.62134e-14 1.00001 0
4.15374e-15 1.00001 0
1.46541e-14 1.00001 0
2.29094e-15 1.00001 0
4.15374e-15 1.00001 0
-1.65351e-14 1.00001 0
2.29094e-15 1.00001 0
1.1975e-14 1.00001 0
-1.96245e-14 1.00001 0
-2.73162e-14 1.00001 0
1.59574e-14 1.00001 0
1.70962e-14 1.00001 0
-2.73162e-14 1.00001 0
-2.25709e-14 1.00001 0
1.70962e-14 1.00001 0
2.30052e-14 1.00001 0
-1.65351e-14 1.00001 0
-1.98205e-14 1.00001 0
1.1975e-14 1.00001 0
1.78372e-14 1.00001 0
-1.98205e-14 1.00001 0
-1.88368e-14 1.00001 0
1.78372e-14 1.00001 0
1.98556e-14 1.00001 0
-1.75701e-14 1.00001 0
-1.49006e-14 1.00001 0
2.05381e-14 1.00001 0
1.47868e-14 1.00001 0
-1.49006e-14 1.00001 0
-5.64519e-15 1.00001 0
1.47868e-14 1.00001 0
8.09365e-15 1.00001 0
-5.58885e-15 1.00001 0
-1.22083e-14 1.00001 0
-4.45437e-15 1.00001 0
1.19676e-14 1.00001 0
-1.22083e-14 1.00001 0
-1.15904e-14 1.00001 0
1.19676e-14 1.00001 0
9.48787e-15 1.00001 0
-5.64519e-15 1.00001 0
-6.14468e-15 1.00001 0
8.09365e-15 1.00001 0
3.39652e-15 1.00001 0
-6.14468e-15 1.00001 0
-3.79926e-14 1.00001 0
3.39652e-15 1.00001 0
3.89025e-14 1.00001 0
-1.15904e-14 1.00001 0
-5.14032e-16 1.00001 0
9.48787e-15 1.00001 0
1.15169e-15 1.00001 0
-5.14032e-16 1.00001 0
-2.10603e-14 1.00001 0
1.15169e-15 1.00001 0
1.16948e-14 1.00001 0
0 1.00001 0
-1.22132e-14 1.00001 0
0 1 0
1.77531e-14 1 0
-1.22132e-14 1.00001 0
-1.52446e-14 1.00001 0
1.77531e-14 1 0
-3.75786e-16 1 0
0 1 0
-1.53842e-14 1 0
0 1 0
6.79682e-15 1 0
-1.53842e-14 1 0
-9.68282e-15 1 0
6.79682e-15 1 0
3.92301e-15 1 0
-1.52446e-14 1.00001 0
8.95454e-16 1.00001 0
-3.75786e-16 1 0
4.89815e-15 1 0
8.95454e-16 1.00001 0
-7.41157e-15 1.00001 0
4.89815e-15 1 0
8.13238e-15 1 0
-9.68282e-15 1 0
-3.55209e-15 1 0
3.92301e-15 1 0
7.72767e-15 1 0
-3.55209e-15 1 0
-1.10093e-14 1 0
7.72767e-15 1 0
9.33818e-15 1 0
0 1 0
-4.09736e-15 1 0
0 1 0
6.52616e-15 1 0
-4.09736e-15 1 0
1.4604e-14 1 0
6.52616e-15 1 0
2.64789e-15 1 0
0 1 0
-1.30777e-14 1 0
0 1 0
1.87214e-14 1 0
-1.30777e-14 1 0
-5.57365e-15 1 0
1.87214e-14 1 0
-9.46678e-16 1 0
1.4604e-14 1 0
-1.104e-15 1 0
2.64789e-15 1 0
-4.64851e-16 1 0
-1.104e-15 1 0
-7.78919e-15 1 0
-4.64851e-16 1 0
-5.81765e-15 1 0
-5.57365e-15 1 0
-3.92993e-15 1 0
-9.46678e-16 1 0
5.42084e-15 1 0
-3.92993e-15 1 0
1.80963e-15 1 0
5.42084e-15 1 0
1.40358e-14 1 0
-7.41157e-15 1.00001 0
-1.95104e-14 1.00001 0
8.13238e-15 1 0
1.77214e-14 1 0
-1.95104e-14 1.00001 0
-3.13861e-14 1.00001 0
1.77214e-14 1 0
2.59543e-14 1 0
-1.10093e-14 1 0
-2.03435e-14 1 0
9.33818e-15 1 0
2.08612e-14 1 0
-2.03435e-14 1 0
-1.04913e-14 1 0
2.08612e-14 1 0
1.11723e-14 1 0
-3.13861e-14 1.00001 0
-1.75806e-14 1.00001 0
2.59543e-14 1 0
2.13309e-15 1 0
-1.75806e-14 1.00001 0
-2.20688e-14 1.00001 0
2.13309e-15 1 0
2.4851e-14 1 0
-1.04913e-14 1 0
8.14218e-15 1 0
1.11723e-14 1 0
8.43715e-15 1 0
8.14218e-15 1 0
-2.0773e-14 1 0
8.43715e-15 1 0
2.54884e-14 1 0
-7.78919e-15 1 0
-1.8539e-14 1 0
-5.81765e-15 1 0
1.32155e-14 1 0
-1.8539e-14 1 0
-2.04189e-14 1 0
1.32155e-14 1 0
1.85707e-14 1 0
1.80963e-15 1 0
-7.14348e-15 1 0
1.40358e-14 1 0
7.6505e-15 1 0
-7.14348e-15 1 0
1.01496e-15 1 0
7.6505e-15 1 0
-7.12774e-15 1 0
-2.04189e-14 1 0
-1.25782e-14 1 0
1.85707e-14 1 0
7.50663e-15 1 0
-1.25782e-14 1 0
-1.31326e-14 1 0
7.50663e-15 1 0
1.18261e-14 1 0
1.01496e-15 1 0
-1.17971e-14 1 0
-7.12774e-15 1 0
1.41534e-14 1 0
-1.17971e-14 1 0
-3.01356e-14 1 0
1.41534e-14 1 0
3.35553e-14 1 0
0 1 0
-1.50323e-14 1 0
0 1 0
8.5857e-15 1 0
-1.50323e-14 1 0
-7.63853e-15 1 0
8.5857e-15 1 0
7.741e-15 1 0
0 1 0
1.73687e-15 1 0
0 1 0
1.41655e-15 1 0
1.73687e-15 1 0
-4.54758e-15 1 0
1.41655e-15 1 0
-2.63778e-15 1 0
-7.63853e-15 1 0
-2.50483e-15 1 0
7.741e-15 1 0
7.46685e-15 1 0
-2.50483e-15 1 0
-1.51799e-14 1 0
7.46685e-15 1 0
1.32694e-14 1 0
-4.54758e-15 1 0
-7.44901e-15 1 0
-2.63778e-15 1 0
9.5538e-15 1 0
-7.44901e-15 1 0
-1.59972e-14 1 0
9.5538e-15 1 0
1.50866e-14 1 0
0 1 0
-6.48438e-15 1 0
0 1 0
-4.1206e-15 1 0
-6.48438e-15 1 0
-9.39234e-15 1 0
-4.1206e-15 1 0
-2.37524e-15 1 0
0 1 0
-7.55507e-15 1 0
0 1 0
3.64903e-15 1 0
-7.55507e-15 1 0
-4.24418e-15 1 0
3.64903e-15 1 0
1.93269e-14 1 0
-9.39234e-15 1 0
-3.25024e-14 1 0
-2.37524e-15 1 0
-1.59208e-14 1 0
-3.25024e-14 1 0
-1.70136e-14 1 0
-1.59208e-14 1 0
6.78381e-15 1 0
-4.24418e-15 1 0
1.63753e-14 1 0
1.93269e-14 1 0
2.24151e-14 1 0
1.63753e-14 1 0
-1.57844e-15 1 0
2.24151e-14 1 0
4.1699e-15 1 0
-1.51799e-14 1 0
-3.23814e-14 1 0
1.32694e-14 1 0
1.62282e-14 1 0
-3.23814e-14 1 0
4.0319e-15 1 0
1.62282e-14 1 0
3.46395e-15 1 0
-1.59972e-14 1 0
-1.0157e-14 1 0
1.50866e-14 1 0
1.5772e-14 1 0
-1.0157e-14 1 0
-1.29777e-14 1 0
1.5772e-14 1 0
2.06494e-14 1 0
4.0319e-15 1 0
-1.01731e-14 1 0
3.46395e-15 1 0
7.08041e-15 1 0
-1.01731e-14 1 0
-3.3992e-14 1 0
7.08041e-15 1 0
3.719e-14 1 0
-1.29777e-14 1 0
-5.67229e-15 1 0
2.06494e-14 1 0
9.58021e-16 1 0
-5.67229e-15 1 0
-3.09138e-14 1 0
9.58021e-16 1 0
3.15378e-14 1 0
-1.70136e-14 1 0
-2.70775e-14 1 0
6.78381e-15 1 0
9.5155e-15 1 0
-2.70775e-14 1 0
-1.77631e-14 1 0
9.5155e-15 1 0
6.34013e-15 1 0
-1.57844e-15 1 0
-9.52979e-16 1 0
4.1699e-15 1 0
2.82037e-14 1 0
-9.52979e-16 1 0
3.95353e-15 1 0
2.82037e-14 1 0
-3.85656e-15 1 0
-1.77631e-14 1 0
-2.25072e-15 1 0
6.34013e-15 1 0
1.21944e-14 1 0
-2.25072e-15 1 0
-3.08254e-14 1 0
1.21944e-14 1 0
2.1587e-14 1 0
3.95353e-15 1 0
-1.32539e-14 1 0
-3.85656e-15 1 0
1.06227e-14 1 0
-1.32539e-14 1 0
-2.32665e-14 1 0
1.06227e-14 1 0
1.40857e-14 1 0
-2.20688e-14 1.00001 0
-4.43086e-15 1.00001 0
2.4851e-14 1 0
1.05406e-14 1 0
-4.43086e-15 1.00001 0
-2.63898e-14 1.00001 0
1.05406e-14 1 0
3.18437e-14 1 0
-2.0773e-14 1 0
-7.39022e-15 1 0
2.54884e-14 1 0
1.13536e-14 1 0
-7.39022e-15 1 0
-5.53856e-15 1 0
1.13536e-14 1 0
-7.84675e-15 1 0
-2.63898e-14 1.00001 0
-1.42717e-14 1.00001 0
3.18437e-14 1 0
2.46004e-14 1 0
-1.42717e-14 1.00001 0
-2.68295e-15 1.00001 0
2.46004e-14 1 0
1.50643e-14 1 0
-5.53856e-15 1 0
-1.16421e-14 1 0
-7.84675e-15 1 0
6.82166e-15 1 0
-1.16421e-14 1 0
-1.15403e-14 1 0
6.82166e-15 1 0
1.46923e-14 1 0
-1.31326e-14 1 0
-1.61326e-14 1 0
1.18261e-14 1 0
2.21452e-14 1 0
-1.61326e-14 1 0
1.28465e-14 1 0
2.21452e-14 1 0
-6.72981e-15 1 0
-3.01356e-14 1 0
-1.80074e-14 1 0
3.35553e-14 1 0
1.77667e-14 1 0
-1.80074e-14 1 0
-5.53623e-15 1 0
1.77667e-14 1 0
1.6557e-14 1 0
1.28465e-14 1 0
-5.41467e-15 1 0
-6.72981e-15 1 0
3.41396e-15 1 0
-5.41467e-15 1 0
-2.11996e-14 1 0
3.41396e-15 1 0
2.17583e-14 1 0
-5.53623e-15 1 0
-7.16477e-15 1 0
1.6557e-14 1 0
1.67716e-14 1 0
-7.16477e-15 1 0
-1.14609e-14 1 0
1.67716e-14 1 0
1.49347e-14 1 0
-2.68295e-15 1.00001 0
-8.51848e-15 1.00001 0
1.50643e-14 1 0
1.26562e-14 1 0
-8.51848e-15 1.00001 0
-8.36714e-15 1.00001 0
1.26562e-14 1 0
5.70777e-15 1 0
-1.15403e-14 1 0
-5.03095e-15 1 0
1.46923e-14 1 0
5.86695e-15 1 0
-5.03095e-15 1 0
1.60902e-15 1 0
5.86695e-15 1 0
6.79641e-16 1 0
-8.36714e-15 1.00001 0
-1.89712e-15 1.00001 0
5.70777e-15 1 0
8.7595e-15 1 0
-1.89712e-15 1.00001 0
-8.99149e-16 1.00001 0
8.7595e-15 1 0
2.80328e-15 1 0
1.60902e-15 1 0
-2.08101e-15 1 0
6.79641e-16 1 0
4.14766e-15 1 0
-2.08101e-15 1 0
5.03665e-15 1 0
4.14766e-15 1 0
-9.55249e-16 1 0
-2.11996e-14 1 0
2.05992e-15 1 0
2.17583e-14 1 0
-4.03776e-16 1 0
2.05992e-15 1 0
6.6616e-16 1 0
-4.03776e-16 1 0
3.62113e-15 1 0
-1.14609e-14 1 0
-7.60947e-15 1 0
1.49347e-14 1 0
3.08481e-15 1 0
-7.60947e-15 1 0
-1.95832e-15 1 0
3.08481e-15 1 0
-1.01341e-15 1 0
6.6616e-16 1 0
-6.19588e-15 1 0
3.62113e-15 1 0
2.30452e-15 1 0
-6.19588e-15 1 0
6.71312e-15 1 0
2.30452e-15 1 0
-1.14058e-14 1 0
-1.95832e-15 1 0
-5.86455e-15 1 0
-1.01341e-15 1 0
1.2035e-14 1 0
-5.86455e-15 1 0
8.53253e-15 1 0
1.2035e-14 1 0
2.36729e-15 1 0
-3.3992e-14 1 0
-1.6202e-14 1 0
3.719e-14 1 0
1.74493e-14 1 0
-1.6202e-14 1 0
-2.24346e-14 1 0
1.74493e-14 1 0
1.85316e-14 1 0
-3.09138e-14 1 0
-1.6883e-14 1 0
3.15378e-14 1 0
1.58101e-14 1 0
-1.6883e-14 1 0
-2.30533e-14 1 0
1.58101e-14 1 0
1.86924e-14 1 0
-2.24346e-14 1 0
-1.7676e-14 1 0
1.85316e-14 1 0
1.36215e-14 1 0
-1.7676e-14 1 0
-1.68882e-14 1 0
1.36215e-14 1 0
1.09334e-14 1 0
-2.30533e-14 1 0
-1.30152e-14 1 0
1.86924e-14 1 0
8.90068e-15 1 0
-1.30152e-14 1 0
-1.18301e-14 1 0
8.90068e-15 1 0
3.25889e-15 1 0
-3.08254e-14 1 0
-3.31405e-14 1 0
2.1587e-14 1 0
2.40155e-14 1 0
-3.31405e-14 1 0
-2.70183e-14 1 0
2.40155e-14 1 0
1.25844e-14 1 0
-2.32665e-14 1 0
-2.91914e-14 1 0
1.40857e-14 1 0
2.09953e-14 1 0
-2.91914e-14 1 0
-1.37842e-14 1 0
2.09953e-14 1 0
1.08094e-14 1 0
-2.70183e-14 1 0
-9.30858e-15 1 0
1.25844e-14 1 0
1.0409e-14 1 0
-9.30858e-15 1 0
-3.82365e-15 1 0
1.0409e-14 1 0
9.68324e-15 1 0
-1.37842e-14 1 0
-8.10912e-15 1 0
1.08094e-14 1 0
8.41701e-15 1 0
-8.10912e-15 1 0
-4.13297e-15 1 0
8.41701e-15 1 0
3.82811e-15 1 0
-1.68882e-14 1 0
-5.87465e-15 1 0
1.09334e-14 1 0
6.41482e-15 1 0
-5.87465e-15 1 0
-4.58267e-15 1 0
6.41482e-15 1 0
1.52619e-14 1 0
-1.18301e-14 1 0
-3.7108e-15 1 0
3.25889e-15 1 0
3.48019e-15 1 0
-3.7108e-15 1 0
-1.99299e-14 1 0
3.48019e-15 1 0
1.73276e-14 1 0
-4.58267e-15 1 0
-1.64332e-14 1 0
1.52619e-14 1 0
1.82738e-14 1 0
-1.64332e-14 1 0
-9.65406e-15 1 0
1.82738e-14 1 0
6.85847e-15 1 0
-1.99299e-14 1 0
-1.58357e-14 1 0
1.73276e-14 1 0
1.65895e-14 1 0
-1.58357e-14 1 0
-1.12191e-14 1 0
1.65895e-14 1 0
1.42684e-14 1 0
-3.82365e-15 1 0
-6.4318e-15 1 0
9.68324e-15 1 0
1.41823e-14 1 0
-6.4318e-15 1 0
-1.85184e-14 1 0
1.41823e-14 1 0
1.32904e-14 1 0
-4.13297e-15 1 0
-1.54041e-14 1 0
3.82811e-15 1 0
1.18676e-14 1 0
-1.54041e-14 1 0
-8.57891e-15 1 0
1.18676e-14 1 0
1.46868e-14 1 0
-1.85184e-14 1 0
-1.90643e-14 1 0
1.32904e-14 1 0
1.93846e-14 1 0
-1.90643e-14 1 0
-1.72251e-14 1 0
1.93846e-14 1 0
1.56643e-14 1 0
-8.57891e-15 1 0
-6.51307e-15 1 0
1.46868e-14 1 0
9.23005e-15 1 0
-6.51307e-15 1 0
8.53181e-15 1 0
9.23005e-15 1 0
-2.36242e-15 1 0
-1.72912e-15 1 0
-8.02268e-15 1 0
5.19416e-15 1.00001 0
1.36202e-14 1.00001 0
-8.02268e-15 1 0
3.73342e-15 1 0
1.36202e-14 1.00001 0
-1.25501e-14 1.00001 0
-2.23105e-14 1.00001 0
-1.59099e-14 1.00001 0
4.24189e-14 1.00001 0
2.4011e-14 1.00001 0
-1.59099e-14 1.00001 0
2.00414e-14 1.00001 0
2.4011e-14 1.00001 0
-1.64507e-15 1.00001 0
3.73342e-15 1 0
-1.62189e-14 1 0
-1.25501e-14 1.00001 0
1.85114e-14 1.00001 0
-1.62189e-14 1 0
-1.07696e-14 1 0