# vtk DataFile Version 3.0
#This file was generated by the deal.II library on 2018/10/16 at 3:11:04
ASCII
DATASET UNSTRUCTURED_GRID

POINTS 20480 double
0 0 0
0.19635 0 0
0 0.286506 0
0.19635 0.286506 0
0.19635 0 0
0.392699 0 0
0.19635 0.286506 0
0.392699 0.286506 0
0 0.286506 0
0.19635 0.286506 0
0 0.599109 0
0.19635 0.599109 0
0.19635 0.286506 0
0.392699 0.286506 0
0.19635 0.599109 0
0.392699 0.599109 0
0.392699 0 0
0.589049 0 0
0.392699 0.286506 0
0.589049 0.286506 0
0.589049 0 0
0.785398 0 0
0.589049 0.286506 0
0.785398 0.286506 0
0.392699 0.286506 0
0.589049 0.286506 0
0.392699 0.599109 0
0.589049 0.599109 0
0.589049 0.286506 0
0.785398 0.286506 0
0.589049 0.599109 0
0.785398 0.599109 0
0 0.599109 0
0.19635 0.599109 0
0 0.911568 0
0.19635 0.911568 0
0.19635 0.599109 0
0.392699 0.599109 0
0.19635 0.911568 0
0.392699 0.911568 0
0 0.911568 0
0.19635 0.911568 0
0 1.22538 0
0.19635 1.22538 0
0.19635 0.911568 0
0.392699 0.911568 0
0.19635 1.22538 0
0.392699 1.22538 0
0.392699 0.599109 0
0.589049 0.599109 0
0.392699 0.911568 0
0.589049 0.911568 0
0.589049 0.599109 0
0.785398 0.599109 0
0.589049 0.911568 0
0.785398 0.911568 0
0.392699 0.911568 0
0.589049 0.911568 0
0.392699 1.22538 0
0.589049 1.22538 0
0.589049 0.911568 0
0.785398 0.911568 0
0.589049 1.22538 0
0.785398 1.22538 0
0.785398 0 0
0.981748 0 0
0.785398 0.286506 0
0.981748 0.286506 0
0.981748 0 0
1.1781 0 0
0.981748 0.286506 0
1.1781 0.286506 0
0.785398 0.286506 0
0.981748 0.286506 0
0.785398 0.599109 0
0.981748 0.599109 0
0.981748 0.286506 0
1.1781 0.286506 0
0.981748 0.599109 0
1.1781 0.599109 0
1.1781 0 0
1.37445 0 0
1.1781 0.286506 0
1.37445 0.286506 0
1.37445 0 0
1.5708 0 0
1.37445 0.286506 0
1.5708 0.286506 0
1.1781 0.286506 0
1.37445 0.286506 0
1.1781 0.599109 0
1.37445 0.599109 0
1.37445 0.286506 0
1.5708 0.286506 0
1.37445 0.599109 0
1.5708 0.599109 0
0.785398 0.599109 0
0.981748 0.599109 0
0.785398 0.911568 0
0.981748 0.911568 0
0.981748 0.599109 0
1.1781 0.599109 0
0.981748 0.911568 0
1.1781 0.911568 0
0.785398 0.911568 0
0.981748 0.911568 0
0.785398 1.22538 0
0.981748 1.22538 0
0.981748 0.911568 0
1.1781 0.911568 0
0.981748 1.22538 0
1.1781 1.22538 0
1.1781 0.599109 0
1.37445 0.599109 0
1.1781 0.911568 0
1.37445 0.911568 0
1.37445 0.599109 0
1.5708 0.599109 0
1.37445 0.911568 0
1.5708 0.911568 0
1.1781 0.911568 0
1.37445 0.911568 0
1.1781 1.22538 0
1.37445 1.22538 0
1.37445 0.911568 0
1.5708 0.911568 0
1.37445 1.22538 0
1.5708 1.22538 0
0 1.22538 0
0.19635 1.22538 0
0 1.53884 0
0.19635 1.53884 0
0.19635 1.22538 0
0.392699 1.22538 0
0.19635 1.53884 0
0.392699 1.53884 0
0 1.53884 0
0.19635 1.53884 0
0 1.85242 0
0.19635 1.85242 0
0.19635 1.53884 0
0.392699 1.53884 0
0.19635 1.85242 0
0.392699 1.85242 0
0.392699 1.22538 0
0.589049 1.22538 0
0.392699 1.53884 0
0.589049 1.53884 0
0.589049 1.22538 0
0.785398 1.22538 0
0.589049 1.53884 0
0.785398 1.53884 0
0.392699 1.53884 0
0.589049 1.53884 0
0.392699 1.85242 0
0.589049 1.85242 0
0.589049 1.53884 0
0.785398 1.53884 0
0.589049 1.85242 0
0.785398 1.85242 0
0 1.85242 0
0.19635 1.85242 0
0 2.16592 0
0.19635 2.16592 0
0.19635 1.85242 0
0.392699 1.85242 0
0.19635 2.16592 0
0.392699 2.16592 0
0 2.16592 0
0.19635 2.16592 0
0 2.47943 0
0.19635 2.47943 0
0.19635 2.16592 0
0.392699 2.16592 0
0.19635 2.47943 0
0.392699 2.47943 0
0.392699 1.85242 0
0.589049 1.85242 0
0.392699 2.16592 0
0.589049 2.16592 0
0.589049 1.85242 0
0.785398 1.85242 0
0.589049 2.16592 0
0.785398 2.16592 0
0.392699 2.16592 0
0.589049 2.16592 0
0.392699 2.47943 0
0.589049 2.47943 0
0.589049 2.16592 0
0.785398 2.16592 0
0.589049 2.47943 0
0.785398 2.47943 0
0.785398 1.22538 0
0.981748 1.22538 0
0.785398 1.53884 0
0.981748 1.53884 0
0.981748 1.22538 0
1.1781 1.22538 0
0.981748 1.53884 0
1.1781 1.53884 0
0.785398 1.53884 0
0.981748 1.53884 0
0.785398 1.85242 0
0.981748 1.85242 0
0.981748 1.53884 0
1.1781 1.53884 0
0.981748 1.85242 0
1.1781 1.85242 0
1.1781 1.22538 0
1.37445 1.22538 0
1.1781 1.53884 0
1.37445 1.53884 0
1.37445 1.22538 0
1.5708 1.22538 0
1.37445 1.53884 0
1.5708 1.53884 0
1.1781 1.53884 0
1.37445 1.53884 0
1.1781 1.85242 0
1.37445 1.85242 0
1.37445 1.53884 0
1.5708 1.53884 0
1.37445 1.85242 0
1.5708 1.85242 0
0.785398 1.85242 0
0.981748 1.85242 0
0.785398 2.16592 0
0.981748 2.16592 0
0.981748 1.85242 0
1.1781 1.85242 0
0.981748 2.16592 0
1.1781 2.16592 0
0.785398 2.16592 0
0.981748 2.16592 0
0.785398 2.47943 0
0.981748 2.47943 0
0.981748 2.16592 0
1.1781 2.16592 0
0.981748 2.47943 0
1.1781 2.47943 0
1.1781 1.85242 0
1.37445 1.85242 0
1.1781 2.16592 0
1.37445 2.16592 0
1.37445 1.85242 0
1.5708 1.85242 0
1.37445 2.16592 0
1.5708 2.16592 0
1.1781 2.16592 0
1.37445 2.16592 0
1.1781 2.47943 0
1.37445 2.47943 0
1.37445 2.16592 0
1.5708 2.16592 0
1.37445 2.47943 0
1.5708 2.47943 0
1.5708 0 0
1.76715 0 0
1.5708 0.286506 0
1.76715 0.286506 0
1.76715 0 0
1.9635 0 0
1.76715 0.286506 0
1.9635 0.286506 0
1.5708 0.286506 0
1.76715 0.286506 0
1.5708 0.599109 0
1.76715 0.599109 0
1.76715 0.286506 0
1.9635 0.286506 0
1.76715 0.599109 0
1.9635 0.599109 0
1.9635 0 0
2.15984 0 0
1.9635 0.286506 0
2.15984 0.286506 0
2.15984 0 0
2.35619 0 0
2.15984 0.286506 0
2.35619 0.286506 0
1.9635 0.286506 0
2.15984 0.286506 0
1.9635 0.599109 0
2.15984 0.599109 0
2.15984 0.286506 0
2.35619 0.286506 0
2.15984 0.599109 0
2.35619 0.599109 0
1.5708 0.599109 0
1.76715 0.599109 0
1.5708 0.911568 0
1.76715 0.911568 0
1.76715 0.599109 0
1.9635 0.599109 0
1.76715 0.911568 0
1.9635 0.911568 0
1.5708 0.911568 0
1.76715 0.911568 0
1.5708 1.22538 0
1.76715 1.22538 0
1.76715 0.911568 0
1.9635 0.911568 0
1.76715 1.22538 0
1.9635 1.22538 0
1.9635 0.599109 0
2.15984 0.599109 0
1.9635 0.911568 0
2.15984 0.911568 0
2.15984 0.599109 0
2.35619 0.599109 0
2.15984 0.911568 0
2.35619 0.911568 0
1.9635 0.911568 0
2.15984 0.911568 0
1.9635 1.22538 0
2.15984 1.22538 0
2.15984 0.911568 0
2.35619 0.911568 0
2.15984 1.22538 0
2.35619 1.22538 0
2.35619 0 0
2.55254 0 0
2.35619 0.286506 0
2.55254 0.286506 0
2.55254 0 0
2.74889 0 0
2.55254 0.286506 0
2.74889 0.286506 0
2.35619 0.286506 0
2.55254 0.286506 0
2.35619 0.599109 0
2.55254 0.599109 0
2.55254 0.286506 0
2.74889 0.286506 0
2.55254 0.599109 0
2.74889 0.599109 0
2.74889 0 0
2.94524 0 0
2.74889 0.286506 0
2.94524 0.286506 0
2.94524 0 0
3.14159 0 0
2.94524 0.286506 0
3.14159 0.286506 0
2.74889 0.286506 0
2.94524 0.286506 0
2.74889 0.599109 0
2.94524 0.599109 0
2.94524 0.286506 0
3.14159 0.286506 0
2.94524 0.599109 0
3.14159 0.599109 0
2.35619 0.599109 0
2.55254 0.599109 0
2.35619 0.911568 0
2.55254 0.911568 0
2.55254 0.599109 0
2.74889 0.599109 0
2.55254 0.911568 0
2.74889 0.911568 0
2.35619 0.911568 0
2.55254 0.911568 0
2.35619 1.22538 0
2.55254 1.22538 0
2.55254 0.911568 0
2.74889 0.911568 0
2.55254 1.22538 0
2.74889 1.22538 0
2.74889 0.599109 0
2.94524 0.599109 0
2.74889 0.911568 0
2.94524 0.911568 0
2.94524 0.599109 0
3.14159 0.599109 0
2.94524 0.911568 0
3.14159 0.911568 0
2.74889 0.911568 0
2.94524 0.911568 0
2.74889 1.22538 0
2.94524 1.22538 0
2.94524 0.911568 0
3.14159 0.911568 0
2.94524 1.22538 0
3.14159 1.22538 0
1.5708 1.22538 0
1.76715 1.22538 0
1.5708 1.53884 0
1.76715 1.53884 0
1.76715 1.22538 0
1.9635 1.22538 0
1.76715 1.53884 0
1.9635 1.53884 0
1.5708 1.53884 0
1.76715 1.53884 0
1.5708 1.85242 0
1.76715 1.85242 0
1.76715 1.53884 0
1.9635 1.53884 0
1.76715 1.85242 0
1.9635 1.85242 0
1.9635 1.22538 0
2.15984 1.22538 0
1.9635 1.53884 0
2.15984 1.53884 0
2.15984 1.22538 0
2.35619 1.22538 0
2.15984 1.53884 0
2.35619 1.53884 0
1.9635 1.53884 0
2.15984 1.53884 0
1.9635 1.85242 0
2.15984 1.85242 0
2.15984 1.53884 0
2.35619 1.53884 0
2.15984 1.85242 0
2.35619 1.85242 0
1.5708 1.85242 0
1.76715 1.85242 0
1.5708 2.16592 0
1.76715 2.16592 0
1.76715 1.85242 0
1.9635 1.85242 0
1.76715 2.16592 0
1.9635 2.16592 0
1.5708 2.16592 0
1.76715 2.16592 0
1.5708 2.47943 0
1.76715 2.47943 0
1.76715 2.16592 0
1.9635 2.16592 0
1.76715 2.47943 0
1.9635 2.47943 0
1.9635 1.85242 0
2.15984 1.85242 0
1.9635 2.16592 0
2.15984 2.16592 0
2.15984 1.85242 0
2.35619 1.85242 0
2.15984 2.16592 0
2.35619 2.16592 0
1.9635 2.16592 0
2.15984 2.16592 0
1.9635 2.47943 0
2.15984 2.47943 0
2.15984 2.16592 0
2.35619 2.16592 0
2.15984 2.47943 0
2.35619 2.47943 0
2.35619 1.22538 0
2.55254 1.22538 0
2.35619 1.53884 0
2.55254 1.53884 0
2.55254 1.22538 0
2.74889 1.22538 0
2.55254 1.53884 0
2.74889 1.53884 0
2.35619 1.53884 0
2.55254 1.53884 0
2.35619 1.85242 0
2.55254 1.85242 0
2.55254 1.53884 0
2.74889 1.53884 0
2.55254 1.85242 0
2.74889 1.85242 0
2.74889 1.22538 0
2.94524 1.22538 0
2.74889 1.53884 0
2.94524 1.53884 0
2.94524 1.22538 0
3.14159 1.22538 0
2.94524 1.53884 0
3.14159 1.53884 0
2.74889 1.53884 0
2.94524 1.53884 0
2.74889 1.85242 0
2.94524 1.85242 0
2.94524 1.53884 0
3.14159 1.53884 0
2.94524 1.85242 0
3.14159 1.85242 0
2.35619 1.85242 0
2.55254 1.85242 0
2.35619 2.16592 0
2.55254 2.16592 0
2.55254 1.85242 0
2.74889 1.85242 0
2.55254 2.16592 0
2.74889 2.16592 0
2.35619 2.16592 0
2.55254 2.16592 0
2.35619 2.47943 0
2.55254 2.47943 0
2.55254 2.16592 0
2.74889 2.16592 0
2.55254 2.47943 0
2.74889 2.47943 0
2.74889 1.85242 0
2.94524 1.85242 0
2.74889 2.16592 0
2.94524 2.16592 0
2.94524 1.85242 0
3.14159 1.85242 0
2.94524 2.16592 0
3.14159 2.16592 0
2.74889 2.16592 0
2.94524 2.16592 0
2.74889 2.47943 0
2.94524 2.47943 0
2.94524 2.16592 0
3.14159 2.16592 0
2.94524 2.47943 0
3.14159 2.47943 0
0 2.47943 0
0.19635 2.47943 0
0 2.79291 0
0.19635 2.79291 0
0.19635 2.47943 0
0.392699 2.47943 0
0.19635 2.79291 0
0.392699 2.79291 0
0 2.79291 0
0.19635 2.79291 0
0 3.10637 0
0.19635 3.10637 0
0.19635 2.79291 0
0.392699 2.79291 0
0.19635 3.10637 0
0.392699 3.10637 0
0.392699 2.47943 0
0.589049 2.47943 0
0.392699 2.79291 0
0.589049 2.79291 0
0.589049 2.47943 0
0.785398 2.47943 0
0.589049 2.79291 0
0.785398 2.79291 0
0.392699 2.79291 0
0.589049 2.79291 0
0.392699 3.10637 0
0.589049 3.10637 0
0.589049 2.79291 0
0.785398 2.79291 0
0.589049 3.10637 0
0.785398 3.10637 0
0 3.10637 0
0.19635 3.10637 0
0 3.4198 0
0.19635 3.4198 0
0.19635 3.10637 0
0.392699 3.10637 0
0.19635 3.4198 0
[...]
POINT_DATA 20480
VECTORS uf double
0 1 0
-4.39488e-15 1 0
0 1.00001 0
7.09546e-15 1.00001 0
-4.39488e-15 1 0
-2.36401e-16 1 0
7.09546e-15 1.00001 0
2.6104e-15 1.00001 0
0 1.00001 0
-2.10312e-14 1.00001 0
0 1.00001 0
2.73147e-15 1.00001 0
-2.10312e-14 1.00001 0
-3.38545e-15 1.00001 0
2.73147e-15 1.00001 0
7.78143e-15 1.00001 0
-2.36401e-16 1 0
1.96759e-15 1 0
2.6104e-15 1.00001 0
1.24043e-14 1.00001 0
1.96759e-15 1 0
-5.63462e-15 1 0
1.24043e-14 1.00001 0
8.91829e-15 1.00001 0
-3.38545e-15 1.00001 0
-1.17001e-14 1.00001 0
7.78143e-15 1.00001 0
-1.1541e-15 1.00001 0
-1.17001e-14 1.00001 0
-6.83359e-15 1.00001 0
-1.1541e-15 1.00001 0
7.25225e-15 1.00001 0
0 1.00001 0
1.93466e-14 1.00001 0
0 1.00001 0
4.04818e-14 1.00001 0
1.93466e-14 1.00001 0
-6.54381e-15 1.00001 0
4.04818e-14 1.00001 0
1.21838e-15 1.00001 0
0 1.00001 0
-2.8288e-14 1.00001 0
0 1.00001 0
-5.86277e-15 1.00001 0
-2.8288e-14 1.00001 0
-8.23605e-15 1.00001 0
-5.86277e-15 1.00001 0
1.48829e-14 1.00001 0
-6.54381e-15 1.00001 0
4.29367e-15 1.00001 0
1.21838e-15 1.00001 0
-9.99329e-15 1.00001 0
4.29367e-15 1.00001 0
-8.22188e-15 1.00001 0
-9.99329e-15 1.00001 0
6.56818e-15 1.00001 0
-8.23605e-15 1.00001 0
1.12041e-14 1.00001 0
1.48829e-14 1.00001 0
-3.22439e-16 1.00001 0
1.12041e-14 1.00001 0
3.49137e-15 1.00001 0
-3.22439e-16 1.00001 0
3.23442e-15 1.00001 0
-5.63462e-15 1 0
2.07492e-15 1 0
8.91829e-15 1.00001 0
-1.1303e-14 1.00001 0
2.07492e-15 1 0
-5.8523e-15 1 0
-1.1303e-14 1.00001 0
1.60551e-14 1.00001 0
-6.83359e-15 1.00001 0
9.23178e-15 1.00001 0
7.25225e-15 1.00001 0
7.45437e-15 1.00001 0
9.23178e-15 1.00001 0
8.0619e-15 1.00001 0
7.45437e-15 1.00001 0
-5.27289e-15 1.00001 0
-5.8523e-15 1 0
-9.48703e-15 1 0
1.60551e-14 1.00001 0
1.27846e-14 1.00001 0
-9.48703e-15 1 0
2.97988e-15 1 0
1.27846e-14 1.00001 0
-7.10157e-15 1.00001 0
8.0619e-15 1.00001 0
-7.21471e-15 1.00001 0
-5.27289e-15 1.00001 0
1.55724e-14 1.00001 0
-7.21471e-15 1.00001 0
1.04902e-14 1.00001 0
1.55724e-14 1.00001 0
4.99514e-15 1.00001 0
-8.22188e-15 1.00001 0
-1.38991e-14 1.00001 0
6.56818e-15 1.00001 0
1.44554e-14 1.00001 0
-1.38991e-14 1.00001 0
-6.58189e-15 1.00001 0
1.44554e-14 1.00001 0
1.27361e-14 1.00001 0
3.49137e-15 1.00001 0
-3.65761e-15 1.00001 0
3.23442e-15 1.00001 0
-1.98432e-15 1.00001 0
-3.65761e-15 1.00001 0
-2.039e-14 1.00001 0
-1.98432e-15 1.00001 0
1.59779e-14 1.00001 0
-6.58189e-15 1.00001 0
-3.59886e-15 1.00001 0
1.27361e-14 1.00001 0
5.59196e-15 1.00001 0
-3.59886e-15 1.00001 0
-7.26118e-15 1.00001 0
5.59196e-15 1.00001 0
6.60951e-15 1.00001 0
-2.039e-14 1.00001 0
-1.06212e-15 1.00001 0
1.59779e-14 1.00001 0
-7.24365e-15 1.00001 0
-1.06212e-15 1.00001 0
-1.26925e-15 1.00001 0
-7.24365e-15 1.00001 0
-1.84486e-15 1.00001 0
0 1.00001 0
-2.08007e-15 1.00001 0
0 1.00001 0
6.42518e-15 1.00001 0
-2.08007e-15 1.00001 0
-5.56992e-15 1.00001 0
6.42518e-15 1.00001 0
5.72962e-15 1.00001 0
0 1.00001 0
-3.06494e-14 1.00001 0
0 1.00001 0
-2.74723e-14 1.00001 0
-3.06494e-14 1.00001 0
-1.72545e-14 1.00001 0
-2.74723e-14 1.00001 0
1.86197e-14 1.00001 0
-5.56992e-15 1.00001 0
2.32695e-15 1.00001 0
5.72962e-15 1.00001 0
-1.04653e-14 1.00001 0
2.32695e-15 1.00001 0
-3.3074e-15 1.00001 0
-1.04653e-14 1.00001 0
-8.61065e-15 1.00001 0
-1.72545e-14 1.00001 0
-2.33159e-15 1.00001 0
1.86197e-14 1.00001 0
5.88062e-15 1.00001 0
-2.33159e-15 1.00001 0
2.54298e-15 1.00001 0
5.88062e-15 1.00001 0
-6.03661e-16 1.00001 0
0 1.00001 0
3.16019e-14 1.00001 0
0 1.00001 0
3.74089e-14 1.00001 0
3.16019e-14 1.00001 0
-1.92828e-14 1.00001 0
3.74089e-14 1.00001 0
-7.37868e-15 1.00001 0
0 1.00001 0
-3.82155e-14 1.00001 0
0 1.00001 0
-3.47015e-14 1.00001 0
-3.82155e-14 1.00001 0
1.17914e-14 1.00001 0
-3.47015e-14 1.00001 0
2.69946e-14 1.00001 0
-1.92828e-14 1.00001 0
-3.30731e-15 1.00001 0
-7.37868e-15 1.00001 0
-4.17911e-17 1.00001 0
-3.30731e-15 1.00001 0
-4.87221e-15 1.00001 0
-4.17911e-17 1.00001 0
-1.75964e-15 1.00001 0
1.17914e-14 1.00001 0
2.64416e-15 1.00001 0
2.69946e-14 1.00001 0
-7.55907e-15 1.00001 0
2.64416e-15 1.00001 0
6.11708e-15 1.00001 0
-7.55907e-15 1.00001 0
-1.42885e-15 1.00001 0
-3.3074e-15 1.00001 0
1.44081e-15 1.00001 0
-8.61065e-15 1.00001 0
7.82326e-15 1.00001 0
1.44081e-15 1.00001 0
-5.13719e-15 1.00001 0
7.82326e-15 1.00001 0
2.88785e-15 1.00001 0
2.54298e-15 1.00001 0
-9.10159e-15 1.00001 0
-6.03661e-16 1.00001 0
2.62176e-15 1.00001 0
-9.10159e-15 1.00001 0
-1.69801e-14 1.00001 0
2.62176e-15 1.00001 0
1.05512e-14 1.00001 0
-5.13719e-15 1.00001 0
7.72144e-15 1.00001 0
2.88785e-15 1.00001 0
-3.65601e-15 1.00001 0
7.72144e-15 1.00001 0
6.28981e-15 1.00001 0
-3.65601e-15 1.00001 0
-7.93981e-15 1.00001 0
-1.69801e-14 1.00001 0
1.67502e-15 1.00001 0
1.05512e-14 1.00001 0
-4.41886e-15 1.00001 0
1.67502e-15 1.00001 0
3.80195e-15 1.00001 0
-4.41886e-15 1.00001 0
-2.247e-15 1.00001 0
-4.87221e-15 1.00001 0
-8.13315e-15 1.00001 0
-1.75964e-15 1.00001 0
-1.02726e-15 1.00001 0
-8.13315e-15 1.00001 0
-4.77382e-15 1.00001 0
-1.02726e-15 1.00001 0
5.79656e-15 1.00001 0
6.11708e-15 1.00001 0
-5.33258e-15 1.00001 0
-1.42885e-15 1.00001 0
5.50864e-15 1.00001 0
-5.33258e-15 1.00001 0
-3.8316e-15 1.00001 0
5.50864e-15 1.00001 0
2.12714e-15 1.00001 0
-4.77382e-15 1.00001 0
-6.84793e-15 1.00001 0
5.79656e-15 1.00001 0
1.7387e-14 1.00001 0
-6.84793e-15 1.00001 0
-4.73557e-15 1.00001 0
1.7387e-14 1.00001 0
1.09398e-14 1.00001 0
-3.8316e-15 1.00001 0
-1.22817e-14 1.00001 0
2.12714e-15 1.00001 0
-1.97887e-15 1.00001 0
-1.22817e-14 1.00001 0
-7.69785e-15 1.00001 0
-1.97887e-15 1.00001 0
3.66307e-15 1.00001 0
2.97988e-15 1 0
-7.56105e-15 1 0
-7.10157e-15 1.00001 0
1.03249e-14 1.00001 0
-7.56105e-15 1 0
2.73166e-15 1 0
1.03249e-14 1.00001 0
-2.15826e-15 1.00001 0
1.04902e-14 1.00001 0
-2.31693e-15 1.00001 0
4.99514e-15 1.00001 0
4.66179e-15 1.00001 0
-2.31693e-15 1.00001 0
9.06178e-15 1.00001 0
4.66179e-15 1.00001 0
-1.51007e-14 1.00001 0
2.73166e-15 1 0
-2.14815e-15 1 0
-2.15826e-15 1.00001 0
1.26076e-14 1.00001 0
-2.14815e-15 1 0
2.4264e-15 1 0
1.26076e-14 1.00001 0
1.97823e-14 1.00001 0
9.06178e-15 1.00001 0
-7.21015e-15 1.00001 0
-1.51007e-14 1.00001 0
2.55049e-15 1.00001 0
-7.21015e-15 1.00001 0
-2.19632e-14 1.00001 0
2.55049e-15 1.00001 0
1.37792e-14 1.00001 0
-7.26118e-15 1.00001 0
-1.90711e-15 1.00001 0
6.60951e-15 1.00001 0
3.20506e-15 1.00001 0
-1.90711e-15 1.00001 0
2.01664e-14 1.00001 0
3.20506e-15 1.00001 0
-8.00964e-15 1.00001 0
-1.26925e-15 1.00001 0
4.82052e-15 1.00001 0
-1.84486e-15 1.00001 0
7.54032e-16 1.00001 0
4.82052e-15 1.00001 0
-2.11546e-15 1.00001 0
7.54032e-16 1.00001 0
5.24597e-15 1.00001 0
2.01664e-14 1.00001 0
4.3455e-16 1.00001 0
-8.00964e-15 1.00001 0
5.88297e-15 1.00001 0
4.3455e-16 1.00001 0
-4.40613e-16 1.00001 0
5.88297e-15 1.00001 0
-5.86097e-15 1.00001 0
-2.11546e-15 1.00001 0
-6.09367e-16 1.00001 0
5.24597e-15 1.00001 0
4.6861e-15 1.00001 0
-6.09367e-16 1.00001 0
1.34124e-14 1.00001 0
4.6861e-15 1.00001 0
-6.32905e-15 1.00001 0
2.4264e-15 1 0
4.52017e-15 1 0
1.97823e-14 1.00001 0
2.30654e-15 1.00001 0
4.52017e-15 1 0
5.40165e-15 1 0
2.30654e-15 1.00001 0
-7.30747e-15 1.00001 0
-2.19632e-14 1.00001 0
1.72483e-15 1.00001 0
1.37792e-14 1.00001 0
-1.19044e-15 1.00001 0
1.72483e-15 1.00001 0
1.18378e-14 1.00001 0
-1.19044e-15 1.00001 0
8.87012e-15 1.00001 0
5.40165e-15 1 0
8.4639e-15 1 0
-7.30747e-15 1.00001 0
-1.30435e-15 1.00001 0
8.4639e-15 1 0
7.3762e-15 1 0
-1.30435e-15 1.00001 0
3.48729e-15 1.00001 0
1.18378e-14 1.00001 0
2.34384e-15 1.00001 0
8.87012e-15 1.00001 0
3.29995e-15 1.00001 0
2.34384e-15 1.00001 0
-1.28536e-14 1.00001 0
3.29995e-15 1.00001 0
7.13914e-15 1.00001 0
-4.40613e-16 1.00001 0
1.02691e-14 1.00001 0
-5.86097e-15 1.00001 0
-8.55752e-15 1.00001 0
1.02691e-14 1.00001 0
-1.7324e-14 1.00001 0
-8.55752e-15 1.00001 0
2.73892e-14 1.00001 0
1.34124e-14 1.00001 0
4.68195e-15 1.00001 0
-6.32905e-15 1.00001 0
1.43447e-16 1.00001 0
4.68195e-15 1.00001 0
-2.16463e-14 1.00001 0
1.43447e-16 1.00001 0
1.02178e-14 1.00001 0
-1.7324e-14 1.00001 0
2.66669e-15 1.00001 0
2.73892e-14 1.00001 0
4.72707e-15 1.00001 0
2.66669e-15 1.00001 0
8.21357e-15 1.00001 0
4.72707e-15 1.00001 0
7.35627e-15 1.00001 0
-2.16463e-14 1.00001 0
-1.57938e-14 1.00001 0
1.02178e-14 1.00001 0
1.83941e-14 1.00001 0
-1.57938e-14 1.00001 0
2.32698e-15 1.00001 0
1.83941e-14 1.00001 0
-1.58851e-15 1.00001 0
6.28981e-15 1.00001 0
-1.1525e-14 1.00001 0
-7.93981e-15 1.00001 0
1.35138e-14 1.00001 0
-1.1525e-14 1.00001 0
3.82193e-15 1.00001 0
1.35138e-14 1.00001 0
-2.48022e-15 1.00001 0
3.80195e-15 1.00001 0
-1.08387e-14 1.00001 0
-2.247e-15 1.00001 0
1.22493e-14 1.00001 0
-1.08387e-14 1.00001 0
-4.81982e-15 1.00001 0
1.22493e-14 1.00001 0
1.38537e-14 1.00001 0
3.82193e-15 1.00001 0
-2.45051e-15 1.00001 0
-2.48022e-15 1.00001 0
-5.0965e-15 1.00001 0
-2.45051e-15 1.00001 0
-2.18804e-15 1.00001 0
-5.0965e-15 1.00001 0
2.74154e-15 1.00001 0
-4.81982e-15 1.00001 0
3.19201e-15 1.00001 0
1.38537e-14 1.00001 0
-4.74936e-15 1.00001 0
3.19201e-15 1.00001 0
-1.01481e-14 1.00001 0
-4.74936e-15 1.00001 0
6.76422e-15 1.00001 0
-4.73557e-15 1.00001 0
-5.19018e-15 1.00001 0
1.09398e-14 1.00001 0
-2.17867e-15 1.00001 0
-5.19018e-15 1.00001 0
-1.18943e-14 1.00001 0
-2.17867e-15 1.00001 0
4.467e-15 1.00001 0
-7.69785e-15 1.00001 0
-1.03142e-15 1.00001 0
3.66307e-15 1.00001 0
1.88044e-15 1.00001 0
-1.03142e-15 1.00001 0
-3.3608e-15 1.00001 0
1.88044e-15 1.00001 0
2.51349e-15 1.00001 0
-1.18943e-14 1.00001 0
-7.49724e-15 1.00001 0
4.467e-15 1.00001 0
1.6342e-14 1.00001 0
-7.49724e-15 1.00001 0
5.83457e-15 1.00001 0
1.6342e-14 1.00001 0
-6.65954e-15 1.00001 0
-3.3608e-15 1.00001 0
-7.17254e-15 1.00001 0
2.51349e-15 1.00001 0
6.69544e-15 1.00001 0
-7.17254e-15 1.00001 0
-2.74799e-15 1.00001 0
6.69544e-15 1.00001 0
2.52106e-15 1.00001 0
-2.18804e-15 1.00001 0
1.01532e-15 1.00001 0
2.74154e-15 1.00001 0
-6.40016e-15 1.00001 0
1.01532e-15 1.00001 0
-6.96328e-17 1.00001 0
-6.40016e-15 1.00001 0
3.21407e-16 1.00001 0
-1.01481e-14 1.00001 0
9.35747e-15 1.00001 0
6.76422e-15 1.00001 0
-7.6833e-15 1.00001 0
9.35747e-15 1.00001 0
-3.44602e-15 1.00001 0
-7.6833e-15 1.00001 0
5.85659e-15 1.00001 0
-6.96328e-17 1.00001 0
-1.3981e-14 1.00001 0
3.21407e-16 1.00001 0
9.77317e-15 1.00001 0
-1.3981e-14 1.00001 0
-5.65049e-15 1.00001 0
9.77317e-15 1.00001 0
6.57763e-16 1.00001 0
-3.44602e-15 1.00001 0
-1.03533e-14 1.00001 0
5.85659e-15 1.00001 0
1.26625e-14 1.00001 0
-1.03533e-14 1.00001 0
-3.7192e-15 1.00001 0
1.26625e-14 1.00001 0
4.06372e-15 1.00001 0
5.83457e-15 1.00001 0
-9.91853e-16 1.00001 0
-6.65954e-15 1.00001 0
-4.85807e-15 1.00001 0
-9.91853e-16 1.00001 0
-1.43922e-14 1.00001 0
-4.85807e-15 1.00001 0
-1.65585e-15 1.00001 0
-2.74799e-15 1.00001 0
9.29214e-15 1.00001 0
2.52106e-15 1.00001 0
-3.77843e-15 1.00001 0
9.29214e-15 1.00001 0
3.61581e-15 1.00001 0
-3.77843e-15 1.00001 0
3.38486e-15 1.00001 0
-1.43922e-14 1.00001 0
-2.17471e-14 1.00001 0
-1.65585e-15 1.00001 0
2.02406e-14 1.00001 0
-2.17471e-14 1.00001 0
-8.90103e-15 1.00001 0
2.02406e-14 1.00001 0
7.67934e-15 1.00001 0
3.61581e-15 1.00001 0
-6.94675e-15 1.00001 0
3.38486e-15 1.00001 0
1.39153e-17 1.00001 0
-6.94675e-15 1.00001 0
2.69099e-16 1.00001 0
1.39153e-17 1.00001 0
-1.00789e-16 1.00001 0
0 1.00001 0
1.68275e-14 1.00001 0
0 1.00001 0
2.75409e-14 1.00001 0
1.68275e-14 1.00001 0
-2.61119e-14 1.00001 0
2.75409e-14 1.00001 0
-2.11106e-14 1.00001 0
0 1.00001 0
2.44232e-14 1.00001 0
0 1.00001 0
1.93848e-14 1.00001 0
2.44232e-14 1.00001 0
8.82289e-16 1.00001 0
1.93848e-14 1.00001 0
8.58004e-15 1.00001 0
-2.61119e-14 1.00001 0
6.3883e-16 1.00001 0
-2.11106e-14 1.00001 0
-3.14565e-15 1.00001 0
6.3883e-16 1.00001 0
-3.24465e-15 1.00001 0
-3.14565e-15 1.00001 0
-1.21058e-15 1.00001 0
8.82289e-16 1.00001 0
-1.24146e-14 1.00001 0
8.58004e-15 1.00001 0
-9.46809e-15 1.00001 0
-1.24146e-14 1.00001 0
7.20006e-16 1.00001 0
-9.46809e-15 1.00001 0
4.1791e-15 1.00001 0
0 1.00001 0
-6.5296e-14 1.00001 0
0 1.00001 0
-8.3011e-14 1.00001 0
-6.5296e-14 1.00001 0
5.01647e-15 1.00001 0
-8.3011e-14 1.00001 0
6.11348e-15 1.00001 0
0 1.00001 0
7.7814e-14 1.00001 0
0 1.00001 0
6.5885e-14 1.00001 0
7.7814e-14 1.00001 0
7.02086e-15 1.00001 0
6.5885e-14 1.00001 0
-1.82243e-15 1.00001 0
5.01647e-15 1.00001 0
4.83405e-15 1.00001 0
6.11348e-15 1.00001 0
1.34677e-14 1.00001 0
4.83405e-15 1.00001 0
-2.8746e-14 1.00001 0
1.34677e-14 1.00001 0
-3.91153e-14 1.00001 0
7.02086e-15 1.00001 0
2.34334e-15 1.00001 0
-1.82243e-15 1.00001 0
-1.82645e-15 1.00001 0
2.34334e-15 1.00001 0
3.5729e-14 1.00001 0
-1.82645e-15 1.00001 0
4.00958e-14 1.00001 0
-3.24465e-15 1.00001 0
-7.31815e-15 1.00001 0
-1.21058e-15 1.00001 0
-7.92254e-15 1.00001 0
-7.31815e-15 1.00001 0
-2.92319e-15 1.00001 0
-7.92254e-15 1.00001 0
3.26554e-15 1.00001 0
7.20006e-16 1.00001 0
8.1236e-15 1.00001 0
4.1791e-15 1.00001 0
1.08119e-14 1.00001 0
8.1236e-15 1.00001 0
2.15773e-15 1.00001 0
1.08119e-14 1.00001 0
4.1986e-15 1.00001 0
-2.92319e-15 1.00001 0
4.45048e-15 1.00001 0
3.26554e-15 1.00001 0
-1.98213e-15 1.00001 0
4.45048e-15 1.00001 0
-6.12494e-15 1.00001 0
-1.98213e-15 1.00001 0
2.78935e-15 1.00001 0
2.15773e-15 1.00001 0
7.66149e-15 1.00001 0
4.1986e-15 1.00001 0
-4.01315e-15 1.00001 0
7.66149e-15 1.00001 0
3.97227e-15 1.00001 0
-4.01315e-15 1.00001 0
-1.97908e-15 1.00001 0
-2.8746e-14 1.00001 0
-4.80768e-15 1.00001 0
-3.91153e-14 1.00001 0
4.79945e-15 1.00001 0
-4.80768e-15 1.00001 0
-1.99189e-15 1.00001 0
4.79945e-15 1.00001 0
-1.03981e-15 1.00001 0
3.5729e-14 1.00001 0
-2.67586e-15 1.00001 0
4.00958e-14 1.00001 0
5.76531e-15 1.00001 0
-2.67586e-15 1.00001 0
9.86555e-15 1.00001 0
5.76531e-15 1.00001 0
-1.21949e-14 1.00001 0
-1.99189e-15 1.00001 0
1.03143e-14 1.00001 0
-1.03981e-15 1.00001 0
-7.14813e-15 1.00001 0
1.03143e-14 1.00001 0
6.36697e-15 1.00001 0
-7.14813e-15 1.00001 0
-1.24245e-15 1.00001 0
9.86555e-15 1.00001 0
-1.1234e-15 1.00001 0
-1.21949e-14 1.00001 0
-2.45038e-15 1.00001 0
-1.1234e-15 1.00001 0
-9.16407e-16 1.00001 0
-2.45038e-15 1.00001 0
4.16471e-15 1.00001 0
0 1.00001 0
-3.39684e-14 1.00001 0
0 1.00001 0
-3.26591e-14 1.00001 0
-3.39684e-14 1.00001 0
-1.093e-14 1.00001 0
-3.26591e-14 1.00001 0
-1.20174e-14 1.00001 0
0 1.00001 0
2.73009e-14 1.00001 0
0 1.00001 0
2.06994e-14 1.00001 0
2.73009e-14 1.00001 0
-2.36464e-14 1.00001 0
2.06994e-14 1.00001 0
-2.40079e-14 1.00001 0
-1.093e-14 1.00001 0
-1.44605e-14 1.00001 0
-1.20174e-14 1.00001 0
-2.3828e-14 1.00001 0
-1.44605e-14 1.00001 0
-1.95441e-14 1.00001 0
-2.3828e-14 1.00001 0
5.80331e-16 1.00001 0
-2.36464e-14 1.00001 0
1.14931e-15 1.00001 0
-2.40079e-14 1.00001 0
3.28134e-15 1.00001 0
1.14931e-15 1.00001 0
-2.27749e-16 1.00001 0
3.28134e-15 1.00001 0
5.27882e-15 1.00001 0
0 1.00001 0
-2.8298e-14 1.00001 0
0 1.00001 0
-4.14142e-14 1.00001 0
-2.8298e-14 1.00001 0
1.38986e-14 1.00001 0
-4.14142e-14 1.00001 0
1.58044e-14 1.00001 0
0 1.00001 0
3.14976e-14 1.00001 0
0 1 0
1.65726e-14 1 0
3.14976e-14 1.00001 0
-6.80693e-15 1.00001 0
1.65726e-14 1 0
-5.51251e-15 1 0
1.38986e-14 1.00001 0
-1.18284e-14 1.00001 0
1.58044e-14 1.00001 0
-1.27745e-14 1.00001 0
-1.18284e-14 1.00001 0
-3.01338e-14 1.00001 0
-1.27745e-14 1.00001 0
-2.06814e-14 1.00001 0
-6.80693e-15 1.00001 0
7.76549e-15 1.00001 0
-5.51251e-15 1 0
2.33451e-14 1 0
7.76549e-15 1.00001 0
8.57563e-15 1.00001 0
2.33451e-14 1 0
-8.65775e-15 1 0
-1.95441e-14 1.00001 0
-6.99222e-14 1.00001 0
5.80331e-16 1.00001 0
-6.70055e-14 1.00001 0
-6.99222e-14 1.00001 0
7.43111e-15 1.00001 0
-6.70055e-14 1.00001 0
-5.69678e-15 1.00001 0
-2.27749e-16 1.00001 0
3.33713e-14 1.00001 0
5.27882e-15 1.00001 0
4.51796e-14 1.00001 0
3.33713e-14 1.00001 0
7.61759e-15 1.00001 0
4.51796e-14 1.00001 0
-8.20004e-15 1.00001 0
7.43111e-15 1.00001 0
2.29816e-15 1.00001 0
-5.69678e-15 1.00001 0
6.77936e-15 1.00001 0
2.29816e-15 1.00001 0
-1.87926e-14 1.00001 0
6.77936e-15 1.00001 0
2.79136e-15 1.00001 0
7.61759e-15 1.00001 0
-1.36078e-14 1.00001 0
-8.20004e-15 1.00001 0
-4.43934e-15 1.00001 0
-1.36078e-14 1.00001 0
-1.00177e-14 1.00001 0
-4.43934e-15 1.00001 0
1.21996e-14 1.00001 0
-3.01338e-14 1.00001 0
-7.38255e-16 1.00001 0
-2.06814e-14 1.00001 0
-3.33003e-15 1.00001 0
-7.38255e-16 1.00001 0
-2.99928e-15 1.00001 0
-3.33003e-15 1.00001 0
2.07917e-16 1.00001 0
8.57563e-15 1.00001 0
-1.22747e-14 1.00001 0
-8.65775e-15 1 0
-1.91085e-14 1 0
-1.22747e-14 1.00001 0
3.52979e-15 1.00001 0
-1.91085e-14 1 0
-1.43921e-15 1 0
-2.99928e-15 1.00001 0
-3.61191e-15 1.00001 0
2.07917e-16 1.00001 0
5.33333e-15 1.00001 0
-3.61191e-15 1.00001 0
-1.33339e-15 1.00001 0
5.33333e-15 1.00001 0
-1.26501e-15 1.00001 0
3.52979e-15 1.00001 0
-6.31439e-15 1.00001 0
-1.43921e-15 1 0
-4.12884e-15 1 0
-6.31439e-15 1.00001 0
-3.78696e-15 1.00001 0
-4.12884e-15 1 0
-2.69112e-15 1 0
-6.12494e-15 1.00001 0
7.63855e-16 1.00001 0
2.78935e-15 1.00001 0
-1.97031e-16 1.00001 0
7.63855e-16 1.00001 0
-2.13089e-15 1.00001 0
-1.97031e-16 1.00001 0
8.20518e-15 1.00001 0
3.97227e-15 1.00001 0
2.72421e-15 1.00001 0
-1.97908e-15 1.00001 0
7.24527e-15 1.00001 0
2.72421e-15 1.00001 0
-7.31466e-15 1.00001 0
7.24527e-15 1.00001 0
7.51474e-15 1.00001 0
-2.13089e-15 1.00001 0
-6.00983e-15 1.00001 0
8.20518e-15 1.00001 0
1.28213e-14 1.00001 0
-6.00983e-15 1.00001 0
2.83393e-15 1.00001 0
1.28213e-14 1.00001 0
1.31184e-15 1.00001 0
-7.31466e-15 1.00001 0
-6.20249e-15 1.00001 0
7.51474e-15 1.00001 0
1.80804e-15 1.00001 0
-6.20249e-15 1.00001 0
2.36382e-15 1.00001 0
1.80804e-15 1.00001 0
-3.60604e-15 1.00001 0
6.36697e-15 1.00001 0
-1.18193e-14 1.00001 0
-1.24245e-15 1.00001 0
1.05869e-14 1.00001 0
-1.18193e-14 1.00001 0
-2.56794e-15 1.00001 0
1.05869e-14 1.00001 0
-1.14944e-15 1.00001 0
-9.16407e-16 1.00001 0
-5.35976e-15 1.00001 0
4.16471e-15 1.00001 0
5.24736e-15 1.00001 0
-5.35976e-15 1.00001 0
2.53434e-15 1.00001 0
5.24736e-15 1.00001 0
1.34131e-15 1.00001 0
-2.56794e-15 1.00001 0
-3.45204e-15 1.00001 0
-1.14944e-15 1.00001 0
-9.19297e-16 1.00001 0
-3.45204e-15 1.00001 0
1.40929e-16 1.00001 0
-9.19297e-16 1.00001 0
6.86381e-15 1.00001 0
2.53434e-15 1.00001 0
4.49975e-15 1.00001 0
1.34131e-15 1.00001 0
7.63571e-16 1.00001 0
4.49975e-15 1.00001 0
-3.81169e-15 1.00001 0
7.63571e-16 1.00001 0
9.78022e-15 1.00001 0
2.83393e-15 1.00001 0
2.63928e-15 1.00001 0
1.31184e-15 1.00001 0
3.61634e-15 1.00001 0
2.63928e-15 1.00001 0
7.45448e-16 1.00001 0
3.61634e-15 1.00001 0
-2.61825e-16 1.00001 0
2.36382e-15 1.00001 0
-5.78857e-15 1.00001 0
-3.60604e-15 1.00001 0
6.57286e-15 1.00001 0
-5.78857e-15 1.00001 0
3.20664e-15 1.00001 0
6.57286e-15 1.00001 0
-1.94556e-15 1.00001 0
7.45448e-16 1.00001 0
2.87909e-15 1.00001 0
-2.61825e-16 1.00001 0
-1.98102e-15 1.00001 0
2.87909e-15 1.00001 0
-7.83191e-16 1.00001 0
-1.98102e-15 1.00001 0
4.69506e-15 1.00001 0
3.20664e-15 1.00001 0
2.15254e-15 1.00001 0
-1.94556e-15 1.00001 0
4.95376e-15 1.00001 0
2.15254e-15 1.00001 0
7.91624e-15 1.00001 0
4.95376e-15 1.00001 0
-1.19498e-14 1.00001 0
1.40929e-16 1.00001 0
-1.6912e-15 1.00001 0
6.86381e-15 1.00001 0
4.16431e-15 1.00001 0
-1.6912e-15 1.00001 0
-1.66837e-15 1.00001 0
4.16431e-15 1.00001 0
1.88944e-15 1.00001 0
-3.81169e-15 1.00001 0
-3.37423e-15 1.00001 0
9.78022e-15 1.00001 0
-1.55122e-15 1.00001 0
-3.37423e-15 1.00001 0
3.92088e-15 1.00001 0
-1.55122e-15 1.00001 0
-6.88688e-15 1.00001 0
-1.66837e-15 1.00001 0
-6.53748e-15 1.00001 0
1.88944e-15 1.00001 0
6.97007e-15 1.00001 0
-6.53748e-15 1.00001 0
9.25336e-15 1.00001 0
6.97007e-15 1.00001 0
-3.87013e-15 1.00001 0
3.92088e-15 1.00001 0
-4.53616e-15 1.00001 0
-6.88688e-15 1.00001 0
2.04841e-15 1.00001 0
-4.53616e-15 1.00001 0
1.22338e-15 1.00001 0
2.04841e-15 1.00001 0
4.50548e-15 1.00001 0
-1.87926e-14 1.00001 0
-9.61573e-15 1.00001 0
2.79136e-15 1.00001 0
-1.07681e-14 1.00001 0
-9.61573e-15 1.00001 0
-1.5278e-14 1.00001 0
-1.07681e-14 1.00001 0
-6.24622e-15 1.00001 0
-1.00177e-14 1.00001 0
-9.95337e-16 1.00001 0
1.21996e-14 1.00001 0
1.887e-14 1.00001 0
-9.95337e-16 1.00001 0
-5.16263e-15 1.00001 0
1.887e-14 1.00001 0
1.87491e-16 1.00001 0
-1.5278e-14 1.00001 0
-1.3214e-15 1.00001 0
-6.24622e-15 1.00001 0
-4.34637e-15 1.00001 0
-1.3214e-15 1.00001 0
-1.67748e-14 1.00001 0