# vtk DataFile Version 3.0
#This file was generated by the deal.II library on 2018/10/15 at 16:31:51
ASCII
DATASET UNSTRUCTURED_GRID

POINTS 20480 double
0 0 0
0.19635 0 0
0 0.297341 0
0.19635 0.297341 0
0.19635 0 0
0.392699 0 0
0.19635 0.297341 0
0.392699 0.297341 0
0 0.297341 0
0.19635 0.297341 0
0 0.610197 0
0.19635 0.610197 0
0.19635 0.297341 0
0.392699 0.297341 0
0.19635 0.610197 0
0.392699 0.610197 0
0.392699 0 0
0.589049 0 0
0.392699 0.297341 0
0.589049 0.297341 0
0.589049 0 0
0.785398 0 0
0.589049 0.297341 0
0.785398 0.297341 0
0.392699 0.297341 0
0.589049 0.297341 0
0.392699 0.610197 0
0.589049 0.610197 0
0.589049 0.297341 0
0.785398 0.297341 0
0.589049 0.610197 0
0.785398 0.610197 0
0 0.610197 0
0.19635 0.610197 0
0 0.922749 0
0.19635 0.922749 0
0.19635 0.610197 0
0.392699 0.610197 0
0.19635 0.922749 0
0.392699 0.922749 0
0 0.922749 0
0.19635 0.922749 0
0 1.23597 0
0.19635 1.23597 0
0.19635 0.922749 0
0.392699 0.922749 0
0.19635 1.23597 0
0.392699 1.23597 0
0.392699 0.610197 0
0.589049 0.610197 0
0.392699 0.922749 0
0.589049 0.922749 0
0.589049 0.610197 0
0.785398 0.610197 0
0.589049 0.922749 0
0.785398 0.922749 0
0.392699 0.922749 0
0.589049 0.922749 0
0.392699 1.23597 0
0.589049 1.23597 0
0.589049 0.922749 0
0.785398 0.922749 0
0.589049 1.23597 0
0.785398 1.23597 0
0.785398 0 0
0.981748 0 0
0.785398 0.297341 0
0.981748 0.297341 0
0.981748 0 0
1.1781 0 0
0.981748 0.297341 0
1.1781 0.297341 0
0.785398 0.297341 0
0.981748 0.297341 0
0.785398 0.610197 0
0.981748 0.610197 0
0.981748 0.297341 0
1.1781 0.297341 0
0.981748 0.610197 0
1.1781 0.610197 0
1.1781 0 0
1.37445 0 0
1.1781 0.297341 0
1.37445 0.297341 0
1.37445 0 0
1.5708 0 0
1.37445 0.297341 0
1.5708 0.297341 0
1.1781 0.297341 0
1.37445 0.297341 0
1.1781 0.610197 0
1.37445 0.610197 0
1.37445 0.297341 0
1.5708 0.297341 0
1.37445 0.610197 0
1.5708 0.610197 0
0.785398 0.610197 0
0.981748 0.610197 0
0.785398 0.922749 0
0.981748 0.922749 0
0.981748 0.610197 0
1.1781 0.610197 0
0.981748 0.922749 0
1.1781 0.922749 0
0.785398 0.922749 0
0.981748 0.922749 0
0.785398 1.23597 0
0.981748 1.23597 0
0.981748 0.922749 0
1.1781 0.922749 0
0.981748 1.23597 0
1.1781 1.23597 0
1.1781 0.610197 0
1.37445 0.610197 0
1.1781 0.922749 0
1.37445 0.922749 0
1.37445 0.610197 0
1.5708 0.610197 0
1.37445 0.922749 0
1.5708 0.922749 0
1.1781 0.922749 0
1.37445 0.922749 0
1.1781 1.23597 0
1.37445 1.23597 0
1.37445 0.922749 0
1.5708 0.922749 0
1.37445 1.23597 0
1.5708 1.23597 0
0 1.23597 0
0.19635 1.23597 0
0 1.54902 0
0.19635 1.54902 0
0.19635 1.23597 0
0.392699 1.23597 0
0.19635 1.54902 0
0.392699 1.54902 0
0 1.54902 0
0.19635 1.54902 0
0 1.86213 0
0.19635 1.86213 0
0.19635 1.54902 0
0.392699 1.54902 0
0.19635 1.86213 0
0.392699 1.86213 0
0.392699 1.23597 0
0.589049 1.23597 0
0.392699 1.54902 0
0.589049 1.54902 0
0.589049 1.23597 0
0.785398 1.23597 0
0.589049 1.54902 0
0.785398 1.54902 0
0.392699 1.54902 0
0.589049 1.54902 0
0.392699 1.86213 0
0.589049 1.86213 0
0.589049 1.54902 0
0.785398 1.54902 0
0.589049 1.86213 0
0.785398 1.86213 0
0 1.86213 0
0.19635 1.86213 0
0 2.1752 0
0.19635 2.1752 0
0.19635 1.86213 0
0.392699 1.86213 0
0.19635 2.1752 0
0.392699 2.1752 0
0 2.1752 0
0.19635 2.1752 0
0 2.48826 0
0.19635 2.48826 0
0.19635 2.1752 0
0.392699 2.1752 0
0.19635 2.48826 0
0.392699 2.48826 0
0.392699 1.86213 0
0.589049 1.86213 0
0.392699 2.1752 0
0.589049 2.1752 0
0.589049 1.86213 0
0.785398 1.86213 0
0.589049 2.1752 0
0.785398 2.1752 0
0.392699 2.1752 0
0.589049 2.1752 0
0.392699 2.48826 0
0.589049 2.48826 0
0.589049 2.1752 0
0.785398 2.1752 0
0.589049 2.48826 0
0.785398 2.48826 0
0.785398 1.23597 0
0.981748 1.23597 0
0.785398 1.54902 0
0.981748 1.54902 0
0.981748 1.23597 0
1.1781 1.23597 0
0.981748 1.54902 0
1.1781 1.54902 0
0.785398 1.54902 0
0.981748 1.54902 0
0.785398 1.86213 0
0.981748 1.86213 0
0.981748 1.54902 0
1.1781 1.54902 0
0.981748 1.86213 0
1.1781 1.86213 0
1.1781 1.23597 0
1.37445 1.23597 0
1.1781 1.54902 0
1.37445 1.54902 0
1.37445 1.23597 0
1.5708 1.23597 0
1.37445 1.54902 0
1.5708 1.54902 0
1.1781 1.54902 0
1.37445 1.54902 0
1.1781 1.86213 0
1.37445 1.86213 0
1.37445 1.54902 0
1.5708 1.54902 0
1.37445 1.86213 0
1.5708 1.86213 0
0.785398 1.86213 0
0.981748 1.86213 0
0.785398 2.1752 0
0.981748 2.1752 0
0.981748 1.86213 0
1.1781 1.86213 0
0.981748 2.1752 0
1.1781 2.1752 0
0.785398 2.1752 0
0.981748 2.1752 0
0.785398 2.48826 0
0.981748 2.48826 0
0.981748 2.1752 0
1.1781 2.1752 0
0.981748 2.48826 0
1.1781 2.48826 0
1.1781 1.86213 0
1.37445 1.86213 0
1.1781 2.1752 0
1.37445 2.1752 0
1.37445 1.86213 0
1.5708 1.86213 0
1.37445 2.1752 0
1.5708 2.1752 0
1.1781 2.1752 0
1.37445 2.1752 0
1.1781 2.48826 0
1.37445 2.48826 0
1.37445 2.1752 0
1.5708 2.1752 0
1.37445 2.48826 0
1.5708 2.48826 0
1.5708 0 0
1.76715 0 0
1.5708 0.297341 0
1.76715 0.297341 0
1.76715 0 0
1.9635 0 0
1.76715 0.297341 0
1.9635 0.297341 0
1.5708 0.297341 0
1.76715 0.297341 0
1.5708 0.610197 0
1.76715 0.610197 0
1.76715 0.297341 0
1.9635 0.297341 0
1.76715 0.610197 0
1.9635 0.610197 0
1.9635 0 0
2.15984 0 0
1.9635 0.297341 0
2.15984 0.297341 0
2.15984 0 0
2.35619 0 0
2.15984 0.297341 0
2.35619 0.297341 0
1.9635 0.297341 0
2.15984 0.297341 0
1.9635 0.610197 0
2.15984 0.610197 0
2.15984 0.297341 0
2.35619 0.297341 0
2.15984 0.610197 0
2.35619 0.610197 0
1.5708 0.610197 0
1.76715 0.610197 0
1.5708 0.922749 0
1.76715 0.922749 0
1.76715 0.610197 0
1.9635 0.610197 0
1.76715 0.922749 0
1.9635 0.922749 0
1.5708 0.922749 0
1.76715 0.922749 0
1.5708 1.23597 0
1.76715 1.23597 0
1.76715 0.922749 0
1.9635 0.922749 0
1.76715 1.23597 0
1.9635 1.23597 0
1.9635 0.610197 0
2.15984 0.610197 0
1.9635 0.922749 0
2.15984 0.922749 0
2.15984 0.610197 0
2.35619 0.610197 0
2.15984 0.922749 0
2.35619 0.922749 0
1.9635 0.922749 0
2.15984 0.922749 0
1.9635 1.23597 0
2.15984 1.23597 0
2.15984 0.922749 0
2.35619 0.922749 0
2.15984 1.23597 0
2.35619 1.23597 0
2.35619 0 0
2.55254 0 0
2.35619 0.297341 0
2.55254 0.297341 0
2.55254 0 0
2.74889 0 0
2.55254 0.297341 0
2.74889 0.297341 0
2.35619 0.297341 0
2.55254 0.297341 0
2.35619 0.610197 0
2.55254 0.610197 0
2.55254 0.297341 0
2.74889 0.297341 0
2.55254 0.610197 0
2.74889 0.610197 0
2.74889 0 0
2.94524 0 0
2.74889 0.297341 0
2.94524 0.297341 0
2.94524 0 0
3.14159 0 0
2.94524 0.297341 0
3.14159 0.297341 0
2.74889 0.297341 0
2.94524 0.297341 0
2.74889 0.610197 0
2.94524 0.610197 0
2.94524 0.297341 0
3.14159 0.297341 0
2.94524 0.610197 0
3.14159 0.610197 0
2.35619 0.610197 0
2.55254 0.610197 0
2.35619 0.922749 0
2.55254 0.922749 0
2.55254 0.610197 0
2.74889 0.610197 0
2.55254 0.922749 0
2.74889 0.922749 0
2.35619 0.922749 0
2.55254 0.922749 0
2.35619 1.23597 0
2.55254 1.23597 0
2.55254 0.922749 0
2.74889 0.922749 0
2.55254 1.23597 0
2.74889 1.23597 0
2.74889 0.610197 0
2.94524 0.610197 0
2.74889 0.922749 0
2.94524 0.922749 0
2.94524 0.610197 0
3.14159 0.610197 0
2.94524 0.922749 0
3.14159 0.922749 0
2.74889 0.922749 0
2.94524 0.922749 0
2.74889 1.23597 0
2.94524 1.23597 0
2.94524 0.922749 0
3.14159 0.922749 0
2.94524 1.23597 0
3.14159 1.23597 0
1.5708 1.23597 0
1.76715 1.23597 0
1.5708 1.54902 0
1.76715 1.54902 0
1.76715 1.23597 0
1.9635 1.23597 0
1.76715 1.54902 0
1.9635 1.54902 0
1.5708 1.54902 0
1.76715 1.54902 0
1.5708 1.86213 0
1.76715 1.86213 0
1.76715 1.54902 0
1.9635 1.54902 0
1.76715 1.86213 0
1.9635 1.86213 0
1.9635 1.23597 0
2.15984 1.23597 0
1.9635 1.54902 0
2.15984 1.54902 0
2.15984 1.23597 0
2.35619 1.23597 0
2.15984 1.54902 0
2.35619 1.54902 0
1.9635 1.54902 0
2.15984 1.54902 0
1.9635 1.86213 0
2.15984 1.86213 0
2.15984 1.54902 0
2.35619 1.54902 0
2.15984 1.86213 0
2.35619 1.86213 0
1.5708 1.86213 0
1.76715 1.86213 0
1.5708 2.1752 0
1.76715 2.1752 0
1.76715 1.86213 0
1.9635 1.86213 0
1.76715 2.1752 0
1.9635 2.1752 0
1.5708 2.1752 0
1.76715 2.1752 0
1.5708 2.48826 0
1.76715 2.48826 0
1.76715 2.1752 0
1.9635 2.1752 0
1.76715 2.48826 0
1.9635 2.48826 0
1.9635 1.86213 0
2.15984 1.86213 0
1.9635 2.1752 0
2.15984 2.1752 0
2.15984 1.86213 0
2.35619 1.86213 0
2.15984 2.1752 0
2.35619 2.1752 0
1.9635 2.1752 0
2.15984 2.1752 0
1.9635 2.48826 0
2.15984 2.48826 0
2.15984 2.1752 0
2.35619 2.1752 0
2.15984 2.48826 0
2.35619 2.48826 0
2.35619 1.23597 0
2.55254 1.23597 0
2.35619 1.54902 0
2.55254 1.54902 0
2.55254 1.23597 0
2.74889 1.23597 0
2.55254 1.54902 0
2.74889 1.54902 0
2.35619 1.54902 0
2.55254 1.54902 0
2.35619 1.86213 0
2.55254 1.86213 0
2.55254 1.54902 0
2.74889 1.54902 0
2.55254 1.86213 0
2.74889 1.86213 0
2.74889 1.23597 0
2.94524 1.23597 0
2.74889 1.54902 0
2.94524 1.54902 0
2.94524 1.23597 0
3.14159 1.23597 0
2.94524 1.54902 0
3.14159 1.54902 0
2.74889 1.54902 0
2.94524 1.54902 0
2.74889 1.86213 0
2.94524 1.86213 0
2.94524 1.54902 0
3.14159 1.54902 0
2.94524 1.86213 0
3.14159 1.86213 0
2.35619 1.86213 0
2.55254 1.86213 0
2.35619 2.1752 0
2.55254 2.1752 0
2.55254 1.86213 0
2.74889 1.86213 0
2.55254 2.1752 0
2.74889 2.1752 0
2.35619 2.1752 0
2.55254 2.1752 0
2.35619 2.48826 0
2.55254 2.48826 0
2.55254 2.1752 0
2.74889 2.1752 0
2.55254 2.48826 0
2.74889 2.48826 0
2.74889 1.86213 0
2.94524 1.86213 0
2.74889 2.1752 0
2.94524 2.1752 0
2.94524 1.86213 0
3.14159 1.86213 0
2.94524 2.1752 0
3.14159 2.1752 0
2.74889 2.1752 0
2.94524 2.1752 0
2.74889 2.48826 0
2.94524 2.48826 0
2.94524 2.1752 0
3.14159 2.1752 0
2.94524 2.48826 0
3.14159 2.48826 0
0 2.48826 0
0.19635 2.48826 0
0 2.80132 0
0.19635 2.80132 0
0.19635 2.48826 0
0.392699 2.48826 0
0.19635 2.80132 0
0.392699 2.80132 0
0 2.80132 0
0.19635 2.80132 0
0 3.11436 0
0.19635 3.11436 0
0.19635 2.80132 0
0.392699 2.80132 0
0.19635 3.11436 0
0.392699 3.11436 0
0.392699 2.48826 0
0.589049 2.48826 0
0.392699 2.80132 0
0.589049 2.80132 0
0.589049 2.48826 0
0.785398 2.48826 0
0.589049 2.80132 0
0.785398 2.80132 0
0.392699 2.80132 0
0.589049 2.80132 0
0.392699 3.11436 0
0.589049 3.11436 0
0.589049 2.80132 0
0.785398 2.80132 0
0.589049 3.11436 0
0.785398 3.11436 0
0 3.11436 0
0.19635 3.11436 0
0 3.42739 0
0.19635 3.42739 0
0.19635 3.11436 0
0.392699 3.11436 0
0.19635 3.42739 0
0.392699 3.42739 0
0 3.42739 0
0.19635 3.42739 0
0 3.74041 0
[...]
POINT_DATA 20480
VECTORS velocity double
0 0 0
0 0 0
0 -0.00353211 0
-1.57501e-16 -0.00353211 0
0 0 0
0 0 0
-1.57501e-16 -0.00353211 0
-1.80143e-15 -0.00353211 0
0 -0.00353211 0
-1.57501e-16 -0.00353211 0
0 -0.00354596 0
-2.68857e-15 -0.00354596 0
-1.57501e-16 -0.00353211 0
-1.80143e-15 -0.00353211 0
-2.68857e-15 -0.00354596 0
1.74672e-15 -0.00354596 0
0 0 0
0 0 0
-1.80143e-15 -0.00353211 0
-5.2598e-16 -0.00353211 0
0 0 0
0 0 0
-5.2598e-16 -0.00353211 0
-3.22365e-15 -0.00353211 0
-1.80143e-15 -0.00353211 0
-5.2598e-16 -0.00353211 0
1.74672e-15 -0.00354596 0
1.33096e-16 -0.00354596 0
-5.2598e-16 -0.00353211 0
-3.22365e-15 -0.00353211 0
1.33096e-16 -0.00354596 0
-1.60354e-15 -0.00354596 0
0 -0.00354596 0
-2.68857e-15 -0.00354596 0
0 -0.00355691 0
1.52648e-15 -0.00355691 0
-2.68857e-15 -0.00354596 0
1.74672e-15 -0.00354596 0
1.52648e-15 -0.00355691 0
-4.42395e-15 -0.00355691 0
0 -0.00355691 0
1.52648e-15 -0.00355691 0
0 -0.0033737 0
-1.73637e-15 -0.0033737 0
1.52648e-15 -0.00355691 0
-4.42395e-15 -0.00355691 0
-1.73637e-15 -0.0033737 0
3.63611e-15 -0.0033737 0
1.74672e-15 -0.00354596 0
1.33096e-16 -0.00354596 0
-4.42395e-15 -0.00355691 0
-5.61387e-15 -0.00355691 0
1.33096e-16 -0.00354596 0
-1.60354e-15 -0.00354596 0
-5.61387e-15 -0.00355691 0
-6.62565e-15 -0.00355691 0
-4.42395e-15 -0.00355691 0
-5.61387e-15 -0.00355691 0
3.63611e-15 -0.0033737 0
5.49405e-15 -0.0033737 0
-5.61387e-15 -0.00355691 0
-6.62565e-15 -0.00355691 0
5.49405e-15 -0.0033737 0
-2.60254e-15 -0.0033737 0
0 0 0
0 0 0
-3.22365e-15 -0.00353211 0
-2.72536e-15 -0.00353211 0
0 0 0
0 0 0
-2.72536e-15 -0.00353211 0
1.79303e-15 -0.00353211 0
-3.22365e-15 -0.00353211 0
-2.72536e-15 -0.00353211 0
-1.60354e-15 -0.00354596 0
-1.99675e-15 -0.00354596 0
-2.72536e-15 -0.00353211 0
1.79303e-15 -0.00353211 0
-1.99675e-15 -0.00354596 0
-4.8617e-15 -0.00354596 0
0 0 0
0 0 0
1.79303e-15 -0.00353211 0
3.66303e-16 -0.00353211 0
0 0 0
0 0 0
3.66303e-16 -0.00353211 0
-1.80113e-15 -0.00353211 0
1.79303e-15 -0.00353211 0
3.66303e-16 -0.00353211 0
-4.8617e-15 -0.00354596 0
-5.84375e-15 -0.00354596 0
3.66303e-16 -0.00353211 0
-1.80113e-15 -0.00353211 0
-5.84375e-15 -0.00354596 0
-1.25226e-15 -0.00354596 0
-1.60354e-15 -0.00354596 0
-1.99675e-15 -0.00354596 0
-6.62565e-15 -0.00355691 0
8.52971e-16 -0.00355691 0
-1.99675e-15 -0.00354596 0
-4.8617e-15 -0.00354596 0
8.52971e-16 -0.00355691 0
1.46829e-15 -0.00355691 0
-6.62565e-15 -0.00355691 0
8.52971e-16 -0.00355691 0
-2.60254e-15 -0.0033737 0
-4.08725e-15 -0.0033737 0
8.52971e-16 -0.00355691 0
1.46829e-15 -0.00355691 0
-4.08725e-15 -0.0033737 0
-5.98571e-15 -0.0033737 0
-4.8617e-15 -0.00354596 0
-5.84375e-15 -0.00354596 0
1.46829e-15 -0.00355691 0
-2.99629e-15 -0.00355691 0
-5.84375e-15 -0.00354596 0
-1.25226e-15 -0.00354596 0
-2.99629e-15 -0.00355691 0
-8.30859e-15 -0.00355691 0
1.46829e-15 -0.00355691 0
-2.99629e-15 -0.00355691 0
-5.98571e-15 -0.0033737 0
-9.00828e-16 -0.0033737 0
-2.99629e-15 -0.00355691 0
-8.30859e-15 -0.00355691 0
-9.00828e-16 -0.0033737 0
-8.29543e-15 -0.0033737 0
0 -0.0033737 0
-1.73637e-15 -0.0033737 0
0 -0.00324249 0
-2.13649e-15 -0.00324249 0
-1.73637e-15 -0.0033737 0
3.63611e-15 -0.0033737 0
-2.13649e-15 -0.00324249 0
2.66723e-15 -0.00324249 0
0 -0.00324249 0
-2.13649e-15 -0.00324249 0
0 -0.00309282 0
-9.17844e-16 -0.00309282 0
-2.13649e-15 -0.00324249 0
2.66723e-15 -0.00324249 0
-9.17844e-16 -0.00309282 0
6.96526e-16 -0.00309282 0
3.63611e-15 -0.0033737 0
5.49405e-15 -0.0033737 0
2.66723e-15 -0.00324249 0
-5.86747e-15 -0.00324249 0
5.49405e-15 -0.0033737 0
-2.60254e-15 -0.0033737 0
-5.86747e-15 -0.00324249 0
-4.28817e-15 -0.00324249 0
2.66723e-15 -0.00324249 0
-5.86747e-15 -0.00324249 0
6.96526e-16 -0.00309282 0
3.67198e-15 -0.00309282 0
-5.86747e-15 -0.00324249 0
-4.28817e-15 -0.00324249 0
3.67198e-15 -0.00309282 0
1.2367e-15 -0.00309282 0
0 -0.00309282 0
-9.17844e-16 -0.00309282 0
0 -0.00295366 0
-3.00266e-15 -0.00295366 0
-9.17844e-16 -0.00309282 0
6.96526e-16 -0.00309282 0
-3.00266e-15 -0.00295366 0
5.58386e-16 -0.00295366 0
0 -0.00295366 0
-3.00266e-15 -0.00295366 0
0 -0.00281488 0
-4.34589e-15 -0.00281488 0
-3.00266e-15 -0.00295366 0
5.58386e-16 -0.00295366 0
-4.34589e-15 -0.00281488 0
2.25556e-16 -0.00281488 0
6.96526e-16 -0.00309282 0
3.67198e-15 -0.00309282 0
5.58386e-16 -0.00295366 0
-1.27069e-15 -0.00295366 0
3.67198e-15 -0.00309282 0
1.2367e-15 -0.00309282 0
-1.27069e-15 -0.00295366 0
5.26469e-15 -0.00295366 0
5.58386e-16 -0.00295366 0
-1.27069e-15 -0.00295366 0
2.25556e-16 -0.00281488 0
-6.53245e-15 -0.00281488 0
-1.27069e-15 -0.00295366 0
5.26469e-15 -0.00295366 0
-6.53245e-15 -0.00281488 0
2.99954e-15 -0.00281488 0
-2.60254e-15 -0.0033737 0
-4.08725e-15 -0.0033737 0
-4.28817e-15 -0.00324249 0
1.20225e-15 -0.00324249 0
-4.08725e-15 -0.0033737 0
-5.98571e-15 -0.0033737 0
1.20225e-15 -0.00324249 0
-1.62942e-15 -0.00324249 0
-4.28817e-15 -0.00324249 0
1.20225e-15 -0.00324249 0
1.2367e-15 -0.00309282 0
-6.56627e-16 -0.00309282 0
1.20225e-15 -0.00324249 0
-1.62942e-15 -0.00324249 0
-6.56627e-16 -0.00309282 0
5.76608e-16 -0.00309282 0
-5.98571e-15 -0.0033737 0
-9.00828e-16 -0.0033737 0
-1.62942e-15 -0.00324249 0
-6.21964e-15 -0.00324249 0
-9.00828e-16 -0.0033737 0
-8.29543e-15 -0.0033737 0
-6.21964e-15 -0.00324249 0
2.28018e-15 -0.00324249 0
-1.62942e-15 -0.00324249 0
-6.21964e-15 -0.00324249 0
5.76608e-16 -0.00309282 0
2.69067e-15 -0.00309282 0
-6.21964e-15 -0.00324249 0
2.28018e-15 -0.00324249 0
2.69067e-15 -0.00309282 0
-1.1216e-14 -0.00309282 0
1.2367e-15 -0.00309282 0
-6.56627e-16 -0.00309282 0
5.26469e-15 -0.00295366 0
-7.66354e-16 -0.00295366 0
-6.56627e-16 -0.00309282 0
5.76608e-16 -0.00309282 0
-7.66354e-16 -0.00295366 0
-6.34107e-16 -0.00295366 0
5.26469e-15 -0.00295366 0
-7.66354e-16 -0.00295366 0
2.99954e-15 -0.00281488 0
-5.5562e-15 -0.00281488 0
-7.66354e-16 -0.00295366 0
-6.34107e-16 -0.00295366 0
-5.5562e-15 -0.00281488 0
1.72235e-15 -0.00281488 0
5.76608e-16 -0.00309282 0
2.69067e-15 -0.00309282 0
-6.34107e-16 -0.00295366 0
-2.66895e-15 -0.00295366 0
2.69067e-15 -0.00309282 0
-1.1216e-14 -0.00309282 0
-2.66895e-15 -0.00295366 0
-7.63853e-16 -0.00295366 0
-6.34107e-16 -0.00295366 0
-2.66895e-15 -0.00295366 0
1.72235e-15 -0.00281488 0
4.75742e-15 -0.00281488 0
-2.66895e-15 -0.00295366 0
-7.63853e-16 -0.00295366 0
4.75742e-15 -0.00281488 0
-2.65769e-15 -0.00281488 0
0 0 0
0 0 0
-1.80113e-15 -0.00353211 0
-1.56382e-15 -0.00353211 0
0 0 0
0 0 0
-1.56382e-15 -0.00353211 0
3.97912e-17 -0.00353211 0
-1.80113e-15 -0.00353211 0
-1.56382e-15 -0.00353211 0
-1.25226e-15 -0.00354596 0
7.82617e-16 -0.00354596 0
-1.56382e-15 -0.00353211 0
3.97912e-17 -0.00353211 0
7.82617e-16 -0.00354596 0
-2.01668e-15 -0.00354596 0
0 0 0
0 0 0
3.97912e-17 -0.00353211 0
1.64326e-15 -0.00353211 0
0 0 0
0 0 0
1.64326e-15 -0.00353211 0
-1.99967e-15 -0.00353211 0
3.97912e-17 -0.00353211 0
1.64326e-15 -0.00353211 0
-2.01668e-15 -0.00354596 0
-4.27913e-15 -0.00354596 0
1.64326e-15 -0.00353211 0
-1.99967e-15 -0.00353211 0
-4.27913e-15 -0.00354596 0
-4.72909e-15 -0.00354596 0
-1.25226e-15 -0.00354596 0
7.82617e-16 -0.00354596 0
-8.30859e-15 -0.00355691 0
-1.80357e-15 -0.00355691 0
7.82617e-16 -0.00354596 0
-2.01668e-15 -0.00354596 0
-1.80357e-15 -0.00355691 0
-1.78939e-15 -0.00355691 0
-8.30859e-15 -0.00355691 0
-1.80357e-15 -0.00355691 0
-8.29543e-15 -0.0033737 0
-8.6256e-15 -0.0033737 0
-1.80357e-15 -0.00355691 0
-1.78939e-15 -0.00355691 0
-8.6256e-15 -0.0033737 0
-2.94798e-15 -0.0033737 0
-2.01668e-15 -0.00354596 0
-4.27913e-15 -0.00354596 0
-1.78939e-15 -0.00355691 0
-3.0078e-15 -0.00355691 0
-4.27913e-15 -0.00354596 0
-4.72909e-15 -0.00354596 0
-3.0078e-15 -0.00355691 0
-2.14253e-16 -0.00355691 0
-1.78939e-15 -0.00355691 0
-3.0078e-15 -0.00355691 0
-2.94798e-15 -0.0033737 0
-7.01195e-16 -0.0033737 0
-3.0078e-15 -0.00355691 0
-2.14253e-16 -0.00355691 0
-7.01195e-16 -0.0033737 0
-6.04761e-15 -0.0033737 0
0 0 0
0 0 0
-1.99967e-15 -0.00353211 0
7.97363e-16 -0.00353211 0
0 0 0
0 0 0
7.97363e-16 -0.00353211 0
-2.33495e-16 -0.00353211 0
-1.99967e-15 -0.00353211 0
7.97363e-16 -0.00353211 0
-4.72909e-15 -0.00354596 0
6.01317e-16 -0.00354596 0
7.97363e-16 -0.00353211 0
-2.33495e-16 -0.00353211 0
6.01317e-16 -0.00354596 0
3.2904e-15 -0.00354596 0
0 0 0
0 0 0
-2.33495e-16 -0.00353211 0
-2.68586e-15 -0.00353211 0
0 0 0
0 0 0
-2.68586e-15 -0.00353211 0
-4.57666e-16 -0.00353211 0
-2.33495e-16 -0.00353211 0
-2.68586e-15 -0.00353211 0
3.2904e-15 -0.00354596 0
3.18819e-15 -0.00354596 0
-2.68586e-15 -0.00353211 0
-4.57666e-16 -0.00353211 0
3.18819e-15 -0.00354596 0
-1.83375e-15 -0.00354596 0
-4.72909e-15 -0.00354596 0
6.01317e-16 -0.00354596 0
-2.14253e-16 -0.00355691 0
-4.81056e-15 -0.00355691 0
6.01317e-16 -0.00354596 0
3.2904e-15 -0.00354596 0
-4.81056e-15 -0.00355691 0
-4.31134e-15 -0.00355691 0
-2.14253e-16 -0.00355691 0
-4.81056e-15 -0.00355691 0
-6.04761e-15 -0.0033737 0
-7.26603e-15 -0.0033737 0
-4.81056e-15 -0.00355691 0
-4.31134e-15 -0.00355691 0
-7.26603e-15 -0.0033737 0
-3.2072e-15 -0.0033737 0
3.2904e-15 -0.00354596 0
3.18819e-15 -0.00354596 0
-4.31134e-15 -0.00355691 0
8.28109e-17 -0.00355691 0
3.18819e-15 -0.00354596 0
-1.83375e-15 -0.00354596 0
8.28109e-17 -0.00355691 0
4.31403e-15 -0.00355691 0
-4.31134e-15 -0.00355691 0
8.28109e-17 -0.00355691 0
-3.2072e-15 -0.0033737 0
1.59926e-15 -0.0033737 0
8.28109e-17 -0.00355691 0
4.31403e-15 -0.00355691 0
1.59926e-15 -0.0033737 0
-5.10776e-15 -0.0033737 0
-8.29543e-15 -0.0033737 0
-8.6256e-15 -0.0033737 0
2.28018e-15 -0.00324249 0
6.61594e-15 -0.00324249 0
-8.6256e-15 -0.0033737 0
-2.94798e-15 -0.0033737 0
6.61594e-15 -0.00324249 0
-7.52264e-15 -0.00324249 0
2.28018e-15 -0.00324249 0
6.61594e-15 -0.00324249 0
-1.1216e-14 -0.00309282 0
-7.60173e-15 -0.00309282 0
6.61594e-15 -0.00324249 0
-7.52264e-15 -0.00324249 0
-7.60173e-15 -0.00309282 0
2.48324e-15 -0.00309282 0
-2.94798e-15 -0.0033737 0
-7.01195e-16 -0.0033737 0
-7.52264e-15 -0.00324249 0
-4.58579e-15 -0.00324249 0
-7.01195e-16 -0.0033737 0
-6.04761e-15 -0.0033737 0
-4.58579e-15 -0.00324249 0
-2.79642e-15 -0.00324249 0
-7.52264e-15 -0.00324249 0
-4.58579e-15 -0.00324249 0
2.48324e-15 -0.00309282 0
1.49962e-15 -0.00309282 0
-4.58579e-15 -0.00324249 0
-2.79642e-15 -0.00324249 0
1.49962e-15 -0.00309282 0
-4.77289e-15 -0.00309282 0
-1.1216e-14 -0.00309282 0
-7.60173e-15 -0.00309282 0
-7.63853e-16 -0.00295366 0
-5.3143e-15 -0.00295366 0
-7.60173e-15 -0.00309282 0
2.48324e-15 -0.00309282 0
-5.3143e-15 -0.00295366 0
-9.10045e-15 -0.00295366 0
-7.63853e-16 -0.00295366 0
-5.3143e-15 -0.00295366 0
-2.65769e-15 -0.00281488 0
1.3378e-14 -0.00281488 0
-5.3143e-15 -0.00295366 0
-9.10045e-15 -0.00295366 0
1.3378e-14 -0.00281488 0
-1.02472e-14 -0.00281488 0
2.48324e-15 -0.00309282 0
1.49962e-15 -0.00309282 0
-9.10045e-15 -0.00295366 0
-3.98943e-15 -0.00295366 0
1.49962e-15 -0.00309282 0
-4.77289e-15 -0.00309282 0
-3.98943e-15 -0.00295366 0
-2.84975e-15 -0.00295366 0
-9.10045e-15 -0.00295366 0
-3.98943e-15 -0.00295366 0
-1.02472e-14 -0.00281488 0
-8.32779e-16 -0.00281488 0
-3.98943e-15 -0.00295366 0
-2.84975e-15 -0.00295366 0
-8.32779e-16 -0.00281488 0
-8.277e-15 -0.00281488 0
-6.04761e-15 -0.0033737 0
-7.26603e-15 -0.0033737 0
-2.79642e-15 -0.00324249 0
-1.59052e-15 -0.00324249 0
-7.26603e-15 -0.0033737 0
-3.2072e-15 -0.0033737 0
-1.59052e-15 -0.00324249 0
-3.9075e-15 -0.00324249 0
-2.79642e-15 -0.00324249 0
-1.59052e-15 -0.00324249 0
-4.77289e-15 -0.00309282 0
-6.74673e-16 -0.00309282 0
-1.59052e-15 -0.00324249 0
-3.9075e-15 -0.00324249 0
-6.74673e-16 -0.00309282 0
-5.07261e-15 -0.00309282 0
-3.2072e-15 -0.0033737 0
1.59926e-15 -0.0033737 0
-3.9075e-15 -0.00324249 0
-5.79288e-16 -0.00324249 0
1.59926e-15 -0.0033737 0
-5.10776e-15 -0.0033737 0
-5.79288e-16 -0.00324249 0
-3.37812e-15 -0.00324249 0
-3.9075e-15 -0.00324249 0
-5.79288e-16 -0.00324249 0
-5.07261e-15 -0.00309282 0
-8.96659e-15 -0.00309282 0
-5.79288e-16 -0.00324249 0
-3.37812e-15 -0.00324249 0
-8.96659e-15 -0.00309282 0
-4.76664e-15 -0.00309282 0
-4.77289e-15 -0.00309282 0
-6.74673e-16 -0.00309282 0
-2.84975e-15 -0.00295366 0
-7.45603e-15 -0.00295366 0
-6.74673e-16 -0.00309282 0
-5.07261e-15 -0.00309282 0
-7.45603e-15 -0.00295366 0
-8.59665e-15 -0.00295366 0
-2.84975e-15 -0.00295366 0
-7.45603e-15 -0.00295366 0
-8.277e-15 -0.00281488 0
-8.92082e-15 -0.00281488 0
-7.45603e-15 -0.00295366 0
-8.59665e-15 -0.00295366 0
-8.92082e-15 -0.00281488 0
-1.3216e-14 -0.00281488 0
-5.07261e-15 -0.00309282 0
-8.96659e-15 -0.00309282 0
-8.59665e-15 -0.00295366 0
-6.94407e-15 -0.00295366 0
-8.96659e-15 -0.00309282 0
-4.76664e-15 -0.00309282 0
-6.94407e-15 -0.00295366 0
-3.21091e-15 -0.00295366 0
-8.59665e-15 -0.00295366 0
-6.94407e-15 -0.00295366 0
-1.3216e-14 -0.00281488 0
-1.04828e-14 -0.00281488 0
-6.94407e-15 -0.00295366 0
-3.21091e-15 -0.00295366 0
-1.04828e-14 -0.00281488 0
-7.78624e-15 -0.00281488 0
0 -0.00281488 0
-4.34589e-15 -0.00281488 0
0 -0.00268005 0
5.54606e-15 -0.00268005 0
-4.34589e-15 -0.00281488 0
2.25556e-16 -0.00281488 0
5.54606e-15 -0.00268005 0
-8.27258e-15 -0.00268005 0
0 -0.00268005 0
5.54606e-15 -0.00268005 0
0 -0.00254789 0
3.89876e-15 -0.00254789 0
5.54606e-15 -0.00268005 0
-8.27258e-15 -0.00268005 0
3.89876e-15 -0.00254789 0
-1.63607e-15 -0.00254789 0
2.25556e-16 -0.00281488 0
-6.53245e-15 -0.00281488 0
-8.27258e-15 -0.00268005 0
-3.50161e-15 -0.00268005 0
-6.53245e-15 -0.00281488 0
2.99954e-15 -0.00281488 0
-3.50161e-15 -0.00268005 0
-4.56814e-15 -0.00268005 0
-8.27258e-15 -0.00268005 0
-3.50161e-15 -0.00268005 0
-1.63607e-15 -0.00254789 0
-7.79932e-15 -0.00254789 0
-3.50161e-15 -0.00268005 0
-4.56814e-15 -0.00268005 0
-7.79932e-15 -0.00254789 0
-6.24532e-15 -0.00254789 0
0 -0.00254789 0
3.89876e-15 -0.00254789 0
0 -0.00241878 0
-3.81407e-15 -0.00241878 0
3.89876e-15 -0.00254789 0
-1.63607e-15 -0.00254789 0
-3.81407e-15 -0.00241878 0
-3.8777e-15 -0.00241878 0
0 -0.00241878 0
-3.81407e-15 -0.00241878 0
0 -0.00229253 0
2.0881e-15 -0.00229253 0
-3.81407e-15 -0.00241878 0
-3.8777e-15 -0.00241878 0
2.0881e-15 -0.00229253 0
-3.08556e-15 -0.00229253 0
-1.63607e-15 -0.00254789 0
-7.79932e-15 -0.00254789 0
-3.8777e-15 -0.00241878 0
-3.62494e-15 -0.00241878 0
-7.79932e-15 -0.00254789 0
-6.24532e-15 -0.00254789 0
-3.62494e-15 -0.00241878 0
-1.09744e-14 -0.00241878 0
-3.8777e-15 -0.00241878 0
-3.62494e-15 -0.00241878 0
-3.08556e-15 -0.00229253 0
-3.73693e-15 -0.00229253 0
-3.62494e-15 -0.00241878 0
-1.09744e-14 -0.00241878 0
-3.73693e-15 -0.00229253 0
-3.08392e-15 -0.00229253 0
2.99954e-15 -0.00281488 0
-5.5562e-15 -0.00281488 0
-4.56814e-15 -0.00268005 0
-7.65275e-15 -0.00268005 0
-5.5562e-15 -0.00281488 0
1.72235e-15 -0.00281488 0
-7.65275e-15 -0.00268005 0
-5.65443e-15 -0.00268005 0
-4.56814e-15 -0.00268005 0
-7.65275e-15 -0.00268005 0
-6.24532e-15 -0.00254789 0
-3.41405e-15 -0.00254789 0
-7.65275e-15 -0.00268005 0
-5.65443e-15 -0.00268005 0
-3.41405e-15 -0.00254789 0
-6.64554e-15 -0.00254789 0
1.72235e-15 -0.00281488 0
4.75742e-15 -0.00281488 0
-5.65443e-15 -0.00268005 0
-9.06797e-15 -0.00268005 0
4.75742e-15 -0.00281488 0
-2.65769e-15 -0.00281488 0
-9.06797e-15 -0.00268005 0
-8.22387e-15 -0.00268005 0
-5.65443e-15 -0.00268005 0
-9.06797e-15 -0.00268005 0
-6.64554e-15 -0.00254789 0
-2.07966e-15 -0.00254789 0
-9.06797e-15 -0.00268005 0
-8.22387e-15 -0.00268005 0
-2.07966e-15 -0.00254789 0
-3.85333e-15 -0.00254789 0
-6.24532e-15 -0.00254789 0
-3.41405e-15 -0.00254789 0
-1.09744e-14 -0.00241878 0
-4.17612e-16 -0.00241878 0
-3.41405e-15 -0.00254789 0
-6.64554e-15 -0.00254789 0
-4.17612e-16 -0.00241878 0
-5.80327e-16 -0.00241878 0
-1.09744e-14 -0.00241878 0
-4.17612e-16 -0.00241878 0
-3.08392e-15 -0.00229253 0
-6.12007e-16 -0.00229253 0
-4.17612e-16 -0.00241878 0
-5.80327e-16 -0.00241878 0
-6.12007e-16 -0.00229253 0
-4.34653e-15 -0.00229253 0
-6.64554e-15 -0.00254789 0
-2.07966e-15 -0.00254789 0
-5.80327e-16 -0.00241878 0
-6.51852e-15 -0.00241878 0
-2.07966e-15 -0.00254789 0
-3.85333e-15 -0.00254789 0
-6.51852e-15 -0.00241878 0
-6.41213e-15 -0.00241878 0
-5.80327e-16 -0.00241878 0
-6.51852e-15 -0.00241878 0
-4.34653e-15 -0.00229253 0
-8.01249e-17 -0.00229253 0
-6.51852e-15 -0.00241878 0
-6.41213e-15 -0.00241878 0
-8.01249e-17 -0.00229253 0
3.36926e-15 -0.00229253 0
0 -0.00229253 0
2.0881e-15 -0.00229253 0
0 -0.00216914 0
4.71027e-15 -0.00216914 0
2.0881e-15 -0.00229253 0
-3.08556e-15 -0.00229253 0
4.71027e-15 -0.00216914 0
-4.98072e-15 -0.00216914 0
0 -0.00216914 0
4.71027e-15 -0.00216914 0
0 -0.00204855 0
6.62425e-15 -0.00204855 0
4.71027e-15 -0.00216914 0
-4.98072e-15 -0.00216914 0
6.62425e-15 -0.00204855 0
7.75773e-15 -0.00204855 0
-3.08556e-15 -0.00229253 0
-3.73693e-15 -0.00229253 0
-4.98072e-15 -0.00216914 0
8.09581e-15 -0.00216914 0
-3.73693e-15 -0.00229253 0
-3.08392e-15 -0.00229253 0
8.09581e-15 -0.00216914 0
1.41112e-14 -0.00216914 0
-4.98072e-15 -0.00216914 0
8.09581e-15 -0.00216914 0
7.75773e-15 -0.00204855 0
-2.94545e-15 -0.00204855 0
8.09581e-15 -0.00216914 0
1.41112e-14 -0.00216914 0
-2.94545e-15 -0.00204855 0
1.13822e-14 -0.00204855 0
0 -0.00204855 0
6.62425e-15 -0.00204855 0
0 -0.00193068 0
-5.41096e-15 -0.00193068 0
6.62425e-15 -0.00204855 0
7.75773e-15 -0.00204855 0
-5.41096e-15 -0.00193068 0
-4.43705e-15 -0.00193068 0
0 -0.00193068 0
-5.41096e-15 -0.00193068 0
0 -0.00181554 0
1.30418e-14 -0.00181554 0
-5.41096e-15 -0.00193068 0
-4.43705e-15 -0.00193068 0
1.30418e-14 -0.00181554 0
-7.62932e-16 -0.00181554 0
7.75773e-15 -0.00204855 0
-2.94545e-15 -0.00204855 0
-4.43705e-15 -0.00193068 0
-8.60929e-15 -0.00193068 0
-2.94545e-15 -0.00204855 0
1.13822e-14 -0.00204855 0
-8.60929e-15 -0.00193068 0
6.65828e-16 -0.00193068 0
-4.43705e-15 -0.00193068 0
-8.60929e-15 -0.00193068 0
-7.62932e-16 -0.00181554 0
-9.84104e-15 -0.00181554 0
-8.60929e-15 -0.00193068 0
6.65828e-16 -0.00193068 0
-9.84104e-15 -0.00181554 0
-1.22397e-14 -0.00181554 0
-3.08392e-15 -0.00229253 0
-6.12007e-16 -0.00229253 0
1.41112e-14 -0.00216914 0
4.69841e-15 -0.00216914 0
-6.12007e-16 -0.00229253 0
-4.34653e-15 -0.00229253 0
4.69841e-15 -0.00216914 0
7.40411e-15 -0.00216914 0
1.41112e-14 -0.00216914 0
4.69841e-15 -0.00216914 0
1.13822e-14 -0.00204855 0
-1.38983e-14 -0.00204855 0
4.69841e-15 -0.00216914 0
7.40411e-15 -0.00216914 0
-1.38983e-14 -0.00204855 0
1.17936e-15 -0.00204855 0
-4.34653e-15 -0.00229253 0
-8.01249e-17 -0.00229253 0
7.40411e-15 -0.00216914 0
5.06605e-15 -0.00216914 0
-8.01249e-17 -0.00229253 0
3.36926e-15 -0.00229253 0
5.06605e-15 -0.00216914 0
-4.65351e-15 -0.00216914 0
7.40411e-15 -0.00216914 0
5.06605e-15 -0.00216914 0
1.17936e-15 -0.00204855 0
4.52081e-16 -0.00204855 0
5.06605e-15 -0.00216914 0
-4.65351e-15 -0.00216914 0
4.52081e-16 -0.00204855 0
3.03598e-15 -0.00204855 0
1.13822e-14 -0.00204855 0
-1.38983e-14 -0.00204855 0
6.65828e-16 -0.00193068 0
-3.40197e-15 -0.00193068 0
-1.38983e-14 -0.00204855 0
1.17936e-15 -0.00204855 0
-3.40197e-15 -0.00193068 0
1.9852e-15 -0.00193068 0
6.65828e-16 -0.00193068 0
-3.40197e-15 -0.00193068 0
-1.22397e-14 -0.00181554 0
-6.62784e-15 -0.00181554 0
-3.40197e-15 -0.00193068 0
1.9852e-15 -0.00193068 0
-6.62784e-15 -0.00181554 0
-1.19837e-14 -0.00181554 0
1.17936e-15 -0.00204855 0
4.52081e-16 -0.00204855 0
1.9852e-15 -0.00193068 0
-2.0972e-15 -0.00193068 0
4.52081e-16 -0.00204855 0
3.03598e-15 -0.00204855 0
-2.0972e-15 -0.00193068 0
-1.97174e-15 -0.00193068 0
1.9852e-15 -0.00193068 0
-2.0972e-15 -0.00193068 0
-1.19837e-14 -0.00181554 0
-1.08415e-14 -0.00181554 0
-2.0972e-15 -0.00193068 0
-1.97174e-15 -0.00193068 0
-1.08415e-14 -0.00181554 0
-1.81775e-15 -0.00181554 0
-2.65769e-15 -0.00281488 0
1.3378e-14 -0.00281488 0
-8.22387e-15 -0.00268005 0
-4.89998e-15 -0.00268005 0
1.3378e-14 -0.00281488 0
-1.02472e-14 -0.00281488 0
-4.89998e-15 -0.00268005 0
-8.9594e-15 -0.00268005 0
-8.22387e-15 -0.00268005 0
-4.89998e-15 -0.00268005 0
-3.85333e-15 -0.00254789 0
-3.97794e-15 -0.00254789 0
-4.89998e-15 -0.00268005 0
-8.9594e-15 -0.00268005 0
-3.97794e-15 -0.00254789 0
-1.91234e-15 -0.00254789 0
-1.02472e-14 -0.00281488 0
-8.32779e-16 -0.00281488 0
-8.9594e-15 -0.00268005 0
9.68756e-16 -0.00268005 0
-8.32779e-16 -0.00281488 0