# vtk DataFile Version 3.0
#This file was generated by the deal.II library on 2018/10/15 at 4:03:46
ASCII
DATASET UNSTRUCTURED_GRID

POINTS 20480 double
0 0 0
0.19635 0 0
0 0.308924 0
0.19635 0.308924 0
0.19635 0 0
0.392699 0 0
0.19635 0.308924 0
0.392699 0.308924 0
0 0.308924 0
0.19635 0.308924 0
0 0.621585 0
0.19635 0.621585 0
0.19635 0.308924 0
0.392699 0.308924 0
0.19635 0.621585 0
0.392699 0.621585 0
0.392699 0 0
0.589049 0 0
0.392699 0.308924 0
0.589049 0.308924 0
0.589049 0 0
0.785398 0 0
0.589049 0.308924 0
0.785398 0.308924 0
0.392699 0.308924 0
0.589049 0.308924 0
0.392699 0.621585 0
0.589049 0.621585 0
0.589049 0.308924 0
0.785398 0.308924 0
0.589049 0.621585 0
0.785398 0.621585 0
0 0.621585 0
0.19635 0.621585 0
0 0.934112 0
0.19635 0.934112 0
0.19635 0.621585 0
0.392699 0.621585 0
0.19635 0.934112 0
0.392699 0.934112 0
0 0.934112 0
0.19635 0.934112 0
0 1.24677 0
0.19635 1.24677 0
0.19635 0.934112 0
0.392699 0.934112 0
0.19635 1.24677 0
0.392699 1.24677 0
0.392699 0.621585 0
0.589049 0.621585 0
0.392699 0.934112 0
0.589049 0.934112 0
0.589049 0.621585 0
0.785398 0.621585 0
0.589049 0.934112 0
0.785398 0.934112 0
0.392699 0.934112 0
0.589049 0.934112 0
0.392699 1.24677 0
0.589049 1.24677 0
0.589049 0.934112 0
0.785398 0.934112 0
0.589049 1.24677 0
0.785398 1.24677 0
0.785398 0 0
0.981748 0 0
0.785398 0.308924 0
0.981748 0.308924 0
0.981748 0 0
1.1781 0 0
0.981748 0.308924 0
1.1781 0.308924 0
0.785398 0.308924 0
0.981748 0.308924 0
0.785398 0.621585 0
0.981748 0.621585 0
0.981748 0.308924 0
1.1781 0.308924 0
0.981748 0.621585 0
1.1781 0.621585 0
1.1781 0 0
1.37445 0 0
1.1781 0.308924 0
1.37445 0.308924 0
1.37445 0 0
1.5708 0 0
1.37445 0.308924 0
1.5708 0.308924 0
1.1781 0.308924 0
1.37445 0.308924 0
1.1781 0.621585 0
1.37445 0.621585 0
1.37445 0.308924 0
1.5708 0.308924 0
1.37445 0.621585 0
1.5708 0.621585 0
0.785398 0.621585 0
0.981748 0.621585 0
0.785398 0.934112 0
0.981748 0.934112 0
0.981748 0.621585 0
1.1781 0.621585 0
0.981748 0.934112 0
1.1781 0.934112 0
0.785398 0.934112 0
0.981748 0.934112 0
0.785398 1.24677 0
0.981748 1.24677 0
0.981748 0.934112 0
1.1781 0.934112 0
0.981748 1.24677 0
1.1781 1.24677 0
1.1781 0.621585 0
1.37445 0.621585 0
1.1781 0.934112 0
1.37445 0.934112 0
1.37445 0.621585 0
1.5708 0.621585 0
1.37445 0.934112 0
1.5708 0.934112 0
1.1781 0.934112 0
1.37445 0.934112 0
1.1781 1.24677 0
1.37445 1.24677 0
1.37445 0.934112 0
1.5708 0.934112 0
1.37445 1.24677 0
1.5708 1.24677 0
0 1.24677 0
0.19635 1.24677 0
0 1.5594 0
0.19635 1.5594 0
0.19635 1.24677 0
0.392699 1.24677 0
0.19635 1.5594 0
0.392699 1.5594 0
0 1.5594 0
0.19635 1.5594 0
0 1.87203 0
0.19635 1.87203 0
0.19635 1.5594 0
0.392699 1.5594 0
0.19635 1.87203 0
0.392699 1.87203 0
0.392699 1.24677 0
0.589049 1.24677 0
0.392699 1.5594 0
0.589049 1.5594 0
0.589049 1.24677 0
0.785398 1.24677 0
0.589049 1.5594 0
0.785398 1.5594 0
0.392699 1.5594 0
0.589049 1.5594 0
0.392699 1.87203 0
0.589049 1.87203 0
0.589049 1.5594 0
0.785398 1.5594 0
0.589049 1.87203 0
0.785398 1.87203 0
0 1.87203 0
0.19635 1.87203 0
0 2.18466 0
0.19635 2.18466 0
0.19635 1.87203 0
0.392699 1.87203 0
0.19635 2.18466 0
0.392699 2.18466 0
0 2.18466 0
0.19635 2.18466 0
0 2.49728 0
0.19635 2.49728 0
0.19635 2.18466 0
0.392699 2.18466 0
0.19635 2.49728 0
0.392699 2.49728 0
0.392699 1.87203 0
0.589049 1.87203 0
0.392699 2.18466 0
0.589049 2.18466 0
0.589049 1.87203 0
0.785398 1.87203 0
0.589049 2.18466 0
0.785398 2.18466 0
0.392699 2.18466 0
0.589049 2.18466 0
0.392699 2.49728 0
0.589049 2.49728 0
0.589049 2.18466 0
0.785398 2.18466 0
0.589049 2.49728 0
0.785398 2.49728 0
0.785398 1.24677 0
0.981748 1.24677 0
0.785398 1.5594 0
0.981748 1.5594 0
0.981748 1.24677 0
1.1781 1.24677 0
0.981748 1.5594 0
1.1781 1.5594 0
0.785398 1.5594 0
0.981748 1.5594 0
0.785398 1.87203 0
0.981748 1.87203 0
0.981748 1.5594 0
1.1781 1.5594 0
0.981748 1.87203 0
1.1781 1.87203 0
1.1781 1.24677 0
1.37445 1.24677 0
1.1781 1.5594 0
1.37445 1.5594 0
1.37445 1.24677 0
1.5708 1.24677 0
1.37445 1.5594 0
1.5708 1.5594 0
1.1781 1.5594 0
1.37445 1.5594 0
1.1781 1.87203 0
1.37445 1.87203 0
1.37445 1.5594 0
1.5708 1.5594 0
1.37445 1.87203 0
1.5708 1.87203 0
0.785398 1.87203 0
0.981748 1.87203 0
0.785398 2.18466 0
0.981748 2.18466 0
0.981748 1.87203 0
1.1781 1.87203 0
0.981748 2.18466 0
1.1781 2.18466 0
0.785398 2.18466 0
0.981748 2.18466 0
0.785398 2.49728 0
0.981748 2.49728 0
0.981748 2.18466 0
1.1781 2.18466 0
0.981748 2.49728 0
1.1781 2.49728 0
1.1781 1.87203 0
1.37445 1.87203 0
1.1781 2.18466 0
1.37445 2.18466 0
1.37445 1.87203 0
1.5708 1.87203 0
1.37445 2.18466 0
1.5708 2.18466 0
1.1781 2.18466 0
1.37445 2.18466 0
1.1781 2.49728 0
1.37445 2.49728 0
1.37445 2.18466 0
1.5708 2.18466 0
1.37445 2.49728 0
1.5708 2.49728 0
1.5708 0 0
1.76715 0 0
1.5708 0.308924 0
1.76715 0.308924 0
1.76715 0 0
1.9635 0 0
1.76715 0.308924 0
1.9635 0.308924 0
1.5708 0.308924 0
1.76715 0.308924 0
1.5708 0.621585 0
1.76715 0.621585 0
1.76715 0.308924 0
1.9635 0.308924 0
1.76715 0.621585 0
1.9635 0.621585 0
1.9635 0 0
2.15984 0 0
1.9635 0.308924 0
2.15984 0.308924 0
2.15984 0 0
2.35619 0 0
2.15984 0.308924 0
2.35619 0.308924 0
1.9635 0.308924 0
2.15984 0.308924 0
1.9635 0.621585 0
2.15984 0.621585 0
2.15984 0.308924 0
2.35619 0.308924 0
2.15984 0.621585 0
2.35619 0.621585 0
1.5708 0.621585 0
1.76715 0.621585 0
1.5708 0.934112 0
1.76715 0.934112 0
1.76715 0.621585 0
1.9635 0.621585 0
1.76715 0.934112 0
1.9635 0.934112 0
1.5708 0.934112 0
1.76715 0.934112 0
1.5708 1.24677 0
1.76715 1.24677 0
1.76715 0.934112 0
1.9635 0.934112 0
1.76715 1.24677 0
1.9635 1.24677 0
1.9635 0.621585 0
2.15984 0.621585 0
1.9635 0.934112 0
2.15984 0.934112 0
2.15984 0.621585 0
2.35619 0.621585 0
2.15984 0.934112 0
2.35619 0.934112 0
1.9635 0.934112 0
2.15984 0.934112 0
1.9635 1.24677 0
2.15984 1.24677 0
2.15984 0.934112 0
2.35619 0.934112 0
2.15984 1.24677 0
2.35619 1.24677 0
2.35619 0 0
2.55254 0 0
2.35619 0.308924 0
2.55254 0.308924 0
2.55254 0 0
2.74889 0 0
2.55254 0.308924 0
2.74889 0.308924 0
2.35619 0.308924 0
2.55254 0.308924 0
2.35619 0.621585 0
2.55254 0.621585 0
2.55254 0.308924 0
2.74889 0.308924 0
2.55254 0.621585 0
2.74889 0.621585 0
2.74889 0 0
2.94524 0 0
2.74889 0.308924 0
2.94524 0.308924 0
2.94524 0 0
3.14159 0 0
2.94524 0.308924 0
3.14159 0.308924 0
2.74889 0.308924 0
2.94524 0.308924 0
2.74889 0.621585 0
2.94524 0.621585 0
2.94524 0.308924 0
3.14159 0.308924 0
2.94524 0.621585 0
3.14159 0.621585 0
2.35619 0.621585 0
2.55254 0.621585 0
2.35619 0.934112 0
2.55254 0.934112 0
2.55254 0.621585 0
2.74889 0.621585 0
2.55254 0.934112 0
2.74889 0.934112 0
2.35619 0.934112 0
2.55254 0.934112 0
2.35619 1.24677 0
2.55254 1.24677 0
2.55254 0.934112 0
2.74889 0.934112 0
2.55254 1.24677 0
2.74889 1.24677 0
2.74889 0.621585 0
2.94524 0.621585 0
2.74889 0.934112 0
2.94524 0.934112 0
2.94524 0.621585 0
3.14159 0.621585 0
2.94524 0.934112 0
3.14159 0.934112 0
2.74889 0.934112 0
2.94524 0.934112 0
2.74889 1.24677 0
2.94524 1.24677 0
2.94524 0.934112 0
3.14159 0.934112 0
2.94524 1.24677 0
3.14159 1.24677 0
1.5708 1.24677 0
1.76715 1.24677 0
1.5708 1.5594 0
1.76715 1.5594 0
1.76715 1.24677 0
1.9635 1.24677 0
1.76715 1.5594 0
1.9635 1.5594 0
1.5708 1.5594 0
1.76715 1.5594 0
1.5708 1.87203 0
1.76715 1.87203 0
1.76715 1.5594 0
1.9635 1.5594 0
1.76715 1.87203 0
1.9635 1.87203 0
1.9635 1.24677 0
2.15984 1.24677 0
1.9635 1.5594 0
2.15984 1.5594 0
2.15984 1.24677 0
2.35619 1.24677 0
2.15984 1.5594 0
2.35619 1.5594 0
1.9635 1.5594 0
2.15984 1.5594 0
1.9635 1.87203 0
2.15984 1.87203 0
2.15984 1.5594 0
2.35619 1.5594 0
2.15984 1.87203 0
2.35619 1.87203 0
1.5708 1.87203 0
1.76715 1.87203 0
1.5708 2.18466 0
1.76715 2.18466 0
1.76715 1.87203 0
1.9635 1.87203 0
1.76715 2.18466 0
1.9635 2.18466 0
1.5708 2.18466 0
1.76715 2.18466 0
1.5708 2.49728 0
1.76715 2.49728 0
1.76715 2.18466 0
1.9635 2.18466 0
1.76715 2.49728 0
1.9635 2.49728 0
1.9635 1.87203 0
2.15984 1.87203 0
1.9635 2.18466 0
2.15984 2.18466 0
2.15984 1.87203 0
2.35619 1.87203 0
2.15984 2.18466 0
2.35619 2.18466 0
1.9635 2.18466 0
2.15984 2.18466 0
1.9635 2.49728 0
2.15984 2.49728 0
2.15984 2.18466 0
2.35619 2.18466 0
2.15984 2.49728 0
2.35619 2.49728 0
2.35619 1.24677 0
2.55254 1.24677 0
2.35619 1.5594 0
2.55254 1.5594 0
2.55254 1.24677 0
2.74889 1.24677 0
2.55254 1.5594 0
2.74889 1.5594 0
2.35619 1.5594 0
2.55254 1.5594 0
2.35619 1.87203 0
2.55254 1.87203 0
2.55254 1.5594 0
2.74889 1.5594 0
2.55254 1.87203 0
2.74889 1.87203 0
2.74889 1.24677 0
2.94524 1.24677 0
2.74889 1.5594 0
2.94524 1.5594 0
2.94524 1.24677 0
3.14159 1.24677 0
2.94524 1.5594 0
3.14159 1.5594 0
2.74889 1.5594 0
2.94524 1.5594 0
2.74889 1.87203 0
2.94524 1.87203 0
2.94524 1.5594 0
3.14159 1.5594 0
2.94524 1.87203 0
3.14159 1.87203 0
2.35619 1.87203 0
2.55254 1.87203 0
2.35619 2.18466 0
2.55254 2.18466 0
2.55254 1.87203 0
2.74889 1.87203 0
2.55254 2.18466 0
2.74889 2.18466 0
2.35619 2.18466 0
2.55254 2.18466 0
2.35619 2.49728 0
2.55254 2.49728 0
2.55254 2.18466 0
2.74889 2.18466 0
2.55254 2.49728 0
2.74889 2.49728 0
2.74889 1.87203 0
2.94524 1.87203 0
2.74889 2.18466 0
2.94524 2.18466 0
2.94524 1.87203 0
3.14159 1.87203 0
2.94524 2.18466 0
3.14159 2.18466 0
2.74889 2.18466 0
2.94524 2.18466 0
2.74889 2.49728 0
2.94524 2.49728 0
2.94524 2.18466 0
3.14159 2.18466 0
2.94524 2.49728 0
3.14159 2.49728 0
0 2.49728 0
0.19635 2.49728 0
0 2.80991 0
0.19635 2.80991 0
0.19635 2.49728 0
0.392699 2.49728 0
0.19635 2.80991 0
0.392699 2.80991 0
0 2.80991 0
0.19635 2.80991 0
0 3.12253 0
0.19635 3.12253 0
0.19635 2.80991 0
0.392699 2.80991 0
0.19635 3.12253 0
0.392699 3.12253 0
0.392699 2.49728 0
0.589049 2.49728 0
0.392699 2.80991 0
0.589049 2.80991 0
0.589049 2.49728 0
0.785398 2.49728 0
0.589049 2.80991 0
0.785398 2.80991 0
0.392699 2.80991 0
0.589049 2.80991 0
0.392699 3.12253 0
0.589049 3.12253 0
0.589049 2.80991 0
0.785398 2.80991 0
0.589049 3.12253 0
0.785398 3.12253 0
0 3.12253 0
0.19635 3.12253 0
0 3.43515 0
0.19635 3.43515 0
0.19635 3.12253 0
0.392699 3.12253 0
0.19635 3.43515 0
0.392699 3.43515 0
0 3.43515 0
0.19635 3.43515 0
0 3.74777 0
[...]
POINT_DATA 20480
VECTORS uf double
0 1 0
-1.76396e-14 1 0
0 1.00001 0
2.15679e-14 1.00001 0
-1.76396e-14 1 0
-7.94704e-15 1 0
2.15679e-14 1.00001 0
1.34565e-14 1.00001 0
0 1.00001 0
1.57489e-15 1.00001 0
0 1.00001 0
-1.23064e-14 1.00001 0
1.57489e-15 1.00001 0
-3.25747e-15 1.00001 0
-1.23064e-14 1.00001 0
-3.24761e-15 1.00001 0
-7.94704e-15 1 0
-1.6507e-14 1 0
1.34565e-14 1.00001 0
2.3428e-14 1.00001 0
-1.6507e-14 1 0
-5.67923e-15 1 0
2.3428e-14 1.00001 0
5.36665e-15 1.00001 0
-3.25747e-15 1.00001 0
-1.63061e-14 1.00001 0
-3.24761e-15 1.00001 0
1.496e-14 1.00001 0
-1.63061e-14 1.00001 0
-1.04838e-14 1.00001 0
1.496e-14 1.00001 0
1.24137e-14 1.00001 0
0 1.00001 0
6.48437e-15 1.00001 0
0 1.00001 0
1.09557e-16 1.00001 0
6.48437e-15 1.00001 0
-9.65669e-15 1.00001 0
1.09557e-16 1.00001 0
1.50988e-14 1.00001 0
0 1.00001 0
-5.34208e-15 1.00001 0
0 1.00001 0
8.59523e-15 1.00001 0
-5.34208e-15 1.00001 0
-3.80551e-14 1.00001 0
8.59523e-15 1.00001 0
3.53183e-14 1.00001 0
-9.65669e-15 1.00001 0
-1.76514e-14 1.00001 0
1.50988e-14 1.00001 0
1.19502e-14 1.00001 0
-1.76514e-14 1.00001 0
-2.50054e-14 1.00001 0
1.19502e-14 1.00001 0
2.56436e-14 1.00001 0
-3.80551e-14 1.00001 0
-1.02975e-14 1.00001 0
3.53183e-14 1.00001 0
3.22504e-15 1.00001 0
-1.02975e-14 1.00001 0
-1.71949e-14 1.00001 0
3.22504e-15 1.00001 0
2.04449e-14 1.00001 0
-5.67923e-15 1 0
-1.54349e-14 1 0
5.36665e-15 1.00001 0
1.079e-14 1.00001 0
-1.54349e-14 1 0
-2.12778e-14 1 0
1.079e-14 1.00001 0
3.63142e-14 1.00001 0
-1.04838e-14 1.00001 0
-2.07811e-14 1.00001 0
1.24137e-14 1.00001 0
2.42832e-14 1.00001 0
-2.07811e-14 1.00001 0
-3.54623e-14 1.00001 0
2.42832e-14 1.00001 0
2.9253e-14 1.00001 0
-2.12778e-14 1 0
-2.88719e-14 1 0
3.63142e-14 1.00001 0
3.2845e-14 1.00001 0
-2.88719e-14 1 0
-2.37649e-14 1 0
3.2845e-14 1.00001 0
1.56004e-14 1.00001 0
-3.54623e-14 1.00001 0
-1.79955e-14 1.00001 0
2.9253e-14 1.00001 0
1.04028e-14 1.00001 0
-1.79955e-14 1.00001 0
-1.9168e-15 1.00001 0
1.04028e-14 1.00001 0
1.32508e-14 1.00001 0
-2.50054e-14 1.00001 0
-2.92614e-14 1.00001 0
2.56436e-14 1.00001 0
2.88446e-14 1.00001 0
-2.92614e-14 1.00001 0
-2.9108e-14 1.00001 0
2.88446e-14 1.00001 0
1.55291e-14 1.00001 0
-1.71949e-14 1.00001 0
-1.25263e-14 1.00001 0
2.04449e-14 1.00001 0
1.67817e-14 1.00001 0
-1.25263e-14 1.00001 0
-1.26463e-14 1.00001 0
1.67817e-14 1.00001 0
2.49821e-14 1.00001 0
-2.9108e-14 1.00001 0
-1.29366e-14 1.00001 0
1.55291e-14 1.00001 0
1.48811e-14 1.00001 0
-1.29366e-14 1.00001 0
-2.32361e-14 1.00001 0
1.48811e-14 1.00001 0
2.68458e-14 1.00001 0
-1.26463e-14 1.00001 0
-8.87149e-15 1.00001 0
2.49821e-14 1.00001 0
1.14611e-14 1.00001 0
-8.87149e-15 1.00001 0
-1.57454e-14 1.00001 0
1.14611e-14 1.00001 0
1.09725e-14 1.00001 0
0 1.00001 0
-1.34939e-14 1.00001 0
0 1.00001 0
1.06256e-14 1.00001 0
-1.34939e-14 1.00001 0
-3.93734e-15 1.00001 0
1.06256e-14 1.00001 0
3.73617e-15 1.00001 0
0 1.00001 0
-1.52596e-15 1.00001 0
0 1.00001 0
1.19844e-15 1.00001 0
-1.52596e-15 1.00001 0
-1.50863e-14 1.00001 0
1.19844e-15 1.00001 0
2.27363e-14 1.00001 0
-3.93734e-15 1.00001 0
5.51794e-15 1.00001 0
3.73617e-15 1.00001 0
4.3418e-15 1.00001 0
5.51794e-15 1.00001 0
-3.33344e-14 1.00001 0
4.3418e-15 1.00001 0
3.76062e-14 1.00001 0
-1.50863e-14 1.00001 0
-2.04531e-14 1.00001 0
2.27363e-14 1.00001 0
2.207e-14 1.00001 0
-2.04531e-14 1.00001 0
-4.39578e-14 1.00001 0
2.207e-14 1.00001 0
4.26572e-14 1.00001 0
0 1.00001 0
-1.77945e-14 1.00001 0
0 1.00001 0
1.70814e-14 1.00001 0
-1.77945e-14 1.00001 0
-1.91043e-14 1.00001 0
1.70814e-14 1.00001 0
9.50428e-15 1.00001 0
0 1.00001 0
-1.42271e-14 1.00001 0
0 1 0
2.33457e-14 1 0
-1.42271e-14 1.00001 0
-1.24571e-14 1.00001 0
2.33457e-14 1 0
2.3925e-14 1 0
-1.91043e-14 1.00001 0
-1.96517e-14 1.00001 0
9.50428e-15 1.00001 0
2.03029e-14 1.00001 0
-1.96517e-14 1.00001 0
-1.93192e-14 1.00001 0
2.03029e-14 1.00001 0
1.2465e-14 1.00001 0
-1.24571e-14 1.00001 0
-1.44045e-14 1.00001 0
2.3925e-14 1 0
1.65626e-14 1 0
-1.44045e-14 1.00001 0
-6.78102e-15 1.00001 0
1.65626e-14 1 0
9.78244e-15 1 0
-3.33344e-14 1.00001 0
-1.80114e-14 1.00001 0
3.76062e-14 1.00001 0
2.4667e-14 1.00001 0
-1.80114e-14 1.00001 0
-1.615e-14 1.00001 0
2.4667e-14 1.00001 0
2.18134e-14 1.00001 0
-4.39578e-14 1.00001 0
-2.82599e-14 1.00001 0
4.26572e-14 1.00001 0
2.07807e-14 1.00001 0
-2.82599e-14 1.00001 0
-3.33686e-14 1.00001 0
2.07807e-14 1.00001 0
3.17216e-14 1.00001 0
-1.615e-14 1.00001 0
-6.05004e-15 1.00001 0
2.18134e-14 1.00001 0
1.06843e-14 1.00001 0
-6.05004e-15 1.00001 0
-1.6484e-16 1.00001 0
1.06843e-14 1.00001 0
5.60626e-15 1.00001 0
-3.33686e-14 1.00001 0
1.8383e-15 1.00001 0
3.17216e-14 1.00001 0
-5.03374e-15 1.00001 0
1.8383e-15 1.00001 0
-1.78706e-14 1.00001 0
-5.03374e-15 1.00001 0
2.2042e-14 1.00001 0
-1.93192e-14 1.00001 0
-1.32389e-14 1.00001 0
1.2465e-14 1.00001 0
2.13847e-14 1.00001 0
-1.32389e-14 1.00001 0
-2.94165e-14 1.00001 0
2.13847e-14 1.00001 0
3.29624e-14 1.00001 0
-6.78102e-15 1.00001 0
-2.56815e-14 1.00001 0
9.78244e-15 1 0
3.36254e-14 1 0
-2.56815e-14 1.00001 0
-3.97529e-14 1.00001 0
3.36254e-14 1 0
4.56057e-14 1 0
-2.94165e-14 1.00001 0
-8.09409e-15 1.00001 0
3.29624e-14 1.00001 0
1.51884e-14 1.00001 0
-8.09409e-15 1.00001 0
-1.94413e-14 1.00001 0
1.51884e-14 1.00001 0
2.07638e-14 1.00001 0
-3.97529e-14 1.00001 0
-1.40744e-14 1.00001 0
4.56057e-14 1 0
1.65427e-14 1 0
-1.40744e-14 1.00001 0
-3.03887e-14 1.00001 0
1.65427e-14 1 0
3.34197e-14 1 0
-2.37649e-14 1 0
-3.91175e-14 1 0
1.56004e-14 1.00001 0
3.97781e-14 1.00001 0
-3.91175e-14 1 0
-2.16894e-14 1 0
3.97781e-14 1.00001 0
2.77289e-14 1.00001 0
-1.9168e-15 1.00001 0
-2.18675e-14 1.00001 0
1.32508e-14 1.00001 0
3.32044e-14 1.00001 0
-2.18675e-14 1.00001 0
-2.11855e-14 1.00001 0
3.32044e-14 1.00001 0
1.17696e-14 1.00001 0
-2.16894e-14 1 0
-1.31469e-14 1 0
2.77289e-14 1.00001 0
1.84528e-14 1.00001 0
-1.31469e-14 1 0
-5.50278e-15 1 0
1.84528e-14 1.00001 0
4.03059e-15 1.00001 0
-2.11855e-14 1.00001 0
-3.81269e-14 1.00001 0
1.17696e-14 1.00001 0
4.27062e-14 1.00001 0
-3.81269e-14 1.00001 0
-1.89421e-15 1.00001 0
4.27062e-14 1.00001 0
1.96491e-15 1.00001 0
-2.32361e-14 1.00001 0
-3.04668e-14 1.00001 0
2.68458e-14 1.00001 0
2.7479e-14 1.00001 0
-3.04668e-14 1.00001 0
-4.03757e-15 1.00001 0
2.7479e-14 1.00001 0
1.62776e-14 1.00001 0
-1.57454e-14 1.00001 0
-3.15414e-14 1.00001 0
1.09725e-14 1.00001 0
2.64127e-14 1.00001 0
-3.15414e-14 1.00001 0
-2.14397e-14 1.00001 0
2.64127e-14 1.00001 0
1.94151e-14 1.00001 0
-4.03757e-15 1.00001 0
-2.23195e-14 1.00001 0
1.62776e-14 1.00001 0
2.21753e-14 1.00001 0
-2.23195e-14 1.00001 0
9.01855e-15 1.00001 0
2.21753e-14 1.00001 0
-1.52684e-15 1.00001 0
-2.14397e-14 1.00001 0
-2.52384e-14 1.00001 0
1.94151e-14 1.00001 0
2.77353e-14 1.00001 0
-2.52384e-14 1.00001 0
1.68008e-15 1.00001 0
2.77353e-14 1.00001 0
-7.69311e-15 1.00001 0
-5.50278e-15 1 0
-6.80916e-15 1 0
4.03059e-15 1.00001 0
8.57809e-15 1.00001 0
-6.80916e-15 1 0
-3.18959e-14 1 0
8.57809e-15 1.00001 0
4.07236e-14 1.00001 0
-1.89421e-15 1.00001 0
2.31044e-15 1.00001 0
1.96491e-15 1.00001 0
-1.84002e-15 1.00001 0
2.31044e-15 1.00001 0
-2.21421e-14 1.00001 0
-1.84002e-15 1.00001 0
1.50989e-14 1.00001 0
-3.18959e-14 1 0
-6.80199e-15 1 0
4.07236e-14 1.00001 0
1.49984e-14 1.00001 0
-6.80199e-15 1 0
-8.69367e-15 1 0
1.49984e-14 1.00001 0
2.55194e-14 1.00001 0
-2.21421e-14 1.00001 0
-1.72827e-14 1.00001 0
1.50989e-14 1.00001 0
1.98368e-14 1.00001 0
-1.72827e-14 1.00001 0
-4.57997e-14 1.00001 0
1.98368e-14 1.00001 0
4.77827e-14 1.00001 0
9.01855e-15 1.00001 0
1.58673e-15 1.00001 0
-1.52684e-15 1.00001 0
-3.16766e-15 1.00001 0
1.58673e-15 1.00001 0
-1.37562e-14 1.00001 0
-3.16766e-15 1.00001 0
3.41107e-14 1.00001 0
1.68008e-15 1.00001 0
2.15885e-14 1.00001 0
-7.69311e-15 1.00001 0
-2.64032e-14 1.00001 0
2.15885e-14 1.00001 0
-3.07666e-14 1.00001 0
-2.64032e-14 1.00001 0
2.68042e-14 1.00001 0
-1.37562e-14 1.00001 0
-2.68999e-14 1.00001 0
3.41107e-14 1.00001 0
2.62162e-14 1.00001 0
-2.68999e-14 1.00001 0
-3.52451e-14 1.00001 0
2.62162e-14 1.00001 0
3.80748e-14 1.00001 0
-3.07666e-14 1.00001 0
-2.49456e-14 1.00001 0
2.68042e-14 1.00001 0
4.11961e-14 1.00001 0
-2.49456e-14 1.00001 0
-2.6207e-14 1.00001 0
4.11961e-14 1.00001 0
3.6951e-14 1.00001 0
-1.6484e-16 1.00001 0
-1.31417e-14 1.00001 0
5.60626e-15 1.00001 0
1.54371e-14 1.00001 0
-1.31417e-14 1.00001 0
-1.40322e-14 1.00001 0
1.54371e-14 1.00001 0
2.14081e-14 1.00001 0
-1.78706e-14 1.00001 0
-9.12153e-15 1.00001 0
2.2042e-14 1.00001 0
1.72414e-14 1.00001 0
-9.12153e-15 1.00001 0
-2.92425e-14 1.00001 0
1.72414e-14 1.00001 0
4.3297e-14 1.00001 0
-1.40322e-14 1.00001 0
-2.49038e-14 1.00001 0
2.14081e-14 1.00001 0
3.4592e-14 1.00001 0
-2.49038e-14 1.00001 0
4.66886e-15 1.00001 0
3.4592e-14 1.00001 0
3.6722e-15 1.00001 0
-2.92425e-14 1.00001 0
-3.51021e-14 1.00001 0
4.3297e-14 1.00001 0
3.04522e-14 1.00001 0
-3.51021e-14 1.00001 0
-1.16491e-14 1.00001 0
3.04522e-14 1.00001 0
1.27927e-14 1.00001 0
-1.94413e-14 1.00001 0
-1.71113e-14 1.00001 0
2.07638e-14 1.00001 0
1.44724e-14 1.00001 0
-1.71113e-14 1.00001 0
-3.31235e-14 1.00001 0
1.44724e-14 1.00001 0
2.47485e-14 1.00001 0
-3.03887e-14 1.00001 0
-1.46291e-14 1.00001 0
3.34197e-14 1 0
1.27463e-14 1 0
-1.46291e-14 1.00001 0
-5.04415e-14 1.00001 0
1.27463e-14 1 0
4.88315e-14 1 0
-3.31235e-14 1.00001 0
-3.30904e-14 1.00001 0
2.47485e-14 1.00001 0
3.28282e-14 1.00001 0
-3.30904e-14 1.00001 0
-5.34862e-17 1.00001 0
3.28282e-14 1.00001 0
3.31289e-15 1.00001 0
-5.04415e-14 1.00001 0
-1.7696e-14 1.00001 0
4.88315e-14 1 0
2.63382e-15 1 0
-1.7696e-14 1.00001 0
-3.14517e-15 1.00001 0
2.63382e-15 1 0
-7.2902e-15 1 0
4.66886e-15 1.00001 0
1.81774e-14 1.00001 0
3.6722e-15 1.00001 0
-6.21035e-15 1.00001 0
1.81774e-14 1.00001 0
-1.38991e-14 1.00001 0
-6.21035e-15 1.00001 0
6.68743e-15 1.00001 0
-1.16491e-14 1.00001 0
-2.02217e-15 1.00001 0
1.27927e-14 1.00001 0
1.17853e-14 1.00001 0
-2.02217e-15 1.00001 0
-6.98731e-15 1.00001 0
1.17853e-14 1.00001 0
4.67054e-15 1.00001 0
-1.38991e-14 1.00001 0
-2.4068e-14 1.00001 0
6.68743e-15 1.00001 0
7.31748e-15 1.00001 0
-2.4068e-14 1.00001 0
-3.77604e-14 1.00001 0
7.31748e-15 1.00001 0
2.3527e-14 1.00001 0
-6.98731e-15 1.00001 0
-9.99027e-15 1.00001 0
4.67054e-15 1.00001 0
1.86769e-14 1.00001 0
-9.99027e-15 1.00001 0
-2.39923e-14 1.00001 0
1.86769e-14 1.00001 0
1.64971e-14 1.00001 0
-5.34862e-17 1.00001 0
-1.58116e-14 1.00001 0
3.31289e-15 1.00001 0
9.35337e-15 1.00001 0
-1.58116e-14 1.00001 0
6.02301e-15 1.00001 0
9.35337e-15 1.00001 0
-1.14907e-14 1.00001 0
-3.14517e-15 1.00001 0
-1.92282e-14 1.00001 0
-7.2902e-15 1 0
2.16285e-14 1 0
-1.92282e-14 1.00001 0
-1.12471e-14 1.00001 0
2.16285e-14 1 0
9.91513e-15 1 0
6.02301e-15 1.00001 0
-2.12416e-14 1.00001 0
-1.14907e-14 1.00001 0
1.63474e-14 1.00001 0
-2.12416e-14 1.00001 0
-1.80076e-14 1.00001 0
1.63474e-14 1.00001 0
2.22871e-14 1.00001 0
-1.12471e-14 1.00001 0
-2.05006e-14 1.00001 0
9.91513e-15 1 0
1.05172e-14 1 0
-2.05006e-14 1.00001 0
-1.47347e-14 1.00001 0
1.05172e-14 1 0
1.0551e-14 1 0
0 1 0
-9.22615e-15 1 0
0 1 0
1.38541e-14 1 0
-9.22615e-15 1 0
-1.72216e-14 1 0
1.38541e-14 1 0
1.84018e-14 1 0
0 1 0
-2.62148e-14 1 0
0 1 0
1.8585e-14 1 0
-2.62148e-14 1 0
-2.96178e-14 1 0
1.8585e-14 1 0
1.12438e-14 1 0
-1.72216e-14 1 0
-1.02278e-14 1 0
1.84018e-14 1 0
6.85607e-15 1 0
-1.02278e-14 1 0
-1.25352e-14 1 0
6.85607e-15 1 0
2.27753e-14 1 0
-2.96178e-14 1 0
-2.43169e-15 1 0
1.12438e-14 1 0
8.86081e-16 1 0
-2.43169e-15 1 0
-2.13318e-14 1 0
8.86081e-16 1 0
1.12155e-14 1 0
0 1 0
-1.38223e-14 1 0
0 1 0
4.09851e-15 1 0
-1.38223e-14 1 0
-4.28286e-15 1 0
4.09851e-15 1 0
9.57038e-15 1 0
0 1 0
-8.44328e-15 1 0
0 1 0
6.41419e-15 1 0
-8.44328e-15 1 0
-1.2796e-14 1 0
6.41419e-15 1 0
4.01385e-15 1 0
-4.28286e-15 1 0
-9.50949e-15 1 0
9.57038e-15 1 0
1.81335e-14 1 0
-9.50949e-15 1 0
-1.16109e-14 1 0
1.81335e-14 1 0
7.39861e-15 1 0
-1.2796e-14 1 0
-2.28085e-14 1 0
4.01385e-15 1 0
1.23437e-14 1 0
-2.28085e-14 1 0
-1.39605e-14 1 0
1.23437e-14 1 0
2.45505e-14 1 0
-1.25352e-14 1 0
-2.55639e-14 1 0
2.27753e-14 1 0
2.09074e-14 1 0
-2.55639e-14 1 0
-3.90557e-14 1 0
2.09074e-14 1 0
2.88048e-14 1 0
-2.13318e-14 1 0
-3.95289e-14 1 0
1.12155e-14 1 0
4.20131e-14 1 0
-3.95289e-14 1 0
-1.71586e-14 1 0
4.20131e-14 1 0
1.6432e-14 1 0
-3.90557e-14 1 0
-2.10359e-14 1 0
2.88048e-14 1 0
1.38373e-14 1 0
-2.10359e-14 1 0
-3.53879e-14 1 0
1.38373e-14 1 0
3.23668e-14 1 0
-1.71586e-14 1 0
-2.13636e-15 1 0
1.6432e-14 1 0
8.0176e-15 1 0
-2.13636e-15 1 0
-2.50007e-14 1 0
8.0176e-15 1 0
3.05673e-14 1 0
-1.16109e-14 1 0
-3.54487e-14 1 0
7.39861e-15 1 0
2.77453e-14 1 0
-3.54487e-14 1 0
-2.56055e-14 1 0
2.77453e-14 1 0
3.40461e-14 1 0
-1.39605e-14 1 0
-1.01449e-14 1 0
2.45505e-14 1 0
2.0421e-15 1 0
-1.01449e-14 1 0
-1.31263e-14 1 0
2.0421e-15 1 0
2.94802e-15 1 0
-2.56055e-14 1 0
-8.2319e-15 1 0
3.40461e-14 1 0
6.93366e-15 1 0
-8.2319e-15 1 0
-2.19654e-14 1 0
6.93366e-15 1 0
1.94617e-14 1 0
-1.31263e-14 1 0
-2.34219e-14 1 0
2.94802e-15 1 0
3.09679e-14 1 0
-2.34219e-14 1 0
-2.53852e-14 1 0
3.09679e-14 1 0
2.96138e-14 1 0
0 1 0
-1.10004e-14 1 0
0 1 0
2.29493e-14 1 0
-1.10004e-14 1 0
-8.7189e-15 1 0
2.29493e-14 1 0
2.33046e-14 1 0
0 1 0
-6.46282e-15 1 0
0 1 0
2.8991e-15 1 0
-6.46282e-15 1 0
-1.47308e-14 1 0
2.8991e-15 1 0
3.08419e-16 1 0
-8.7189e-15 1 0
-8.54548e-15 1 0
2.33046e-14 1 0
8.49372e-15 1 0
-8.54548e-15 1 0
-3.38388e-14 1 0
8.49372e-15 1 0
3.26188e-14 1 0
-1.47308e-14 1 0
4.75993e-15 1 0
3.08419e-16 1 0
4.66237e-15 1 0
4.75993e-15 1 0
-4.17792e-14 1 0
4.66237e-15 1 0
4.51417e-14 1 0
0 1 0
-3.21827e-15 1 0
0 1 0
3.1764e-15 1 0
-3.21827e-15 1 0
-1.3419e-14 1 0
3.1764e-15 1 0
7.74438e-15 1 0
0 1 0
-1.18384e-14 1 0
0 1 0
1.81303e-15 1 0
-1.18384e-14 1 0
-1.39128e-15 1 0
1.81303e-15 1 0
1.12049e-14 1 0
-1.3419e-14 1 0
-3.41103e-14 1 0
7.74438e-15 1 0
5.20818e-15 1 0
-3.41103e-14 1 0
-3.39189e-14 1 0
5.20818e-15 1 0
1.14626e-14 1 0
-1.39128e-15 1 0
-4.76389e-15 1 0
1.12049e-14 1 0
3.13714e-14 1 0
-4.76389e-15 1 0
-8.65212e-15 1 0
3.13714e-14 1 0
1.23841e-14 1 0
-3.38388e-14 1 0
-3.49179e-14 1 0
3.26188e-14 1 0
3.27199e-14 1 0
-3.49179e-14 1 0
-8.0812e-15 1 0
3.27199e-14 1 0
9.28555e-15 1 0
-4.17792e-14 1 0
-2.34192e-14 1 0
4.51417e-14 1 0
2.18374e-14 1 0
-2.34192e-14 1 0
-1.481e-14 1 0
2.18374e-14 1 0
2.01844e-14 1 0
-8.0812e-15 1 0
-1.59599e-14 1 0
9.28555e-15 1 0
1.01393e-14 1 0
-1.59599e-14 1 0
-3.64147e-14 1 0
1.01393e-14 1 0
3.45691e-14 1 0
-1.481e-14 1 0
-1.09957e-14 1 0
2.01844e-14 1 0
2.73541e-15 1 0
-1.09957e-14 1 0
-2.59485e-14 1 0
2.73541e-15 1 0
2.7432e-14 1 0
-3.39189e-14 1 0
-3.41207e-14 1 0
1.14626e-14 1 0
8.37562e-15 1 0
-3.41207e-14 1 0
-1.37331e-14 1 0
8.37562e-15 1 0
1.53268e-14 1 0
-8.65212e-15 1 0
-2.92008e-15 1 0
1.23841e-14 1 0
2.72306e-14 1 0
-2.92008e-15 1 0
-1.18749e-14 1 0
2.72306e-14 1 0
1.02195e-14 1 0
-1.37331e-14 1 0
-5.10494e-15 1 0
1.53268e-14 1 0
1.72811e-14 1 0
-5.10494e-15 1 0
-3.59475e-14 1 0
1.72811e-14 1 0
3.50416e-14 1 0
-1.18749e-14 1 0
-2.25702e-14 1 0
1.02195e-14 1 0
1.32291e-14 1 0
-2.25702e-14 1 0
-3.11724e-14 1 0
1.32291e-14 1 0
1.5774e-14 1 0
-3.53879e-14 1 0
-1.30572e-14 1 0
3.23668e-14 1 0
1.04435e-14 1 0
-1.30572e-14 1 0
-4.00448e-14 1 0
1.04435e-14 1 0
3.2016e-14 1 0
-2.50007e-14 1 0
-1.08602e-14 1 0
3.05673e-14 1 0
2.3415e-14 1 0
-1.08602e-14 1 0
-5.01008e-15 1 0
2.3415e-14 1 0
7.77758e-15 1 0
-4.00448e-14 1 0
-7.22527e-15 1 0
3.2016e-14 1 0
1.65891e-14 1 0
-7.22527e-15 1 0
-1.62529e-14 1 0
1.65891e-14 1 0
2.63327e-14 1 0
-5.01008e-15 1 0
-5.30959e-15 1 0
7.77758e-15 1 0
7.80214e-15 1 0
-5.30959e-15 1 0
-2.01315e-14 1 0
7.80214e-15 1 0
2.59822e-14 1 0
-2.19654e-14 1 0
-1.93385e-14 1 0
1.94617e-14 1 0
2.46282e-14 1 0
-1.93385e-14 1 0
-3.44283e-15 1 0
2.46282e-14 1 0
9.01297e-15 1 0
-2.53852e-14 1 0
-3.26661e-14 1 0
2.96138e-14 1 0
2.58532e-14 1 0
-3.26661e-14 1 0
-1.66698e-14 1 0
2.58532e-14 1 0
2.06221e-14 1 0
-3.44283e-15 1 0
-5.87475e-15 1 0
9.01297e-15 1 0
8.15454e-15 1 0
-5.87475e-15 1 0
-2.22009e-14 1 0
8.15454e-15 1 0
2.33674e-14 1 0
-1.66698e-14 1 0
-8.34582e-15 1 0
2.06221e-14 1 0
1.15268e-14 1 0
-8.34582e-15 1 0
-1.281e-14 1 0
1.15268e-14 1 0
1.61662e-14 1 0
-1.62529e-14 1 0
-1.5156e-14 1 0
2.63327e-14 1 0
5.85658e-15 1 0
-1.5156e-14 1 0
5.04479e-17 1 0
5.85658e-15 1 0
-7.53288e-17 1 0
-2.01315e-14 1 0
-1.69376e-15 1 0
2.59822e-14 1 0
1.25991e-14 1 0
-1.69376e-15 1 0
9.14828e-15 1 0
1.25991e-14 1 0
-6.18308e-15 1 0
5.04479e-17 1 0
-1.42159e-14 1 0
-7.53288e-17 1 0
2.65593e-14 1 0
-1.42159e-14 1 0
-9.27549e-16 1 0
2.65593e-14 1 0
7.13155e-15 1 0
9.14828e-15 1 0
-2.02566e-15 1 0
-6.18308e-15 1 0
3.21753e-15 1 0
-2.02566e-15 1 0
3.39453e-16 1 0
3.21753e-15 1 0
2.66476e-15 1 0
-2.22009e-14 1 0
4.2523e-15 1 0
2.33674e-14 1 0
-3.77563e-15 1 0
4.2523e-15 1 0
4.01516e-15 1 0
-3.77563e-15 1 0
4.88325e-15 1 0
-1.281e-14 1 0
-6.85025e-15 1 0
1.61662e-14 1 0
6.49488e-15 1 0
-6.85025e-15 1 0
-3.16728e-15 1 0
6.49488e-15 1 0
4.40697e-15 1 0
4.01516e-15 1 0
-1.42461e-14 1 0
4.88325e-15 1 0
1.9382e-14 1 0
-1.42461e-14 1 0
6.29132e-15 1 0
1.9382e-14 1 0
-9.95913e-15 1 0
-3.16728e-15 1 0
-1.51668e-14 1 0
4.40697e-15 1 0
1.07167e-14 1 0
-1.51668e-14 1 0
3.4031e-16 1 0
1.07167e-14 1 0
8.95504e-15 1 0
-3.64147e-14 1 0
-1.5087e-14 1 0
3.45691e-14 1 0
1.78462e-14 1 0
-1.5087e-14 1 0
-2.62861e-14 1 0
1.78462e-14 1 0
2.05223e-14 1 0
-2.59485e-14 1 0
-2.58849e-14 1 0
2.7432e-14 1 0
2.87094e-14 1 0
-2.58849e-14 1 0
-2.11017e-14 1 0
2.87094e-14 1 0
1.74458e-14 1 0
-2.62861e-14 1 0
-7.34085e-15 1 0
2.05223e-14 1 0
2.85075e-15 1 0
-7.34085e-15 1 0
-2.48105e-14 1 0
2.85075e-15 1 0
1.89428e-14 1 0
-2.11017e-14 1 0
-1.20817e-14 1 0
1.74458e-14 1 0
2.34207e-14 1 0
-1.20817e-14 1 0
-1.74932e-14 1 0
2.34207e-14 1 0
1.90888e-14 1 0
-3.59475e-14 1 0
-4.8414e-14 1 0
3.50416e-14 1 0
3.27969e-14 1 0
-4.8414e-14 1 0
-2.93858e-14 1 0
3.27969e-14 1 0
1.31055e-14 1 0
-3.11724e-14 1 0
-3.08377e-14 1 0
1.5774e-14 1 0
1.25608e-14 1 0
-3.08377e-14 1 0
-2.37641e-14 1 0
1.25608e-14 1 0
1.28028e-14 1 0
-2.93858e-14 1 0
-2.40252e-14 1 0
1.31055e-14 1 0
2.04533e-14 1 0
-2.40252e-14 1 0
-6.69839e-15 1 0
2.04533e-14 1 0
9.10032e-15 1 0
-2.37641e-14 1 0
-1.81607e-14 1 0
1.28028e-14 1 0
1.74077e-14 1 0
-1.81607e-14 1 0
-1.46895e-14 1 0
1.74077e-14 1 0
1.29914e-14 1 0
-2.48105e-14 1 0
-1.02088e-14 1 0
1.89428e-14 1 0
5.24709e-15 1 0
-1.02088e-14 1 0
-1.75225e-14 1 0
5.24709e-15 1 0
3.39008e-14 1 0
-1.74932e-14 1 0
-2.12051e-15 1 0
1.90888e-14 1 0
1.65591e-14 1 0
-2.12051e-15 1 0
-3.42348e-14 1 0
1.65591e-14 1 0
3.07169e-14 1 0
-1.75225e-14 1 0
-1.01195e-14 1 0
3.39008e-14 1 0
9.48501e-15 1 0
-1.01195e-14 1 0
-1.96574e-14 1 0
9.48501e-15 1 0
2.05176e-14 1 0
-3.42348e-14 1 0
-4.84419e-15 1 0
3.07169e-14 1 0
1.98232e-14 1 0
-4.84419e-15 1 0
-1.979e-14 1 0
1.98232e-14 1 0
3.04096e-14 1 0
-6.69839e-15 1 0
-1.24798e-14 1 0
9.10032e-15 1 0
7.96983e-15 1 0
-1.24798e-14 1 0
-1.55822e-14 1 0
7.96983e-15 1 0
6.57164e-15 1 0
-1.46895e-14 1 0
-1.70601e-14 1 0
1.29914e-14 1 0
2.65473e-14 1 0
-1.70601e-14 1 0
-4.24886e-15 1 0
2.65473e-14 1 0
5.10271e-15 1 0
-1.55822e-14 1 0
-2.54999e-14 1 0
6.57164e-15 1 0
2.09159e-14 1 0
-2.54999e-14 1 0
-3.03903e-14 1 0
2.09159e-14 1 0
2.73974e-14 1 0
-4.24886e-15 1 0
-7.56733e-15 1 0
5.10271e-15 1 0
4.65417e-15 1 0
-7.56733e-15 1 0
-8.13823e-15 1 0
4.65417e-15 1 0
5.75178e-15 1 0
-8.69367e-15 1 0
-1.10742e-14 1 0
2.55194e-14 1.00001 0
1.23797e-14 1.00001 0
-1.10742e-14 1 0
-2.11074e-14 1 0
1.23797e-14 1.00001 0
3.01009e-14 1.00001 0
-4.57997e-14 1.00001 0
-2.0795e-14 1.00001 0
4.77827e-14 1.00001 0
3.76661e-14 1.00001 0
-2.0795e-14 1.00001 0
-1.01499e-14 1.00001 0
3.76661e-14 1.00001 0
1.17304e-14 1.00001 0
-2.11074e-14 1 0
-2.07176e-14 1 0
3.01009e-14 1.00001 0
1.88647e-14 1.00001 0
-2.07176e-14 1 0
-2.54082e-14 1 0
1.88647e-14 1.00001 0
3.64316e-14 1.00001 0
-1.01499e-14 1.00001 0
1.37563e-14 1.00001 0
1.17304e-14 1.00001 0
-3.94685e-16 1.00001 0
1.37563e-14 1.00001 0
-1.58001e-14 1.00001 0
-3.94685e-16 1.00001 0
2.8633e-14 1.00001 0
-3.52451e-14 1.00001 0
-1.31454e-14 1.00001 0
3.80748e-14 1.00001 0
8.76546e-15 1.00001 0
-1.31454e-14 1.00001 0
-1.26133e-14 1.00001 0
8.76546e-15 1.00001 0