# vtk DataFile Version 3.0
#This file was generated by the deal.II library on 2018/10/16 at 10:10:53
ASCII
DATASET UNSTRUCTURED_GRID

POINTS 20480 double
0 0 0
0.19635 0 0
0 0.279149 0
0.19635 0.279149 0
0.19635 0 0
0.392699 0 0
0.19635 0.279149 0
0.392699 0.279149 0
0 0.279149 0
0.19635 0.279149 0
0 0.591334 0
0.19635 0.591334 0
0.19635 0.279149 0
0.392699 0.279149 0
0.19635 0.591334 0
0.392699 0.591334 0
0.392699 0 0
0.589049 0 0
0.392699 0.279149 0
0.589049 0.279149 0
0.589049 0 0
0.785398 0 0
0.589049 0.279149 0
0.785398 0.279149 0
0.392699 0.279149 0
0.589049 0.279149 0
0.392699 0.591334 0
0.589049 0.591334 0
0.589049 0.279149 0
0.785398 0.279149 0
0.589049 0.591334 0
0.785398 0.591334 0
0 0.591334 0
0.19635 0.591334 0
0 0.903659 0
0.19635 0.903659 0
0.19635 0.591334 0
0.392699 0.591334 0
0.19635 0.903659 0
0.392699 0.903659 0
0 0.903659 0
0.19635 0.903659 0
0 1.2179 0
0.19635 1.2179 0
0.19635 0.903659 0
0.392699 0.903659 0
0.19635 1.2179 0
0.392699 1.2179 0
0.392699 0.591334 0
0.589049 0.591334 0
0.392699 0.903659 0
0.589049 0.903659 0
0.589049 0.591334 0
0.785398 0.591334 0
0.589049 0.903659 0
0.785398 0.903659 0
0.392699 0.903659 0
0.589049 0.903659 0
0.392699 1.2179 0
0.589049 1.2179 0
0.589049 0.903659 0
0.785398 0.903659 0
0.589049 1.2179 0
0.785398 1.2179 0
0.785398 0 0
0.981748 0 0
0.785398 0.279149 0
0.981748 0.279149 0
0.981748 0 0
1.1781 0 0
0.981748 0.279149 0
1.1781 0.279149 0
0.785398 0.279149 0
0.981748 0.279149 0
0.785398 0.591334 0
0.981748 0.591334 0
0.981748 0.279149 0
1.1781 0.279149 0
0.981748 0.591334 0
1.1781 0.591334 0
1.1781 0 0
1.37445 0 0
1.1781 0.279149 0
1.37445 0.279149 0
1.37445 0 0
1.5708 0 0
1.37445 0.279149 0
1.5708 0.279149 0
1.1781 0.279149 0
1.37445 0.279149 0
1.1781 0.591334 0
1.37445 0.591334 0
1.37445 0.279149 0
1.5708 0.279149 0
1.37445 0.591334 0
1.5708 0.591334 0
0.785398 0.591334 0
0.981748 0.591334 0
0.785398 0.903659 0
0.981748 0.903659 0
0.981748 0.591334 0
1.1781 0.591334 0
0.981748 0.903659 0
1.1781 0.903659 0
0.785398 0.903659 0
0.981748 0.903659 0
0.785398 1.2179 0
0.981748 1.2179 0
0.981748 0.903659 0
1.1781 0.903659 0
0.981748 1.2179 0
1.1781 1.2179 0
1.1781 0.591334 0
1.37445 0.591334 0
1.1781 0.903659 0
1.37445 0.903659 0
1.37445 0.591334 0
1.5708 0.591334 0
1.37445 0.903659 0
1.5708 0.903659 0
1.1781 0.903659 0
1.37445 0.903659 0
1.1781 1.2179 0
1.37445 1.2179 0
1.37445 0.903659 0
1.5708 0.903659 0
1.37445 1.2179 0
1.5708 1.2179 0
0 1.2179 0
0.19635 1.2179 0
0 1.53163 0
0.19635 1.53163 0
0.19635 1.2179 0
0.392699 1.2179 0
0.19635 1.53163 0
0.392699 1.53163 0
0 1.53163 0
0.19635 1.53163 0
0 1.84556 0
0.19635 1.84556 0
0.19635 1.53163 0
0.392699 1.53163 0
0.19635 1.84556 0
0.392699 1.84556 0
0.392699 1.2179 0
0.589049 1.2179 0
0.392699 1.53163 0
0.589049 1.53163 0
0.589049 1.2179 0
0.785398 1.2179 0
0.589049 1.53163 0
0.785398 1.53163 0
0.392699 1.53163 0
0.589049 1.53163 0
0.392699 1.84556 0
0.589049 1.84556 0
0.589049 1.53163 0
0.785398 1.53163 0
0.589049 1.84556 0
0.785398 1.84556 0
0 1.84556 0
0.19635 1.84556 0
0 2.15937 0
0.19635 2.15937 0
0.19635 1.84556 0
0.392699 1.84556 0
0.19635 2.15937 0
0.392699 2.15937 0
0 2.15937 0
0.19635 2.15937 0
0 2.47319 0
0.19635 2.47319 0
0.19635 2.15937 0
0.392699 2.15937 0
0.19635 2.47319 0
0.392699 2.47319 0
0.392699 1.84556 0
0.589049 1.84556 0
0.392699 2.15937 0
0.589049 2.15937 0
0.589049 1.84556 0
0.785398 1.84556 0
0.589049 2.15937 0
0.785398 2.15937 0
0.392699 2.15937 0
0.589049 2.15937 0
0.392699 2.47319 0
0.589049 2.47319 0
0.589049 2.15937 0
0.785398 2.15937 0
0.589049 2.47319 0
0.785398 2.47319 0
0.785398 1.2179 0
0.981748 1.2179 0
0.785398 1.53163 0
0.981748 1.53163 0
0.981748 1.2179 0
1.1781 1.2179 0
0.981748 1.53163 0
1.1781 1.53163 0
0.785398 1.53163 0
0.981748 1.53163 0
0.785398 1.84556 0
0.981748 1.84556 0
0.981748 1.53163 0
1.1781 1.53163 0
0.981748 1.84556 0
1.1781 1.84556 0
1.1781 1.2179 0
1.37445 1.2179 0
1.1781 1.53163 0
1.37445 1.53163 0
1.37445 1.2179 0
1.5708 1.2179 0
1.37445 1.53163 0
1.5708 1.53163 0
1.1781 1.53163 0
1.37445 1.53163 0
1.1781 1.84556 0
1.37445 1.84556 0
1.37445 1.53163 0
1.5708 1.53163 0
1.37445 1.84556 0
1.5708 1.84556 0
0.785398 1.84556 0
0.981748 1.84556 0
0.785398 2.15937 0
0.981748 2.15937 0
0.981748 1.84556 0
1.1781 1.84556 0
0.981748 2.15937 0
1.1781 2.15937 0
0.785398 2.15937 0
0.981748 2.15937 0
0.785398 2.47319 0
0.981748 2.47319 0
0.981748 2.15937 0
1.1781 2.15937 0
0.981748 2.47319 0
1.1781 2.47319 0
1.1781 1.84556 0
1.37445 1.84556 0
1.1781 2.15937 0
1.37445 2.15937 0
1.37445 1.84556 0
1.5708 1.84556 0
1.37445 2.15937 0
1.5708 2.15937 0
1.1781 2.15937 0
1.37445 2.15937 0
1.1781 2.47319 0
1.37445 2.47319 0
1.37445 2.15937 0
1.5708 2.15937 0
1.37445 2.47319 0
1.5708 2.47319 0
1.5708 0 0
1.76715 0 0
1.5708 0.279149 0
1.76715 0.279149 0
1.76715 0 0
1.9635 0 0
1.76715 0.279149 0
1.9635 0.279149 0
1.5708 0.279149 0
1.76715 0.279149 0
1.5708 0.591334 0
1.76715 0.591334 0
1.76715 0.279149 0
1.9635 0.279149 0
1.76715 0.591334 0
1.9635 0.591334 0
1.9635 0 0
2.15984 0 0
1.9635 0.279149 0
2.15984 0.279149 0
2.15984 0 0
2.35619 0 0
2.15984 0.279149 0
2.35619 0.279149 0
1.9635 0.279149 0
2.15984 0.279149 0
1.9635 0.591334 0
2.15984 0.591334 0
2.15984 0.279149 0
2.35619 0.279149 0
2.15984 0.591334 0
2.35619 0.591334 0
1.5708 0.591334 0
1.76715 0.591334 0
1.5708 0.903659 0
1.76715 0.903659 0
1.76715 0.591334 0
1.9635 0.591334 0
1.76715 0.903659 0
1.9635 0.903659 0
1.5708 0.903659 0
1.76715 0.903659 0
1.5708 1.2179 0
1.76715 1.2179 0
1.76715 0.903659 0
1.9635 0.903659 0
1.76715 1.2179 0
1.9635 1.2179 0
1.9635 0.591334 0
2.15984 0.591334 0
1.9635 0.903659 0
2.15984 0.903659 0
2.15984 0.591334 0
2.35619 0.591334 0
2.15984 0.903659 0
2.35619 0.903659 0
1.9635 0.903659 0
2.15984 0.903659 0
1.9635 1.2179 0
2.15984 1.2179 0
2.15984 0.903659 0
2.35619 0.903659 0
2.15984 1.2179 0
2.35619 1.2179 0
2.35619 0 0
2.55254 0 0
2.35619 0.279149 0
2.55254 0.279149 0
2.55254 0 0
2.74889 0 0
2.55254 0.279149 0
2.74889 0.279149 0
2.35619 0.279149 0
2.55254 0.279149 0
2.35619 0.591334 0
2.55254 0.591334 0
2.55254 0.279149 0
2.74889 0.279149 0
2.55254 0.591334 0
2.74889 0.591334 0
2.74889 0 0
2.94524 0 0
2.74889 0.279149 0
2.94524 0.279149 0
2.94524 0 0
3.14159 0 0
2.94524 0.279149 0
3.14159 0.279149 0
2.74889 0.279149 0
2.94524 0.279149 0
2.74889 0.591334 0
2.94524 0.591334 0
2.94524 0.279149 0
3.14159 0.279149 0
2.94524 0.591334 0
3.14159 0.591334 0
2.35619 0.591334 0
2.55254 0.591334 0
2.35619 0.903659 0
2.55254 0.903659 0
2.55254 0.591334 0
2.74889 0.591334 0
2.55254 0.903659 0
2.74889 0.903659 0
2.35619 0.903659 0
2.55254 0.903659 0
2.35619 1.2179 0
2.55254 1.2179 0
2.55254 0.903659 0
2.74889 0.903659 0
2.55254 1.2179 0
2.74889 1.2179 0
2.74889 0.591334 0
2.94524 0.591334 0
2.74889 0.903659 0
2.94524 0.903659 0
2.94524 0.591334 0
3.14159 0.591334 0
2.94524 0.903659 0
3.14159 0.903659 0
2.74889 0.903659 0
2.94524 0.903659 0
2.74889 1.2179 0
2.94524 1.2179 0
2.94524 0.903659 0
3.14159 0.903659 0
2.94524 1.2179 0
3.14159 1.2179 0
1.5708 1.2179 0
1.76715 1.2179 0
1.5708 1.53163 0
1.76715 1.53163 0
1.76715 1.2179 0
1.9635 1.2179 0
1.76715 1.53163 0
1.9635 1.53163 0
1.5708 1.53163 0
1.76715 1.53163 0
1.5708 1.84556 0
1.76715 1.84556 0
1.76715 1.53163 0
1.9635 1.53163 0
1.76715 1.84556 0
1.9635 1.84556 0
1.9635 1.2179 0
2.15984 1.2179 0
1.9635 1.53163 0
2.15984 1.53163 0
2.15984 1.2179 0
2.35619 1.2179 0
2.15984 1.53163 0
2.35619 1.53163 0
1.9635 1.53163 0
2.15984 1.53163 0
1.9635 1.84556 0
2.15984 1.84556 0
2.15984 1.53163 0
2.35619 1.53163 0
2.15984 1.84556 0
2.35619 1.84556 0
1.5708 1.84556 0
1.76715 1.84556 0
1.5708 2.15937 0
1.76715 2.15937 0
1.76715 1.84556 0
1.9635 1.84556 0
1.76715 2.15937 0
1.9635 2.15937 0
1.5708 2.15937 0
1.76715 2.15937 0
1.5708 2.47319 0
1.76715 2.47319 0
1.76715 2.15937 0
1.9635 2.15937 0
1.76715 2.47319 0
1.9635 2.47319 0
1.9635 1.84556 0
2.15984 1.84556 0
1.9635 2.15937 0
2.15984 2.15937 0
2.15984 1.84556 0
2.35619 1.84556 0
2.15984 2.15937 0
2.35619 2.15937 0
1.9635 2.15937 0
2.15984 2.15937 0
1.9635 2.47319 0
2.15984 2.47319 0
2.15984 2.15937 0
2.35619 2.15937 0
2.15984 2.47319 0
2.35619 2.47319 0
2.35619 1.2179 0
2.55254 1.2179 0
2.35619 1.53163 0
2.55254 1.53163 0
2.55254 1.2179 0
2.74889 1.2179 0
2.55254 1.53163 0
2.74889 1.53163 0
2.35619 1.53163 0
2.55254 1.53163 0
2.35619 1.84556 0
2.55254 1.84556 0
2.55254 1.53163 0
2.74889 1.53163 0
2.55254 1.84556 0
2.74889 1.84556 0
2.74889 1.2179 0
2.94524 1.2179 0
2.74889 1.53163 0
2.94524 1.53163 0
2.94524 1.2179 0
3.14159 1.2179 0
2.94524 1.53163 0
3.14159 1.53163 0
2.74889 1.53163 0
2.94524 1.53163 0
2.74889 1.84556 0
2.94524 1.84556 0
2.94524 1.53163 0
3.14159 1.53163 0
2.94524 1.84556 0
3.14159 1.84556 0
2.35619 1.84556 0
2.55254 1.84556 0
2.35619 2.15937 0
2.55254 2.15937 0
2.55254 1.84556 0
2.74889 1.84556 0
2.55254 2.15937 0
2.74889 2.15937 0
2.35619 2.15937 0
2.55254 2.15937 0
2.35619 2.47319 0
2.55254 2.47319 0
2.55254 2.15937 0
2.74889 2.15937 0
2.55254 2.47319 0
2.74889 2.47319 0
2.74889 1.84556 0
2.94524 1.84556 0
2.74889 2.15937 0
2.94524 2.15937 0
2.94524 1.84556 0
3.14159 1.84556 0
2.94524 2.15937 0
3.14159 2.15937 0
2.74889 2.15937 0
2.94524 2.15937 0
2.74889 2.47319 0
2.94524 2.47319 0
2.94524 2.15937 0
3.14159 2.15937 0
2.94524 2.47319 0
3.14159 2.47319 0
0 2.47319 0
0.19635 2.47319 0
0 2.78697 0
0.19635 2.78697 0
0.19635 2.47319 0
0.392699 2.47319 0
0.19635 2.78697 0
0.392699 2.78697 0
0 2.78697 0
0.19635 2.78697 0
0 3.10073 0
0.19635 3.10073 0
0.19635 2.78697 0
0.392699 2.78697 0
0.19635 3.10073 0
0.392699 3.10073 0
0.392699 2.47319 0
0.589049 2.47319 0
0.392699 2.78697 0
0.589049 2.78697 0
0.589049 2.47319 0
0.785398 2.47319 0
0.589049 2.78697 0
0.785398 2.78697 0
0.392699 2.78697 0
0.589049 2.78697 0
0.392699 3.10073 0
0.589049 3.10073 0
0.589049 2.78697 0
0.785398 2.78697 0
0.589049 3.10073 0
0.785398 3.10073 0
0 3.10073 0
0.19635 3.10073 0
0 3.41445 0
0.19635 3.41445 0
0.19635 3.10073 0
0.392699 3.10073 0
0.19635 3.41445 0
0.392699 3.41445 0
0 3.41445 0
0.19635 3.41445 0
0 3.72815 0
[...]
POINT_DATA 20480
VECTORS uf double
0 1 0
2.60736e-15 1 0
0 1.00001 0
1.66593e-15 1.00001 0
2.60736e-15 1 0
4.55848e-15 1 0
1.66593e-15 1.00001 0
-3.0975e-15 1.00001 0
0 1.00001 0
-2.47888e-15 1.00001 0
0 1.00001 0
-2.95381e-14 1.00001 0
-2.47888e-15 1.00001 0
-2.55776e-16 1.00001 0
-2.95381e-14 1.00001 0
4.08908e-15 1.00001 0
4.55848e-15 1 0
2.47329e-15 1 0
-3.0975e-15 1.00001 0
4.04199e-15 1.00001 0
2.47329e-15 1 0
8.16603e-15 1 0
4.04199e-15 1.00001 0
-6.82554e-15 1.00001 0
-2.55776e-16 1.00001 0
4.82934e-15 1.00001 0
4.08908e-15 1.00001 0
-1.55035e-14 1.00001 0
4.82934e-15 1.00001 0
6.71591e-15 1.00001 0
-1.55035e-14 1.00001 0
-9.75513e-15 1.00001 0
0 1.00001 0
6.62271e-14 1.00001 0
0 1.00001 0
4.31637e-14 1.00001 0
6.62271e-14 1.00001 0
2.42054e-14 1.00001 0
4.31637e-14 1.00001 0
1.8628e-15 1.00001 0
0 1.00001 0
-3.50433e-14 1.00001 0
0 1.00001 0
-4.05283e-14 1.00001 0
-3.50433e-14 1.00001 0
1.78776e-15 1.00001 0
-4.05283e-14 1.00001 0
2.22503e-15 1.00001 0
2.42054e-14 1.00001 0
1.2068e-14 1.00001 0
1.8628e-15 1.00001 0
-5.9467e-15 1.00001 0
1.2068e-14 1.00001 0
4.3185e-15 1.00001 0
-5.9467e-15 1.00001 0
2.85507e-15 1.00001 0
1.78776e-15 1.00001 0
4.5942e-14 1.00001 0
2.22503e-15 1.00001 0
3.18801e-14 1.00001 0
4.5942e-14 1.00001 0
1.17915e-14 1.00001 0
3.18801e-14 1.00001 0
1.0656e-15 1.00001 0
8.16603e-15 1 0
2.46727e-15 1 0
-6.82554e-15 1.00001 0
-4.16423e-15 1.00001 0
2.46727e-15 1 0
-8.14252e-15 1 0
-4.16423e-15 1.00001 0
2.18904e-14 1.00001 0
6.71591e-15 1.00001 0
7.02568e-15 1.00001 0
-9.75513e-15 1.00001 0
4.03978e-15 1.00001 0
7.02568e-15 1.00001 0
-8.03805e-15 1.00001 0
4.03978e-15 1.00001 0
1.21236e-14 1.00001 0
-8.14252e-15 1 0
2.21676e-15 1 0
2.18904e-14 1.00001 0
9.74392e-15 1.00001 0
2.21676e-15 1 0
-1.5138e-15 1 0
9.74392e-15 1.00001 0
1.69165e-15 1.00001 0
-8.03805e-15 1.00001 0
-1.43844e-14 1.00001 0
1.21236e-14 1.00001 0
1.26958e-14 1.00001 0
-1.43844e-14 1.00001 0
-4.40043e-15 1.00001 0
1.26958e-14 1.00001 0
2.04781e-14 1.00001 0
4.3185e-15 1.00001 0
4.00948e-14 1.00001 0
2.85507e-15 1.00001 0
5.64239e-14 1.00001 0
4.00948e-14 1.00001 0
-1.4891e-14 1.00001 0
5.64239e-14 1.00001 0
1.20214e-14 1.00001 0
1.17915e-14 1.00001 0
-2.83851e-14 1.00001 0
1.0656e-15 1.00001 0
3.25577e-15 1.00001 0
-2.83851e-14 1.00001 0
-8.43638e-15 1.00001 0
3.25577e-15 1.00001 0
1.87371e-14 1.00001 0
-1.4891e-14 1.00001 0
-2.46352e-15 1.00001 0
1.20214e-14 1.00001 0
-8.00866e-16 1.00001 0
-2.46352e-15 1.00001 0
-1.16213e-14 1.00001 0
-8.00866e-16 1.00001 0
1.72909e-15 1.00001 0
-8.43638e-15 1.00001 0
2.35843e-14 1.00001 0
1.87371e-14 1.00001 0
2.40944e-14 1.00001 0
2.35843e-14 1.00001 0
2.94701e-14 1.00001 0
2.40944e-14 1.00001 0
3.37383e-14 1.00001 0
0 1.00001 0
3.67356e-15 1.00001 0
0 1.00001 0
2.50112e-14 1.00001 0
3.67356e-15 1.00001 0
-1.08677e-15 1.00001 0
2.50112e-14 1.00001 0
-4.07912e-15 1.00001 0
0 1.00001 0
-4.14845e-14 1.00001 0
0 1.00001 0
-1.89289e-14 1.00001 0
-4.14845e-14 1.00001 0
1.10236e-14 1.00001 0
-1.89289e-14 1.00001 0
7.59648e-15 1.00001 0
-1.08677e-15 1.00001 0
-3.60398e-14 1.00001 0
-4.07912e-15 1.00001 0
-3.92455e-14 1.00001 0
-3.60398e-14 1.00001 0
1.02432e-14 1.00001 0
-3.92455e-14 1.00001 0
1.0942e-14 1.00001 0
1.10236e-14 1.00001 0
-9.58119e-15 1.00001 0
7.59648e-15 1.00001 0
2.04343e-14 1.00001 0
-9.58119e-15 1.00001 0
3.39437e-14 1.00001 0
2.04343e-14 1.00001 0
5.71923e-14 1.00001 0
0 1.00001 0
3.13042e-14 1.00001 0
0 1.00001 0
5.04958e-14 1.00001 0
3.13042e-14 1.00001 0
-6.37294e-15 1.00001 0
5.04958e-14 1.00001 0
-1.40874e-14 1.00001 0
0 1.00001 0
-3.09026e-14 1.00001 0
0 1.00001 0
-4.88073e-14 1.00001 0
-3.09026e-14 1.00001 0
1.75052e-14 1.00001 0
-4.88073e-14 1.00001 0
4.84384e-14 1.00001 0
-6.37294e-15 1.00001 0
1.83812e-14 1.00001 0
-1.40874e-14 1.00001 0
2.51381e-14 1.00001 0
1.83812e-14 1.00001 0
-3.67589e-14 1.00001 0
2.51381e-14 1.00001 0
-2.74526e-14 1.00001 0
1.75052e-14 1.00001 0
8.25694e-15 1.00001 0
4.84384e-14 1.00001 0
-4.78774e-15 1.00001 0
8.25694e-15 1.00001 0
1.29541e-14 1.00001 0
-4.78774e-15 1.00001 0
4.91535e-14 1.00001 0
1.02432e-14 1.00001 0
1.42116e-14 1.00001 0
1.0942e-14 1.00001 0
1.98868e-14 1.00001 0
1.42116e-14 1.00001 0
3.41958e-14 1.00001 0
1.98868e-14 1.00001 0
5.1728e-14 1.00001 0
3.39437e-14 1.00001 0
1.37902e-14 1.00001 0
5.71923e-14 1.00001 0
1.16835e-14 1.00001 0
1.37902e-14 1.00001 0
-4.2079e-14 1.00001 0
1.16835e-14 1.00001 0
-2.19595e-14 1.00001 0
3.41958e-14 1.00001 0
4.04601e-14 1.00001 0
5.1728e-14 1.00001 0
3.61922e-14 1.00001 0
4.04601e-14 1.00001 0
9.30783e-14 1.00001 0
3.61922e-14 1.00001 0
8.79907e-14 1.00001 0
-4.2079e-14 1.00001 0
3.21845e-14 1.00001 0
-2.19595e-14 1.00001 0
2.77635e-14 1.00001 0
3.21845e-14 1.00001 0
-4.53697e-14 1.00001 0
2.77635e-14 1.00001 0
-4.84677e-14 1.00001 0
-3.67589e-14 1.00001 0
-5.87565e-15 1.00001 0
-2.74526e-14 1.00001 0
-9.59803e-15 1.00001 0
-5.87565e-15 1.00001 0
6.54638e-14 1.00001 0
-9.59803e-15 1.00001 0
8.1302e-14 1.00001 0
1.29541e-14 1.00001 0
-1.00646e-14 1.00001 0
4.91535e-14 1.00001 0
1.34033e-14 1.00001 0
-1.00646e-14 1.00001 0
-2.76343e-14 1.00001 0
1.34033e-14 1.00001 0
-1.17385e-14 1.00001 0
6.54638e-14 1.00001 0
3.0202e-15 1.00001 0
8.1302e-14 1.00001 0
-3.38799e-15 1.00001 0
3.0202e-15 1.00001 0
2.6264e-14 1.00001 0
-3.38799e-15 1.00001 0
4.02891e-14 1.00001 0
-2.76343e-14 1.00001 0
1.97463e-16 1.00001 0
-1.17385e-14 1.00001 0
1.09371e-14 1.00001 0
1.97463e-16 1.00001 0
-3.01526e-14 1.00001 0
1.09371e-14 1.00001 0
6.50194e-15 1.00001 0
-1.5138e-15 1 0
6.47544e-15 1 0
1.69165e-15 1.00001 0
-9.93448e-15 1.00001 0
6.47544e-15 1 0
-9.80151e-15 1 0
-9.93448e-15 1.00001 0
1.89937e-14 1.00001 0
-4.40043e-15 1.00001 0
1.38111e-14 1.00001 0
2.04781e-14 1.00001 0
-5.23509e-15 1.00001 0
1.38111e-14 1.00001 0
-1.05615e-16 1.00001 0
-5.23509e-15 1.00001 0
-2.73088e-15 1.00001 0
-9.80151e-15 1 0
1.18318e-15 1 0
1.89937e-14 1.00001 0
1.07994e-14 1.00001 0
1.18318e-15 1 0
1.59971e-14 1 0
1.07994e-14 1.00001 0
-5.16331e-15 1.00001 0
-1.05615e-16 1.00001 0
-1.91994e-14 1.00001 0
-2.73088e-15 1.00001 0
1.67224e-14 1.00001 0
-1.91994e-14 1.00001 0
-1.3392e-14 1.00001 0
1.67224e-14 1.00001 0
8.73448e-15 1.00001 0
-1.16213e-14 1.00001 0
4.72397e-14 1.00001 0
1.72909e-15 1.00001 0
5.72394e-14 1.00001 0
4.72397e-14 1.00001 0
7.61543e-14 1.00001 0
5.72394e-14 1.00001 0
5.56248e-14 1.00001 0
2.94701e-14 1.00001 0
9.61601e-15 1.00001 0
3.37383e-14 1.00001 0
3.08617e-14 1.00001 0
9.61601e-15 1.00001 0
3.34245e-14 1.00001 0
3.08617e-14 1.00001 0
2.6732e-14 1.00001 0
7.61543e-14 1.00001 0
-8.11873e-15 1.00001 0
5.56248e-14 1.00001 0
9.69418e-15 1.00001 0
-8.11873e-15 1.00001 0
1.09841e-14 1.00001 0
9.69418e-15 1.00001 0
-1.47633e-14 1.00001 0
3.34245e-14 1.00001 0
-1.52749e-14 1.00001 0
2.6732e-14 1.00001 0
1.77847e-14 1.00001 0
-1.52749e-14 1.00001 0
6.36876e-15 1.00001 0
1.77847e-14 1.00001 0
-1.61649e-14 1.00001 0
1.59971e-14 1 0
3.63736e-17 1 0
-5.16331e-15 1.00001 0
1.30067e-14 1.00001 0
3.63736e-17 1 0
-2.09352e-16 1 0
1.30067e-14 1.00001 0
3.24568e-15 1.00001 0
-1.3392e-14 1.00001 0
1.53381e-15 1.00001 0
8.73448e-15 1.00001 0
-9.71454e-15 1.00001 0
1.53381e-15 1.00001 0
5.9688e-15 1.00001 0
-9.71454e-15 1.00001 0
2.76273e-15 1.00001 0
-2.09352e-16 1 0
4.01504e-15 1 0
3.24568e-15 1.00001 0
8.79035e-15 1.00001 0
4.01504e-15 1 0
4.68963e-15 1 0
8.79035e-15 1.00001 0
8.90581e-15 1.00001 0
5.9688e-15 1.00001 0
-7.07453e-15 1.00001 0
2.76273e-15 1.00001 0
-6.59495e-15 1.00001 0
-7.07453e-15 1.00001 0
-2.5885e-14 1.00001 0
-6.59495e-15 1.00001 0
2.52233e-14 1.00001 0
1.09841e-14 1.00001 0
1.06197e-14 1.00001 0
-1.47633e-14 1.00001 0
-1.38735e-14 1.00001 0
1.06197e-14 1.00001 0
-1.17324e-14 1.00001 0
-1.38735e-14 1.00001 0
6.64539e-15 1.00001 0
6.36876e-15 1.00001 0
3.68741e-15 1.00001 0
-1.61649e-14 1.00001 0
-1.50737e-15 1.00001 0
3.68741e-15 1.00001 0
6.04592e-14 1.00001 0
-1.50737e-15 1.00001 0
9.13988e-14 1.00001 0
-1.17324e-14 1.00001 0
5.66137e-15 1.00001 0
6.64539e-15 1.00001 0
-6.6799e-15 1.00001 0
5.66137e-15 1.00001 0
-2.37778e-14 1.00001 0
-6.6799e-15 1.00001 0
2.95511e-14 1.00001 0
6.04592e-14 1.00001 0
1.42248e-13 1.00001 0
9.13988e-14 1.00001 0
1.51073e-13 1.00001 0
1.42248e-13 1.00001 0
5.48256e-14 1.00001 0
1.51073e-13 1.00001 0
7.14686e-14 1.00001 0
9.30783e-14 1.00001 0
4.64644e-14 1.00001 0
8.79907e-14 1.00001 0
8.07031e-14 1.00001 0
4.64644e-14 1.00001 0
3.24602e-14 1.00001 0
8.07031e-14 1.00001 0
2.40805e-14 1.00001 0
-4.53697e-14 1.00001 0
-3.29049e-14 1.00001 0
-4.84677e-14 1.00001 0
-3.83913e-15 1.00001 0
-3.29049e-14 1.00001 0
1.22284e-14 1.00001 0
-3.83913e-15 1.00001 0
1.54215e-14 1.00001 0
3.24602e-14 1.00001 0
-1.81017e-14 1.00001 0
2.40805e-14 1.00001 0
1.49052e-14 1.00001 0
-1.81017e-14 1.00001 0
9.86444e-14 1.00001 0
1.49052e-14 1.00001 0
7.06641e-14 1.00001 0
1.22284e-14 1.00001 0
7.81327e-14 1.00001 0
1.54215e-14 1.00001 0
1.06856e-13 1.00001 0
7.81327e-14 1.00001 0
1.84266e-15 1.00001 0
1.06856e-13 1.00001 0
1.2225e-14 1.00001 0
2.6264e-14 1.00001 0
8.25084e-15 1.00001 0
4.02891e-14 1.00001 0
9.44616e-15 1.00001 0
8.25084e-15 1.00001 0
-1.00163e-14 1.00001 0
9.44616e-15 1.00001 0
8.86485e-15 1.00001 0
-3.01526e-14 1.00001 0
1.40563e-14 1.00001 0
6.50194e-15 1.00001 0
2.09031e-14 1.00001 0
1.40563e-14 1.00001 0
-3.61531e-14 1.00001 0
2.09031e-14 1.00001 0
1.65742e-15 1.00001 0
-1.00163e-14 1.00001 0
-1.8726e-14 1.00001 0
8.86485e-15 1.00001 0
2.16199e-14 1.00001 0
-1.8726e-14 1.00001 0
8.659e-14 1.00001 0
2.16199e-14 1.00001 0
7.61512e-14 1.00001 0
-3.61531e-14 1.00001 0
-4.63358e-15 1.00001 0
1.65742e-15 1.00001 0
2.07755e-14 1.00001 0
-4.63358e-15 1.00001 0
-2.15067e-14 1.00001 0
2.07755e-14 1.00001 0
-3.94248e-14 1.00001 0
9.86444e-14 1.00001 0
5.50131e-14 1.00001 0
7.06641e-14 1.00001 0
3.52516e-14 1.00001 0
5.50131e-14 1.00001 0
6.68629e-14 1.00001 0
3.52516e-14 1.00001 0
6.80337e-14 1.00001 0
1.84266e-15 1.00001 0
1.38807e-13 1.00001 0
1.2225e-14 1.00001 0
1.22528e-13 1.00001 0
1.38807e-13 1.00001 0
4.34099e-14 1.00001 0
1.22528e-13 1.00001 0
4.26448e-14 1.00001 0
6.68629e-14 1.00001 0
4.66196e-14 1.00001 0
6.80337e-14 1.00001 0
7.27316e-14 1.00001 0
4.66196e-14 1.00001 0
1.37376e-13 1.00001 0
7.27316e-14 1.00001 0
1.54251e-13 1.00001 0
4.34099e-14 1.00001 0
-1.38853e-14 1.00001 0
4.26448e-14 1.00001 0
-5.56882e-15 1.00001 0
-1.38853e-14 1.00001 0
1.99366e-14 1.00001 0
-5.56882e-15 1.00001 0
4.75858e-14 1.00001 0
8.659e-14 1.00001 0
-6.1275e-14 1.00001 0
7.61512e-14 1.00001 0
-4.80805e-14 1.00001 0
-6.1275e-14 1.00001 0
1.04582e-14 1.00001 0
-4.80805e-14 1.00001 0
-5.12192e-15 1.00001 0
-2.15067e-14 1.00001 0
5.64609e-14 1.00001 0
-3.94248e-14 1.00001 0
7.12622e-14 1.00001 0
5.64609e-14 1.00001 0
7.00746e-15 1.00001 0
7.12622e-14 1.00001 0
-3.97892e-15 1.00001 0
1.04582e-14 1.00001 0
3.34367e-14 1.00001 0
-5.12192e-15 1.00001 0
3.36487e-14 1.00001 0
3.34367e-14 1.00001 0
-5.35138e-14 1.00001 0
3.36487e-14 1.00001 0
-2.91193e-14 1.00001 0
7.00746e-15 1.00001 0
-2.04519e-14 1.00001 0
-3.97892e-15 1.00001 0
-2.02265e-14 1.00001 0
-2.04519e-14 1.00001 0
7.50082e-15 1.00001 0
-2.02265e-14 1.00001 0
4.38342e-14 1.00001 0
0 1.00001 0
2.54973e-14 1.00001 0
0 1.00001 0
1.97254e-14 1.00001 0
2.54973e-14 1.00001 0
-4.30783e-14 1.00001 0
1.97254e-14 1.00001 0
-6.45384e-15 1.00001 0
0 1.00001 0
3.50631e-14 1.00001 0
0 1.00001 0
2.40255e-14 1.00001 0
3.50631e-14 1.00001 0
-4.93138e-15 1.00001 0
2.40255e-14 1.00001 0
1.70729e-14 1.00001 0
-4.30783e-14 1.00001 0
4.06461e-15 1.00001 0
-6.45384e-15 1.00001 0
1.18813e-14 1.00001 0
4.06461e-15 1.00001 0
-3.02162e-14 1.00001 0
1.18813e-14 1.00001 0
1.39591e-14 1.00001 0
-4.93138e-15 1.00001 0
-3.82988e-14 1.00001 0
1.70729e-14 1.00001 0
-3.84046e-14 1.00001 0
-3.82988e-14 1.00001 0
-2.21666e-14 1.00001 0
-3.84046e-14 1.00001 0
-3.9692e-15 1.00001 0
0 1.00001 0
-9.83928e-14 1.00001 0
0 1.00001 0
-1.03886e-13 1.00001 0
-9.83928e-14 1.00001 0
-1.48081e-14 1.00001 0
-1.03886e-13 1.00001 0
-5.84164e-15 1.00001 0
0 1.00001 0
1.01137e-13 1.00001 0
0 1.00001 0
9.40006e-14 1.00001 0
1.01137e-13 1.00001 0
-2.31807e-16 1.00001 0
9.40006e-14 1.00001 0
7.68582e-15 1.00001 0
-1.48081e-14 1.00001 0
1.09544e-14 1.00001 0
-5.84164e-15 1.00001 0
1.63784e-14 1.00001 0
1.09544e-14 1.00001 0
-2.66121e-14 1.00001 0
1.63784e-14 1.00001 0
-3.50481e-14 1.00001 0
-2.31807e-16 1.00001 0
-3.30714e-16 1.00001 0
7.68582e-15 1.00001 0
2.15322e-15 1.00001 0
-3.30714e-16 1.00001 0
3.10254e-14 1.00001 0
2.15322e-15 1.00001 0
3.42018e-14 1.00001 0
-3.02162e-14 1.00001 0
-1.20343e-14 1.00001 0
1.39591e-14 1.00001 0
2.54316e-15 1.00001 0
-1.20343e-14 1.00001 0
-1.37707e-14 1.00001 0
2.54316e-15 1.00001 0
4.29844e-15 1.00001 0
-2.21666e-14 1.00001 0
9.05375e-15 1.00001 0
-3.9692e-15 1.00001 0
1.95058e-14 1.00001 0
9.05375e-15 1.00001 0
-1.30214e-14 1.00001 0
1.95058e-14 1.00001 0
1.23488e-15 1.00001 0
-1.37707e-14 1.00001 0
-2.10374e-14 1.00001 0
4.29844e-15 1.00001 0
-4.52912e-15 1.00001 0
-2.10374e-14 1.00001 0
5.81706e-15 1.00001 0
-4.52912e-15 1.00001 0
2.70961e-14 1.00001 0
-1.30214e-14 1.00001 0
-7.12618e-15 1.00001 0
1.23488e-15 1.00001 0
-3.27084e-15 1.00001 0
-7.12618e-15 1.00001 0
-1.98224e-14 1.00001 0
-3.27084e-15 1.00001 0
-2.33064e-14 1.00001 0
-2.66121e-14 1.00001 0
-1.44992e-14 1.00001 0
-3.50481e-14 1.00001 0
-2.08488e-14 1.00001 0
-1.44992e-14 1.00001 0
-3.67084e-15 1.00001 0
-2.08488e-14 1.00001 0
1.38487e-14 1.00001 0
3.10254e-14 1.00001 0
1.80728e-14 1.00001 0
3.42018e-14 1.00001 0
4.02059e-15 1.00001 0
1.80728e-14 1.00001 0
-1.01137e-14 1.00001 0
4.02059e-15 1.00001 0
-1.76974e-14 1.00001 0
-3.67084e-15 1.00001 0
5.11966e-15 1.00001 0
1.38487e-14 1.00001 0
3.51707e-15 1.00001 0
5.11966e-15 1.00001 0
1.55212e-14 1.00001 0
3.51707e-15 1.00001 0
6.06211e-15 1.00001 0
-1.01137e-14 1.00001 0
-2.17576e-14 1.00001 0
-1.76974e-14 1.00001 0
-7.57007e-15 1.00001 0
-2.17576e-14 1.00001 0
-1.64963e-14 1.00001 0
-7.57007e-15 1.00001 0
-1.26156e-14 1.00001 0
0 1.00001 0
-6.1598e-14 1.00001 0
0 1.00001 0
-5.15548e-14 1.00001 0
-6.1598e-14 1.00001 0
-1.80638e-14 1.00001 0
-5.15548e-14 1.00001 0
-1.57774e-14 1.00001 0
0 1.00001 0
5.5378e-14 1.00001 0
0 1.00001 0
4.34302e-14 1.00001 0
5.5378e-14 1.00001 0
-1.91441e-15 1.00001 0
4.34302e-14 1.00001 0
-8.29323e-15 1.00001 0
-1.80638e-14 1.00001 0
-1.54329e-14 1.00001 0
-1.57774e-14 1.00001 0
-1.11048e-14 1.00001 0
-1.54329e-14 1.00001 0
-1.13768e-14 1.00001 0
-1.11048e-14 1.00001 0
3.69015e-15 1.00001 0
-1.91441e-15 1.00001 0
6.87838e-15 1.00001 0
-8.29323e-15 1.00001 0
1.04481e-14 1.00001 0
6.87838e-15 1.00001 0
-1.25925e-16 1.00001 0
1.04481e-14 1.00001 0
1.23657e-14 1.00001 0
0 1.00001 0
-4.29107e-14 1.00001 0
0 1.00001 0
-3.93117e-14 1.00001 0
-4.29107e-14 1.00001 0
-1.45221e-15 1.00001 0
-3.93117e-14 1.00001 0
6.5598e-16 1.00001 0
0 1.00001 0
2.66642e-14 1.00001 0
0 1.00001 0
2.84079e-14 1.00001 0
2.66642e-14 1.00001 0
2.48861e-15 1.00001 0
2.84079e-14 1.00001 0
-1.29517e-14 1.00001 0
-1.45221e-15 1.00001 0
-3.44855e-14 1.00001 0
6.5598e-16 1.00001 0
-2.54217e-14 1.00001 0
-3.44855e-14 1.00001 0
-3.47783e-14 1.00001 0
-2.54217e-14 1.00001 0
-3.74081e-14 1.00001 0
2.48861e-15 1.00001 0
2.84613e-14 1.00001 0
-1.29517e-14 1.00001 0
3.72876e-14 1.00001 0
2.84613e-14 1.00001 0
7.73527e-15 1.00001 0
3.72876e-14 1.00001 0
2.20028e-15 1.00001 0
-1.13768e-14 1.00001 0
-1.00512e-13 1.00001 0
3.69015e-15 1.00001 0
-9.30116e-14 1.00001 0
-1.00512e-13 1.00001 0
1.35513e-14 1.00001 0
-9.30116e-14 1.00001 0
1.15771e-14 1.00001 0
-1.25925e-16 1.00001 0
6.36727e-14 1.00001 0
1.23657e-14 1.00001 0
7.39604e-14 1.00001 0
6.36727e-14 1.00001 0
3.59998e-15 1.00001 0
7.39604e-14 1.00001 0
1.92306e-14 1.00001 0
1.35513e-14 1.00001 0
9.8648e-15 1.00001 0
1.15771e-14 1.00001 0
2.24077e-14 1.00001 0
9.8648e-15 1.00001 0
-3.1969e-14 1.00001 0
2.24077e-14 1.00001 0
2.37759e-16 1.00001 0
3.59998e-15 1.00001 0
-1.34642e-14 1.00001 0
1.92306e-14 1.00001 0
-1.65494e-14 1.00001 0
-1.34642e-14 1.00001 0
-4.5515e-18 1.00001 0
-1.65494e-14 1.00001 0
1.85501e-14 1.00001 0
-3.47783e-14 1.00001 0
-1.05212e-14 1.00001 0
-3.74081e-14 1.00001 0
5.52978e-16 1.00001 0
-1.05212e-14 1.00001 0
-2.1035e-14 1.00001 0
5.52978e-16 1.00001 0
-5.66148e-15 1.00001 0
7.73527e-15 1.00001 0
-2.49959e-14 1.00001 0
2.20028e-15 1.00001 0
-3.22909e-14 1.00001 0
-2.49959e-14 1.00001 0
-1.29155e-14 1.00001 0
-3.22909e-14 1.00001 0
-8.34398e-15 1.00001 0
-2.1035e-14 1.00001 0
5.55658e-15 1.00001 0
-5.66148e-15 1.00001 0
3.58271e-15 1.00001 0
5.55658e-15 1.00001 0
1.35732e-14 1.00001 0
3.58271e-15 1.00001 0
1.38669e-14 1.00001 0
-1.29155e-14 1.00001 0
-1.27559e-14 1.00001 0
-8.34398e-15 1.00001 0
-5.52228e-15 1.00001 0
-1.27559e-14 1.00001 0
-1.70264e-14 1.00001 0
-5.52228e-15 1.00001 0
-1.46006e-14 1.00001 0
5.81706e-15 1.00001 0
-3.70454e-14 1.00001 0
2.70961e-14 1.00001 0
-2.6841e-14 1.00001 0
-3.70454e-14 1.00001 0
-3.07107e-15 1.00001 0
-2.6841e-14 1.00001 0
1.33013e-14 1.00001 0
-1.98224e-14 1.00001 0
4.41675e-15 1.00001 0
-2.33064e-14 1.00001 0
1.87975e-14 1.00001 0
4.41675e-15 1.00001 0
-1.19284e-14 1.00001 0
1.87975e-14 1.00001 0
7.65395e-15 1.00001 0
-3.07107e-15 1.00001 0
5.24683e-15 1.00001 0
1.33013e-14 1.00001 0
7.09324e-15 1.00001 0
5.24683e-15 1.00001 0
3.13031e-14 1.00001 0
7.09324e-15 1.00001 0
1.50925e-14 1.00001 0
-1.19284e-14 1.00001 0
3.32804e-14 1.00001 0
7.65395e-15 1.00001 0
1.49741e-14 1.00001 0
3.32804e-14 1.00001 0
-1.93297e-14 1.00001 0
1.49741e-14 1.00001 0
-7.95622e-15 1.00001 0
1.55212e-14 1.00001 0
-2.94001e-14 1.00001 0
6.06211e-15 1.00001 0
-2.18894e-14 1.00001 0
-2.94001e-14 1.00001 0
-2.08509e-14 1.00001 0
-2.18894e-14 1.00001 0
-2.28715e-14 1.00001 0
-1.64963e-14 1.00001 0
-1.10263e-14 1.00001 0
-1.26156e-14 1.00001 0
-7.60328e-16 1.00001 0
-1.10263e-14 1.00001 0
-1.1542e-14 1.00001 0
-7.60328e-16 1.00001 0
-5.76441e-16 1.00001 0
-2.08509e-14 1.00001 0
4.7553e-15 1.00001 0
-2.28715e-14 1.00001 0
1.14306e-14 1.00001 0
4.7553e-15 1.00001 0
-1.43724e-15 1.00001 0
1.14306e-14 1.00001 0
3.7519e-15 1.00001 0
-1.1542e-14 1.00001 0
-6.34099e-14 1.00001 0
-5.76441e-16 1.00001 0
-4.4936e-14 1.00001 0
-6.34099e-14 1.00001 0
-9.94065e-15 1.00001 0
-4.4936e-14 1.00001 0
-2.52001e-14 1.00001 0
3.13031e-14 1.00001 0
-1.17432e-14 1.00001 0
1.50925e-14 1.00001 0
1.18662e-14 1.00001 0
-1.17432e-14 1.00001 0
-1.58915e-14 1.00001 0
1.18662e-14 1.00001 0
-3.08777e-14 1.00001 0
-1.93297e-14 1.00001 0
-4.34773e-14 1.00001 0
-7.95622e-15 1.00001 0
-1.97573e-14 1.00001 0
-4.34773e-14 1.00001 0
2.20102e-14 1.00001 0
-1.97573e-14 1.00001 0
1.63542e-14 1.00001 0
-1.58915e-14 1.00001 0
-8.87305e-15 1.00001 0
-3.08777e-14 1.00001 0
-8.6471e-15 1.00001 0
-8.87305e-15 1.00001 0
-5.91926e-14 1.00001 0
-8.6471e-15 1.00001 0
-5.15935e-14 1.00001 0
2.20102e-14 1.00001 0
-1.90925e-14 1.00001 0
1.63542e-14 1.00001 0
-1.95429e-15 1.00001 0
-1.90925e-14 1.00001 0
8.90687e-15 1.00001 0
-1.95429e-15 1.00001 0
-2.64092e-15 1.00001 0
-1.43724e-15 1.00001 0
1.09845e-14 1.00001 0
3.7519e-15 1.00001 0
2.37836e-15 1.00001 0
1.09845e-14 1.00001 0
-2.563e-14 1.00001 0
2.37836e-15 1.00001 0
-2.62629e-14 1.00001 0
-9.94065e-15 1.00001 0
-1.94797e-14 1.00001 0
-2.52001e-14 1.00001 0
-1.37864e-14 1.00001 0
-1.94797e-14 1.00001 0
3.01268e-15 1.00001 0
-1.37864e-14 1.00001 0
3.27905e-15 1.00001 0
-2.563e-14 1.00001 0
-1.37573e-14 1.00001 0
-2.62629e-14 1.00001 0
-1.59657e-15 1.00001 0
-1.37573e-14 1.00001 0
1.69152e-14 1.00001 0
-1.59657e-15 1.00001 0
7.61312e-15 1.00001 0
3.01268e-15 1.00001 0
-3.03926e-15 1.00001 0
3.27905e-15 1.00001 0
1.65593e-14 1.00001 0
-3.03926e-15 1.00001 0
-1.22786e-14 1.00001 0
1.65593e-14 1.00001 0
-8.2194e-15 1.00001 0
-3.1969e-14 1.00001 0
-1.60856e-14 1.00001 0
2.37759e-16 1.00001 0
-6.37461e-15 1.00001 0
-1.60856e-14 1.00001 0
-1.76191e-15 1.00001 0
-6.37461e-15 1.00001 0
1.00089e-14 1.00001 0
-4.5515e-18 1.00001 0
1.37294e-14 1.00001 0
1.85501e-14 1.00001 0
2.82059e-14 1.00001 0
1.37294e-14 1.00001 0
-9.47906e-15 1.00001 0
2.82059e-14 1.00001 0
-8.37262e-15 1.00001 0
-1.76191e-15 1.00001 0
4.5654e-14 1.00001 0
1.00089e-14 1.00001 0
4.9166e-14 1.00001 0