# vtk DataFile Version 3.0
#This file was generated by the deal.II library on 2018/10/15 at 16:31:52
ASCII
DATASET UNSTRUCTURED_GRID

POINTS 20480 double
0 0 0
0.19635 0 0
0 0.297341 0
0.19635 0.297341 0
0.19635 0 0
0.392699 0 0
0.19635 0.297341 0
0.392699 0.297341 0
0 0.297341 0
0.19635 0.297341 0
0 0.610197 0
0.19635 0.610197 0
0.19635 0.297341 0
0.392699 0.297341 0
0.19635 0.610197 0
0.392699 0.610197 0
0.392699 0 0
0.589049 0 0
0.392699 0.297341 0
0.589049 0.297341 0
0.589049 0 0
0.785398 0 0
0.589049 0.297341 0
0.785398 0.297341 0
0.392699 0.297341 0
0.589049 0.297341 0
0.392699 0.610197 0
0.589049 0.610197 0
0.589049 0.297341 0
0.785398 0.297341 0
0.589049 0.610197 0
0.785398 0.610197 0
0 0.610197 0
0.19635 0.610197 0
0 0.922749 0
0.19635 0.922749 0
0.19635 0.610197 0
0.392699 0.610197 0
0.19635 0.922749 0
0.392699 0.922749 0
0 0.922749 0
0.19635 0.922749 0
0 1.23597 0
0.19635 1.23597 0
0.19635 0.922749 0
0.392699 0.922749 0
0.19635 1.23597 0
0.392699 1.23597 0
0.392699 0.610197 0
0.589049 0.610197 0
0.392699 0.922749 0
0.589049 0.922749 0
0.589049 0.610197 0
0.785398 0.610197 0
0.589049 0.922749 0
0.785398 0.922749 0
0.392699 0.922749 0
0.589049 0.922749 0
0.392699 1.23597 0
0.589049 1.23597 0
0.589049 0.922749 0
0.785398 0.922749 0
0.589049 1.23597 0
0.785398 1.23597 0
0.785398 0 0
0.981748 0 0
0.785398 0.297341 0
0.981748 0.297341 0
0.981748 0 0
1.1781 0 0
0.981748 0.297341 0
1.1781 0.297341 0
0.785398 0.297341 0
0.981748 0.297341 0
0.785398 0.610197 0
0.981748 0.610197 0
0.981748 0.297341 0
1.1781 0.297341 0
0.981748 0.610197 0
1.1781 0.610197 0
1.1781 0 0
1.37445 0 0
1.1781 0.297341 0
1.37445 0.297341 0
1.37445 0 0
1.5708 0 0
1.37445 0.297341 0
1.5708 0.297341 0
1.1781 0.297341 0
1.37445 0.297341 0
1.1781 0.610197 0
1.37445 0.610197 0
1.37445 0.297341 0
1.5708 0.297341 0
1.37445 0.610197 0
1.5708 0.610197 0
0.785398 0.610197 0
0.981748 0.610197 0
0.785398 0.922749 0
0.981748 0.922749 0
0.981748 0.610197 0
1.1781 0.610197 0
0.981748 0.922749 0
1.1781 0.922749 0
0.785398 0.922749 0
0.981748 0.922749 0
0.785398 1.23597 0
0.981748 1.23597 0
0.981748 0.922749 0
1.1781 0.922749 0
0.981748 1.23597 0
1.1781 1.23597 0
1.1781 0.610197 0
1.37445 0.610197 0
1.1781 0.922749 0
1.37445 0.922749 0
1.37445 0.610197 0
1.5708 0.610197 0
1.37445 0.922749 0
1.5708 0.922749 0
1.1781 0.922749 0
1.37445 0.922749 0
1.1781 1.23597 0
1.37445 1.23597 0
1.37445 0.922749 0
1.5708 0.922749 0
1.37445 1.23597 0
1.5708 1.23597 0
0 1.23597 0
0.19635 1.23597 0
0 1.54902 0
0.19635 1.54902 0
0.19635 1.23597 0
0.392699 1.23597 0
0.19635 1.54902 0
0.392699 1.54902 0
0 1.54902 0
0.19635 1.54902 0
0 1.86213 0
0.19635 1.86213 0
0.19635 1.54902 0
0.392699 1.54902 0
0.19635 1.86213 0
0.392699 1.86213 0
0.392699 1.23597 0
0.589049 1.23597 0
0.392699 1.54902 0
0.589049 1.54902 0
0.589049 1.23597 0
0.785398 1.23597 0
0.589049 1.54902 0
0.785398 1.54902 0
0.392699 1.54902 0
0.589049 1.54902 0
0.392699 1.86213 0
0.589049 1.86213 0
0.589049 1.54902 0
0.785398 1.54902 0
0.589049 1.86213 0
0.785398 1.86213 0
0 1.86213 0
0.19635 1.86213 0
0 2.1752 0
0.19635 2.1752 0
0.19635 1.86213 0
0.392699 1.86213 0
0.19635 2.1752 0
0.392699 2.1752 0
0 2.1752 0
0.19635 2.1752 0
0 2.48826 0
0.19635 2.48826 0
0.19635 2.1752 0
0.392699 2.1752 0
0.19635 2.48826 0
0.392699 2.48826 0
0.392699 1.86213 0
0.589049 1.86213 0
0.392699 2.1752 0
0.589049 2.1752 0
0.589049 1.86213 0
0.785398 1.86213 0
0.589049 2.1752 0
0.785398 2.1752 0
0.392699 2.1752 0
0.589049 2.1752 0
0.392699 2.48826 0
0.589049 2.48826 0
0.589049 2.1752 0
0.785398 2.1752 0
0.589049 2.48826 0
0.785398 2.48826 0
0.785398 1.23597 0
0.981748 1.23597 0
0.785398 1.54902 0
0.981748 1.54902 0
0.981748 1.23597 0
1.1781 1.23597 0
0.981748 1.54902 0
1.1781 1.54902 0
0.785398 1.54902 0
0.981748 1.54902 0
0.785398 1.86213 0
0.981748 1.86213 0
0.981748 1.54902 0
1.1781 1.54902 0
0.981748 1.86213 0
1.1781 1.86213 0
1.1781 1.23597 0
1.37445 1.23597 0
1.1781 1.54902 0
1.37445 1.54902 0
1.37445 1.23597 0
1.5708 1.23597 0
1.37445 1.54902 0
1.5708 1.54902 0
1.1781 1.54902 0
1.37445 1.54902 0
1.1781 1.86213 0
1.37445 1.86213 0
1.37445 1.54902 0
1.5708 1.54902 0
1.37445 1.86213 0
1.5708 1.86213 0
0.785398 1.86213 0
0.981748 1.86213 0
0.785398 2.1752 0
0.981748 2.1752 0
0.981748 1.86213 0
1.1781 1.86213 0
0.981748 2.1752 0
1.1781 2.1752 0
0.785398 2.1752 0
0.981748 2.1752 0
0.785398 2.48826 0
0.981748 2.48826 0
0.981748 2.1752 0
1.1781 2.1752 0
0.981748 2.48826 0
1.1781 2.48826 0
1.1781 1.86213 0
1.37445 1.86213 0
1.1781 2.1752 0
1.37445 2.1752 0
1.37445 1.86213 0
1.5708 1.86213 0
1.37445 2.1752 0
1.5708 2.1752 0
1.1781 2.1752 0
1.37445 2.1752 0
1.1781 2.48826 0
1.37445 2.48826 0
1.37445 2.1752 0
1.5708 2.1752 0
1.37445 2.48826 0
1.5708 2.48826 0
1.5708 0 0
1.76715 0 0
1.5708 0.297341 0
1.76715 0.297341 0
1.76715 0 0
1.9635 0 0
1.76715 0.297341 0
1.9635 0.297341 0
1.5708 0.297341 0
1.76715 0.297341 0
1.5708 0.610197 0
1.76715 0.610197 0
1.76715 0.297341 0
1.9635 0.297341 0
1.76715 0.610197 0
1.9635 0.610197 0
1.9635 0 0
2.15984 0 0
1.9635 0.297341 0
2.15984 0.297341 0
2.15984 0 0
2.35619 0 0
2.15984 0.297341 0
2.35619 0.297341 0
1.9635 0.297341 0
2.15984 0.297341 0
1.9635 0.610197 0
2.15984 0.610197 0
2.15984 0.297341 0
2.35619 0.297341 0
2.15984 0.610197 0
2.35619 0.610197 0
1.5708 0.610197 0
1.76715 0.610197 0
1.5708 0.922749 0
1.76715 0.922749 0
1.76715 0.610197 0
1.9635 0.610197 0
1.76715 0.922749 0
1.9635 0.922749 0
1.5708 0.922749 0
1.76715 0.922749 0
1.5708 1.23597 0
1.76715 1.23597 0
1.76715 0.922749 0
1.9635 0.922749 0
1.76715 1.23597 0
1.9635 1.23597 0
1.9635 0.610197 0
2.15984 0.610197 0
1.9635 0.922749 0
2.15984 0.922749 0
2.15984 0.610197 0
2.35619 0.610197 0
2.15984 0.922749 0
2.35619 0.922749 0
1.9635 0.922749 0
2.15984 0.922749 0
1.9635 1.23597 0
2.15984 1.23597 0
2.15984 0.922749 0
2.35619 0.922749 0
2.15984 1.23597 0
2.35619 1.23597 0
2.35619 0 0
2.55254 0 0
2.35619 0.297341 0
2.55254 0.297341 0
2.55254 0 0
2.74889 0 0
2.55254 0.297341 0
2.74889 0.297341 0
2.35619 0.297341 0
2.55254 0.297341 0
2.35619 0.610197 0
2.55254 0.610197 0
2.55254 0.297341 0
2.74889 0.297341 0
2.55254 0.610197 0
2.74889 0.610197 0
2.74889 0 0
2.94524 0 0
2.74889 0.297341 0
2.94524 0.297341 0
2.94524 0 0
3.14159 0 0
2.94524 0.297341 0
3.14159 0.297341 0
2.74889 0.297341 0
2.94524 0.297341 0
2.74889 0.610197 0
2.94524 0.610197 0
2.94524 0.297341 0
3.14159 0.297341 0
2.94524 0.610197 0
3.14159 0.610197 0
2.35619 0.610197 0
2.55254 0.610197 0
2.35619 0.922749 0
2.55254 0.922749 0
2.55254 0.610197 0
2.74889 0.610197 0
2.55254 0.922749 0
2.74889 0.922749 0
2.35619 0.922749 0
2.55254 0.922749 0
2.35619 1.23597 0
2.55254 1.23597 0
2.55254 0.922749 0
2.74889 0.922749 0
2.55254 1.23597 0
2.74889 1.23597 0
2.74889 0.610197 0
2.94524 0.610197 0
2.74889 0.922749 0
2.94524 0.922749 0
2.94524 0.610197 0
3.14159 0.610197 0
2.94524 0.922749 0
3.14159 0.922749 0
2.74889 0.922749 0
2.94524 0.922749 0
2.74889 1.23597 0
2.94524 1.23597 0
2.94524 0.922749 0
3.14159 0.922749 0
2.94524 1.23597 0
3.14159 1.23597 0
1.5708 1.23597 0
1.76715 1.23597 0
1.5708 1.54902 0
1.76715 1.54902 0
1.76715 1.23597 0
1.9635 1.23597 0
1.76715 1.54902 0
1.9635 1.54902 0
1.5708 1.54902 0
1.76715 1.54902 0
1.5708 1.86213 0
1.76715 1.86213 0
1.76715 1.54902 0
1.9635 1.54902 0
1.76715 1.86213 0
1.9635 1.86213 0
1.9635 1.23597 0
2.15984 1.23597 0
1.9635 1.54902 0
2.15984 1.54902 0
2.15984 1.23597 0
2.35619 1.23597 0
2.15984 1.54902 0
2.35619 1.54902 0
1.9635 1.54902 0
2.15984 1.54902 0
1.9635 1.86213 0
2.15984 1.86213 0
2.15984 1.54902 0
2.35619 1.54902 0
2.15984 1.86213 0
2.35619 1.86213 0
1.5708 1.86213 0
1.76715 1.86213 0
1.5708 2.1752 0
1.76715 2.1752 0
1.76715 1.86213 0
1.9635 1.86213 0
1.76715 2.1752 0
1.9635 2.1752 0
1.5708 2.1752 0
1.76715 2.1752 0
1.5708 2.48826 0
1.76715 2.48826 0
1.76715 2.1752 0
1.9635 2.1752 0
1.76715 2.48826 0
1.9635 2.48826 0
1.9635 1.86213 0
2.15984 1.86213 0
1.9635 2.1752 0
2.15984 2.1752 0
2.15984 1.86213 0
2.35619 1.86213 0
2.15984 2.1752 0
2.35619 2.1752 0
1.9635 2.1752 0
2.15984 2.1752 0
1.9635 2.48826 0
2.15984 2.48826 0
2.15984 2.1752 0
2.35619 2.1752 0
2.15984 2.48826 0
2.35619 2.48826 0
2.35619 1.23597 0
2.55254 1.23597 0
2.35619 1.54902 0
2.55254 1.54902 0
2.55254 1.23597 0
2.74889 1.23597 0
2.55254 1.54902 0
2.74889 1.54902 0
2.35619 1.54902 0
2.55254 1.54902 0
2.35619 1.86213 0
2.55254 1.86213 0
2.55254 1.54902 0
2.74889 1.54902 0
2.55254 1.86213 0
2.74889 1.86213 0
2.74889 1.23597 0
2.94524 1.23597 0
2.74889 1.54902 0
2.94524 1.54902 0
2.94524 1.23597 0
3.14159 1.23597 0
2.94524 1.54902 0
3.14159 1.54902 0
2.74889 1.54902 0
2.94524 1.54902 0
2.74889 1.86213 0
2.94524 1.86213 0
2.94524 1.54902 0
3.14159 1.54902 0
2.94524 1.86213 0
3.14159 1.86213 0
2.35619 1.86213 0
2.55254 1.86213 0
2.35619 2.1752 0
2.55254 2.1752 0
2.55254 1.86213 0
2.74889 1.86213 0
2.55254 2.1752 0
2.74889 2.1752 0
2.35619 2.1752 0
2.55254 2.1752 0
2.35619 2.48826 0
2.55254 2.48826 0
2.55254 2.1752 0
2.74889 2.1752 0
2.55254 2.48826 0
2.74889 2.48826 0
2.74889 1.86213 0
2.94524 1.86213 0
2.74889 2.1752 0
2.94524 2.1752 0
2.94524 1.86213 0
3.14159 1.86213 0
2.94524 2.1752 0
3.14159 2.1752 0
2.74889 2.1752 0
2.94524 2.1752 0
2.74889 2.48826 0
2.94524 2.48826 0
2.94524 2.1752 0
3.14159 2.1752 0
2.94524 2.48826 0
3.14159 2.48826 0
0 2.48826 0
0.19635 2.48826 0
0 2.80132 0
0.19635 2.80132 0
0.19635 2.48826 0
0.392699 2.48826 0
0.19635 2.80132 0
0.392699 2.80132 0
0 2.80132 0
0.19635 2.80132 0
0 3.11436 0
0.19635 3.11436 0
0.19635 2.80132 0
0.392699 2.80132 0
0.19635 3.11436 0
0.392699 3.11436 0
0.392699 2.48826 0
0.589049 2.48826 0
0.392699 2.80132 0
0.589049 2.80132 0
0.589049 2.48826 0
0.785398 2.48826 0
0.589049 2.80132 0
0.785398 2.80132 0
0.392699 2.80132 0
0.589049 2.80132 0
0.392699 3.11436 0
0.589049 3.11436 0
0.589049 2.80132 0
0.785398 2.80132 0
0.589049 3.11436 0
0.785398 3.11436 0
0 3.11436 0
0.19635 3.11436 0
0 3.42739 0
0.19635 3.42739 0
0.19635 3.11436 0
0.392699 3.11436 0
0.19635 3.42739 0
0.392699 3.42739 0
0 3.42739 0
0.19635 3.42739 0
0 3.74041 0
[...]
POINT_DATA 20480
VECTORS uf double
0 1 0
6.10386e-16 1 0
0 1.00001 0
4.40926e-15 1.00001 0
6.10386e-16 1 0
4.15513e-15 1 0
4.40926e-15 1.00001 0
-7.33354e-15 1.00001 0
0 1.00001 0
-3.19361e-15 1.00001 0
0 1.00001 0
-1.10418e-14 1.00001 0
-3.19361e-15 1.00001 0
8.83089e-15 1.00001 0
-1.10418e-14 1.00001 0
2.87159e-15 1.00001 0
4.15513e-15 1 0
4.50893e-15 1 0
-7.33354e-15 1.00001 0
2.26107e-15 1.00001 0
4.50893e-15 1 0
7.58911e-15 1 0
2.26107e-15 1.00001 0
-8.05071e-15 1.00001 0
8.83089e-15 1.00001 0
-5.99212e-15 1.00001 0
2.87159e-15 1.00001 0
2.97959e-15 1.00001 0
-5.99212e-15 1.00001 0
8.35668e-15 1.00001 0
2.97959e-15 1.00001 0
-4.10064e-15 1.00001 0
0 1.00001 0
2.02908e-14 1.00001 0
0 1.00001 0
6.50242e-15 1.00001 0
2.02908e-14 1.00001 0
-2.86278e-15 1.00001 0
6.50242e-15 1.00001 0
-7.73923e-15 1.00001 0
0 1.00001 0
1.87624e-15 1.00001 0
0 1.00001 0
-1.08701e-14 1.00001 0
1.87624e-15 1.00001 0
-6.50672e-15 1.00001 0
-1.08701e-14 1.00001 0
7.42525e-15 1.00001 0
-2.86278e-15 1.00001 0
3.64283e-15 1.00001 0
-7.73923e-15 1.00001 0
-3.97255e-15 1.00001 0
3.64283e-15 1.00001 0
6.8892e-15 1.00001 0
-3.97255e-15 1.00001 0
-6.40043e-15 1.00001 0
-6.50672e-15 1.00001 0
2.09465e-15 1.00001 0
7.42525e-15 1.00001 0
1.02607e-15 1.00001 0
2.09465e-15 1.00001 0
6.50398e-15 1.00001 0
1.02607e-15 1.00001 0
-4.14287e-15 1.00001 0
7.58911e-15 1 0
9.00533e-15 1 0
-8.05071e-15 1.00001 0
-1.4642e-14 1.00001 0
9.00533e-15 1 0
-6.30713e-15 1 0
-1.4642e-14 1.00001 0
2.26617e-14 1.00001 0
8.35668e-15 1.00001 0
2.57617e-15 1.00001 0
-4.10064e-15 1.00001 0
8.75951e-15 1.00001 0
2.57617e-15 1.00001 0
-3.55843e-15 1.00001 0
8.75951e-15 1.00001 0
-3.1456e-15 1.00001 0
-6.30713e-15 1 0
-6.61651e-15 1 0
2.26617e-14 1.00001 0
1.1374e-14 1.00001 0
-6.61651e-15 1 0
-8.58413e-16 1 0
1.1374e-14 1.00001 0
-2.86244e-15 1.00001 0
-3.55843e-15 1.00001 0
-3.31867e-15 1.00001 0
-3.1456e-15 1.00001 0
8.45951e-15 1.00001 0
-3.31867e-15 1.00001 0
8.60551e-15 1.00001 0
8.45951e-15 1.00001 0
1.01811e-14 1.00001 0
6.8892e-15 1.00001 0
3.84712e-15 1.00001 0
-6.40043e-15 1.00001 0
2.2178e-15 1.00001 0
3.84712e-15 1.00001 0
-1.11502e-15 1.00001 0
2.2178e-15 1.00001 0
3.65425e-15 1.00001 0
6.50398e-15 1.00001 0
-1.12415e-14 1.00001 0
-4.14287e-15 1.00001 0
6.42501e-15 1.00001 0
-1.12415e-14 1.00001 0
-7.89888e-15 1.00001 0
6.42501e-15 1.00001 0
8.25837e-15 1.00001 0
-1.11502e-15 1.00001 0
-5.69253e-15 1.00001 0
3.65425e-15 1.00001 0
7.14189e-15 1.00001 0
-5.69253e-15 1.00001 0
-1.90369e-14 1.00001 0
7.14189e-15 1.00001 0
2.16555e-14 1.00001 0
-7.89888e-15 1.00001 0
-1.81726e-15 1.00001 0
8.25837e-15 1.00001 0
-4.74317e-15 1.00001 0
-1.81726e-15 1.00001 0
-2.24082e-16 1.00001 0
-4.74317e-15 1.00001 0
-1.11259e-14 1.00001 0
0 1.00001 0
-1.64833e-14 1.00001 0
0 1.00001 0
1.98515e-14 1.00001 0
-1.64833e-14 1.00001 0
4.17238e-15 1.00001 0
1.98515e-14 1.00001 0
3.89988e-15 1.00001 0
0 1.00001 0
-1.83493e-14 1.00001 0
0 1.00001 0
-1.93036e-14 1.00001 0
-1.83493e-14 1.00001 0
-8.60055e-15 1.00001 0
-1.93036e-14 1.00001 0
1.15227e-14 1.00001 0
4.17238e-15 1.00001 0
-4.01435e-15 1.00001 0
3.89988e-15 1.00001 0
-1.02144e-14 1.00001 0
-4.01435e-15 1.00001 0
-1.07796e-14 1.00001 0
-1.02144e-14 1.00001 0
3.74238e-15 1.00001 0
-8.60055e-15 1.00001 0
1.01301e-15 1.00001 0
1.15227e-14 1.00001 0
5.13601e-15 1.00001 0
1.01301e-15 1.00001 0
-3.19862e-15 1.00001 0
5.13601e-15 1.00001 0
9.32919e-15 1.00001 0
0 1.00001 0
9.91745e-15 1.00001 0
0 1.00001 0
2.99606e-14 1.00001 0
9.91745e-15 1.00001 0
-1.18627e-14 1.00001 0
2.99606e-14 1.00001 0
-2.72359e-15 1.00001 0
0 1.00001 0
-2.19405e-14 1.00001 0
0 1.00001 0
-9.79349e-15 1.00001 0
-2.19405e-14 1.00001 0
2.24493e-15 1.00001 0
-9.79349e-15 1.00001 0
1.47418e-14 1.00001 0
-1.18627e-14 1.00001 0
5.21565e-15 1.00001 0
-2.72359e-15 1.00001 0
-1.06837e-14 1.00001 0
5.21565e-15 1.00001 0
-1.18843e-14 1.00001 0
-1.06837e-14 1.00001 0
6.19125e-15 1.00001 0
2.24493e-15 1.00001 0
5.1111e-15 1.00001 0
1.47418e-14 1.00001 0
5.80864e-15 1.00001 0
5.1111e-15 1.00001 0
-6.67558e-15 1.00001 0
5.80864e-15 1.00001 0
1.04947e-14 1.00001 0
-1.07796e-14 1.00001 0
-6.61308e-15 1.00001 0
3.74238e-15 1.00001 0
1.08051e-14 1.00001 0
-6.61308e-15 1.00001 0
-4.05609e-15 1.00001 0
1.08051e-14 1.00001 0
4.19728e-15 1.00001 0
-3.19862e-15 1.00001 0
-1.5807e-14 1.00001 0
9.32919e-15 1.00001 0
2.15389e-14 1.00001 0
-1.5807e-14 1.00001 0
-6.48984e-15 1.00001 0
2.15389e-14 1.00001 0
-8.28902e-16 1.00001 0
-4.05609e-15 1.00001 0
1.00785e-14 1.00001 0
4.19728e-15 1.00001 0
-8.39456e-15 1.00001 0
1.00785e-14 1.00001 0
-6.99666e-16 1.00001 0
-8.39456e-15 1.00001 0
6.78913e-15 1.00001 0
-6.48984e-15 1.00001 0
1.23197e-14 1.00001 0
-8.28902e-16 1.00001 0
-8.24032e-15 1.00001 0
1.23197e-14 1.00001 0
-1.29168e-15 1.00001 0
-8.24032e-15 1.00001 0
4.47966e-15 1.00001 0
-1.18843e-14 1.00001 0
-3.79539e-15 1.00001 0
6.19125e-15 1.00001 0
-7.71132e-15 1.00001 0
-3.79539e-15 1.00001 0
4.13221e-15 1.00001 0
-7.71132e-15 1.00001 0
4.23126e-15 1.00001 0
-6.67558e-15 1.00001 0
-3.81463e-15 1.00001 0
1.04947e-14 1.00001 0
-8.08372e-15 1.00001 0
-3.81463e-15 1.00001 0
-2.35543e-14 1.00001 0
-8.08372e-15 1.00001 0
1.77801e-14 1.00001 0
4.13221e-15 1.00001 0
3.24605e-15 1.00001 0
4.23126e-15 1.00001 0
9.08801e-16 1.00001 0
3.24605e-15 1.00001 0
-1.03402e-14 1.00001 0
9.08801e-16 1.00001 0
1.31737e-14 1.00001 0
-2.35543e-14 1.00001 0
-1.17312e-14 1.00001 0
1.77801e-14 1.00001 0
1.10876e-14 1.00001 0
-1.17312e-14 1.00001 0
-1.26893e-14 1.00001 0
1.10876e-14 1.00001 0
1.00124e-14 1.00001 0
-8.58413e-16 1 0
-5.6156e-15 1 0
-2.86244e-15 1.00001 0
1.49573e-14 1.00001 0
-5.6156e-15 1 0
-6.63801e-15 1 0
1.49573e-14 1.00001 0
8.23073e-15 1.00001 0
8.60551e-15 1.00001 0
-7.73445e-16 1.00001 0
1.01811e-14 1.00001 0
-3.59112e-16 1.00001 0
-7.73445e-16 1.00001 0
3.95682e-15 1.00001 0
-3.59112e-16 1.00001 0
8.47122e-15 1.00001 0
-6.63801e-15 1 0
1.29082e-15 1 0
8.23073e-15 1.00001 0
8.3959e-15 1.00001 0
1.29082e-15 1 0
1.71553e-14 1 0
8.3959e-15 1.00001 0
-1.24805e-14 1.00001 0
3.95682e-15 1.00001 0
-5.88874e-15 1.00001 0
8.47122e-15 1.00001 0
2.7161e-15 1.00001 0
-5.88874e-15 1.00001 0
7.39932e-16 1.00001 0
2.7161e-15 1.00001 0
1.23813e-14 1.00001 0
-1.90369e-14 1.00001 0
-4.60759e-15 1.00001 0
2.16555e-14 1.00001 0
9.27229e-15 1.00001 0
-4.60759e-15 1.00001 0
-1.81631e-15 1.00001 0
9.27229e-15 1.00001 0
-2.74478e-16 1.00001 0
-2.24082e-16 1.00001 0
-1.04024e-14 1.00001 0
-1.11259e-14 1.00001 0
1.36662e-14 1.00001 0
-1.04024e-14 1.00001 0
-6.40262e-15 1.00001 0
1.36662e-14 1.00001 0
2.50203e-15 1.00001 0
-1.81631e-15 1.00001 0
7.22017e-15 1.00001 0
-2.74478e-16 1.00001 0
1.9454e-15 1.00001 0
7.22017e-15 1.00001 0
-1.80949e-15 1.00001 0
1.9454e-15 1.00001 0
-7.85886e-15 1.00001 0
-6.40262e-15 1.00001 0
-1.22868e-14 1.00001 0
2.50203e-15 1.00001 0
9.91267e-15 1.00001 0
-1.22868e-14 1.00001 0
1.38495e-14 1.00001 0
9.91267e-15 1.00001 0
-2.00188e-14 1.00001 0
1.71553e-14 1 0
9.37494e-15 1 0
-1.24805e-14 1.00001 0
1.25731e-14 1.00001 0
9.37494e-15 1 0
-9.74557e-15 1 0
1.25731e-14 1.00001 0
2.76584e-14 1.00001 0
7.39932e-16 1.00001 0
-1.26419e-14 1.00001 0
1.23813e-14 1.00001 0
1.21738e-14 1.00001 0
-1.26419e-14 1.00001 0
2.81005e-15 1.00001 0
1.21738e-14 1.00001 0
8.04685e-16 1.00001 0
-9.74557e-15 1 0
6.52854e-15 1 0
2.76584e-14 1.00001 0
9.19589e-15 1.00001 0
6.52854e-15 1 0
7.39092e-15 1 0
9.19589e-15 1.00001 0
1.06148e-14 1.00001 0
2.81005e-15 1.00001 0
-1.63217e-15 1.00001 0
8.04685e-16 1.00001 0
2.74485e-15 1.00001 0
-1.63217e-15 1.00001 0
-2.14244e-14 1.00001 0
2.74485e-15 1.00001 0
2.632e-14 1.00001 0
-1.80949e-15 1.00001 0
1.89409e-15 1.00001 0
-7.85886e-15 1.00001 0
-7.81374e-15 1.00001 0
1.89409e-15 1.00001 0
-5.81981e-15 1.00001 0
-7.81374e-15 1.00001 0
6.39009e-16 1.00001 0
1.38495e-14 1.00001 0
-2.67254e-15 1.00001 0
-2.00188e-14 1.00001 0
5.5528e-16 1.00001 0
-2.67254e-15 1.00001 0
2.36416e-16 1.00001 0
5.5528e-16 1.00001 0
2.24986e-15 1.00001 0
-5.81981e-15 1.00001 0
-9.86839e-15 1.00001 0
6.39009e-16 1.00001 0
1.33627e-14 1.00001 0
-9.86839e-15 1.00001 0
-1.89696e-14 1.00001 0
1.33627e-14 1.00001 0
1.60618e-14 1.00001 0
2.36416e-16 1.00001 0
-1.0571e-14 1.00001 0
2.24986e-15 1.00001 0
9.80212e-15 1.00001 0
-1.0571e-14 1.00001 0
-2.83513e-15 1.00001 0
9.80212e-15 1.00001 0
-6.3276e-15 1.00001 0
-6.99666e-16 1.00001 0
-1.64805e-14 1.00001 0
6.78913e-15 1.00001 0
4.41701e-15 1.00001 0
-1.64805e-14 1.00001 0
3.48161e-15 1.00001 0
4.41701e-15 1.00001 0
8.76283e-15 1.00001 0
-1.29168e-15 1.00001 0
1.64583e-15 1.00001 0
4.47966e-15 1.00001 0
9.48129e-15 1.00001 0
1.64583e-15 1.00001 0
-1.69331e-14 1.00001 0
9.48129e-15 1.00001 0
7.89646e-15 1.00001 0
3.48161e-15 1.00001 0
-3.72645e-15 1.00001 0
8.76283e-15 1.00001 0
8.90589e-15 1.00001 0
-3.72645e-15 1.00001 0
1.61569e-14 1.00001 0
8.90589e-15 1.00001 0
-1.63936e-15 1.00001 0
-1.69331e-14 1.00001 0
-7.63266e-15 1.00001 0
7.89646e-15 1.00001 0
3.1795e-15 1.00001 0
-7.63266e-15 1.00001 0
-1.2593e-14 1.00001 0
3.1795e-15 1.00001 0
7.76029e-15 1.00001 0
-1.03402e-14 1.00001 0
-2.13747e-15 1.00001 0
1.31737e-14 1.00001 0
-2.00872e-15 1.00001 0
-2.13747e-15 1.00001 0
-2.48442e-15 1.00001 0
-2.00872e-15 1.00001 0
1.06988e-14 1.00001 0
-1.26893e-14 1.00001 0
-8.31627e-15 1.00001 0
1.00124e-14 1.00001 0
3.40616e-15 1.00001 0
-8.31627e-15 1.00001 0
-1.61119e-14 1.00001 0
3.40616e-15 1.00001 0
1.90492e-14 1.00001 0
-2.48442e-15 1.00001 0
-1.39355e-14 1.00001 0
1.06988e-14 1.00001 0
1.3854e-14 1.00001 0
-1.39355e-14 1.00001 0
1.67786e-15 1.00001 0
1.3854e-14 1.00001 0
6.72722e-15 1.00001 0
-1.61119e-14 1.00001 0
-4.231e-15 1.00001 0
1.90492e-14 1.00001 0
1.03931e-14 1.00001 0
-4.231e-15 1.00001 0
-1.29756e-14 1.00001 0
1.03931e-14 1.00001 0
9.07881e-15 1.00001 0
1.61569e-14 1.00001 0
1.25252e-15 1.00001 0
-1.63936e-15 1.00001 0
-5.58904e-15 1.00001 0
1.25252e-15 1.00001 0
4.43104e-15 1.00001 0
-5.58904e-15 1.00001 0
-1.03468e-14 1.00001 0
-1.2593e-14 1.00001 0
9.75596e-15 1.00001 0
7.76029e-15 1.00001 0
-1.27085e-14 1.00001 0
9.75596e-15 1.00001 0
-4.91755e-15 1.00001 0
-1.27085e-14 1.00001 0
6.26064e-15 1.00001 0
4.43104e-15 1.00001 0
-1.29059e-14 1.00001 0
-1.03468e-14 1.00001 0
1.6397e-14 1.00001 0
-1.29059e-14 1.00001 0
4.00074e-15 1.00001 0
1.6397e-14 1.00001 0
2.26577e-15 1.00001 0
-4.91755e-15 1.00001 0
-1.94254e-14 1.00001 0
6.26064e-15 1.00001 0
1.46481e-14 1.00001 0
-1.94254e-14 1.00001 0
-2.76348e-15 1.00001 0
1.46481e-14 1.00001 0
2.63016e-15 1.00001 0
1.67786e-15 1.00001 0
9.32592e-15 1.00001 0
6.72722e-15 1.00001 0
-1.3242e-14 1.00001 0
9.32592e-15 1.00001 0
5.64268e-15 1.00001 0
-1.3242e-14 1.00001 0
-5.76618e-15 1.00001 0
-1.29756e-14 1.00001 0
7.74482e-15 1.00001 0
9.07881e-15 1.00001 0
3.08582e-15 1.00001 0
7.74482e-15 1.00001 0
-7.95905e-15 1.00001 0
3.08582e-15 1.00001 0
3.75281e-15 1.00001 0
5.64268e-15 1.00001 0
-1.85789e-14 1.00001 0
-5.76618e-15 1.00001 0
2.29524e-14 1.00001 0
-1.85789e-14 1.00001 0
-1.55141e-14 1.00001 0
2.29524e-14 1.00001 0
1.39053e-14 1.00001 0
-7.95905e-15 1.00001 0
-6.55196e-15 1.00001 0
3.75281e-15 1.00001 0
8.4456e-16 1.00001 0
-6.55196e-15 1.00001 0
1.63142e-15 1.00001 0
8.4456e-16 1.00001 0
-7.47683e-16 1.00001 0
0 1.00001 0
2.29829e-15 1.00001 0
0 1.00001 0
3.27077e-14 1.00001 0
2.29829e-15 1.00001 0
-1.71285e-14 1.00001 0
3.27077e-14 1.00001 0
-2.38251e-14 1.00001 0
0 1.00001 0
-1.18651e-14 1.00001 0
0 1.00001 0
1.61664e-14 1.00001 0
-1.18651e-14 1.00001 0
-2.36751e-16 1.00001 0
1.61664e-14 1.00001 0
3.89717e-15 1.00001 0
-1.71285e-14 1.00001 0
-1.39353e-14 1.00001 0
-2.38251e-14 1.00001 0
3.34414e-15 1.00001 0
-1.39353e-14 1.00001 0
-1.0606e-14 1.00001 0
3.34414e-15 1.00001 0
2.35927e-15 1.00001 0
-2.36751e-16 1.00001 0
-5.13713e-15 1.00001 0
3.89717e-15 1.00001 0
-3.30185e-15 1.00001 0
-5.13713e-15 1.00001 0
2.08361e-15 1.00001 0
-3.30185e-15 1.00001 0
5.15526e-15 1.00001 0
0 1.00001 0
-3.84908e-14 1.00001 0
0 1.00001 0
-2.7795e-14 1.00001 0
-3.84908e-14 1.00001 0
1.10728e-14 1.00001 0
-2.7795e-14 1.00001 0
1.80627e-14 1.00001 0
0 1.00001 0
2.54317e-14 1.00001 0
0 1.00001 0
3.83068e-14 1.00001 0
2.54317e-14 1.00001 0
-6.73264e-15 1.00001 0
3.83068e-14 1.00001 0
-4.05295e-15 1.00001 0
1.10728e-14 1.00001 0
6.23712e-15 1.00001 0
1.80627e-14 1.00001 0
2.32749e-15 1.00001 0
6.23712e-15 1.00001 0
-3.18942e-14 1.00001 0
2.32749e-15 1.00001 0
-2.49171e-14 1.00001 0
-6.73264e-15 1.00001 0
-1.4851e-15 1.00001 0
-4.05295e-15 1.00001 0
-6.3152e-15 1.00001 0
-1.4851e-15 1.00001 0
2.13597e-14 1.00001 0
-6.3152e-15 1.00001 0
2.6993e-14 1.00001 0
-1.0606e-14 1.00001 0
-5.46264e-15 1.00001 0
2.35927e-15 1.00001 0
9.48733e-15 1.00001 0
-5.46264e-15 1.00001 0
-2.8861e-15 1.00001 0
9.48733e-15 1.00001 0
6.43636e-16 1.00001 0
2.08361e-15 1.00001 0
-1.24304e-14 1.00001 0
5.15526e-15 1.00001 0
1.01879e-14 1.00001 0
-1.24304e-14 1.00001 0
9.19003e-16 1.00001 0
1.01879e-14 1.00001 0
9.00315e-15 1.00001 0
-2.8861e-15 1.00001 0
-1.35501e-14 1.00001 0
6.43636e-16 1.00001 0
1.14713e-14 1.00001 0
-1.35501e-14 1.00001 0
-1.27088e-14 1.00001 0
1.14713e-14 1.00001 0
3.62883e-16 1.00001 0
9.19003e-16 1.00001 0
4.96901e-16 1.00001 0
9.00315e-15 1.00001 0
-5.87153e-15 1.00001 0
4.96901e-16 1.00001 0
5.21927e-15 1.00001 0
-5.87153e-15 1.00001 0
8.0925e-16 1.00001 0
-3.18942e-14 1.00001 0
1.33547e-15 1.00001 0
-2.49171e-14 1.00001 0
1.93156e-15 1.00001 0
1.33547e-15 1.00001 0
-1.16189e-14 1.00001 0
1.93156e-15 1.00001 0
1.46666e-14 1.00001 0
2.13597e-14 1.00001 0
-4.68586e-15 1.00001 0
2.6993e-14 1.00001 0
4.72442e-15 1.00001 0
-4.68586e-15 1.00001 0
-8.34048e-15 1.00001 0
4.72442e-15 1.00001 0
9.49339e-16 1.00001 0
-1.16189e-14 1.00001 0
4.22796e-15 1.00001 0
1.46666e-14 1.00001 0
1.78978e-15 1.00001 0
4.22796e-15 1.00001 0
-2.29428e-15 1.00001 0
1.78978e-15 1.00001 0
6.87405e-15 1.00001 0
-8.34048e-15 1.00001 0
-6.03144e-15 1.00001 0
9.49339e-16 1.00001 0
-3.01412e-16 1.00001 0
-6.03144e-15 1.00001 0
-9.63457e-15 1.00001 0
-3.01412e-16 1.00001 0
1.78765e-15 1.00001 0
0 1.00001 0
-2.25959e-14 1.00001 0
0 1.00001 0
-9.22312e-15 1.00001 0
-2.25959e-14 1.00001 0
-3.53534e-15 1.00001 0
-9.22312e-15 1.00001 0
4.38146e-15 1.00001 0
0 1.00001 0
1.67725e-14 1.00001 0
0 1 0
1.34156e-14 1 0
1.67725e-14 1.00001 0
-1.59498e-14 1.00001 0
1.34156e-14 1 0
-1.48892e-14 1 0
-3.53534e-15 1.00001 0
-2.86417e-15 1.00001 0
4.38146e-15 1.00001 0
-3.36499e-15 1.00001 0
-2.86417e-15 1.00001 0
-1.20267e-14 1.00001 0
-3.36499e-15 1.00001 0
5.50625e-15 1.00001 0
-1.59498e-14 1.00001 0
1.01632e-14 1.00001 0
-1.48892e-14 1 0
6.0115e-15 1 0
1.01632e-14 1.00001 0
-1.95539e-15 1.00001 0
6.0115e-15 1 0
1.01948e-14 1 0
0 1 0
-1.51617e-14 1 0
0 1 0
-2.21737e-14 1 0
-1.51617e-14 1 0
5.70681e-15 1 0
-2.21737e-14 1 0
7.02544e-15 1 0
0 1 0
6.24144e-15 1 0
0 1 0
5.02555e-15 1 0
6.24144e-15 1 0
4.29578e-16 1 0
5.02555e-15 1 0
-6.68684e-16 1 0
5.70681e-15 1 0
-1.52666e-14 1 0
7.02544e-15 1 0
-7.21509e-15 1 0
-1.52666e-14 1 0
3.70737e-16 1 0
-7.21509e-15 1 0
-1.31156e-14 1 0
4.29578e-16 1 0
-3.01706e-15 1 0
-6.68684e-16 1 0
1.63314e-14 1 0
-3.01706e-15 1 0
-3.50938e-15 1 0
1.63314e-14 1 0
-5.13214e-15 1 0
-1.20267e-14 1.00001 0
-5.1958e-14 1.00001 0
5.50625e-15 1.00001 0
-1.90292e-14 1.00001 0
-5.1958e-14 1.00001 0
-1.18544e-14 1.00001 0
-1.90292e-14 1.00001 0
1.17515e-14 1.00001 0
-1.95539e-15 1.00001 0
2.15557e-14 1.00001 0
1.01948e-14 1 0
3.10893e-14 1 0
2.15557e-14 1.00001 0
-4.78725e-15 1.00001 0
3.10893e-14 1 0
5.78154e-15 1 0
-1.18544e-14 1.00001 0
-8.31061e-15 1.00001 0
1.17515e-14 1.00001 0
1.43677e-14 1.00001 0
-8.31061e-15 1.00001 0
-7.7772e-15 1.00001 0
1.43677e-14 1.00001 0
2.94582e-15 1.00001 0
-4.78725e-15 1.00001 0
-8.10607e-15 1.00001 0
5.78154e-15 1 0
-5.509e-15 1 0
-8.10607e-15 1.00001 0
-2.50926e-15 1.00001 0
-5.509e-15 1 0
1.09021e-14 1 0
3.70737e-16 1 0
-6.32824e-15 1 0
-1.31156e-14 1 0
1.569e-15 1 0
-6.32824e-15 1 0
-1.61646e-14 1 0
1.569e-15 1 0
9.38403e-15 1 0
-3.50938e-15 1 0
-4.30457e-15 1 0
-5.13214e-15 1 0
-8.88196e-16 1 0
-4.30457e-15 1 0
-2.08578e-15 1 0
-8.88196e-16 1 0
1.08514e-15 1 0
-1.61646e-14 1 0
7.0605e-15 1 0
9.38403e-15 1 0
-1.46309e-15 1 0
7.0605e-15 1 0
-7.59595e-15 1 0
-1.46309e-15 1 0
6.2921e-15 1 0
-2.08578e-15 1 0
-5.38539e-15 1 0
1.08514e-15 1 0
-2.44122e-15 1 0
-5.38539e-15 1 0
-1.1353e-14 1 0
-2.44122e-15 1 0
8.07602e-15 1 0
-1.27088e-14 1.00001 0
5.76635e-15 1.00001 0
3.62883e-16 1.00001 0
2.1686e-15 1.00001 0
5.76635e-15 1.00001 0
-1.96392e-14 1.00001 0
2.1686e-15 1.00001 0
1.4301e-14 1.00001 0
5.21927e-15 1.00001 0
-1.15315e-14 1.00001 0
8.0925e-16 1.00001 0
8.0928e-15 1.00001 0
-1.15315e-14 1.00001 0
-1.13106e-14 1.00001 0
8.0928e-15 1.00001 0
6.10694e-15 1.00001 0
-1.96392e-14 1.00001 0
-1.36558e-14 1.00001 0
1.4301e-14 1.00001 0
3.20763e-15 1.00001 0
-1.36558e-14 1.00001 0
-1.48285e-14 1.00001 0
3.20763e-15 1.00001 0
3.8533e-15 1.00001 0
-1.13106e-14 1.00001 0
1.10371e-15 1.00001 0
6.10694e-15 1.00001 0
2.10932e-15 1.00001 0
1.10371e-15 1.00001 0
3.3724e-15 1.00001 0
2.10932e-15 1.00001 0
3.52223e-15 1.00001 0
-2.29428e-15 1.00001 0
-5.68263e-15 1.00001 0
6.87405e-15 1.00001 0
2.98946e-15 1.00001 0
-5.68263e-15 1.00001 0
4.35612e-16 1.00001 0
2.98946e-15 1.00001 0
-7.9528e-15 1.00001 0
-9.63457e-15 1.00001 0
-4.65931e-15 1.00001 0
1.78765e-15 1.00001 0
5.72009e-15 1.00001 0
-4.65931e-15 1.00001 0
4.65555e-15 1.00001 0
5.72009e-15 1.00001 0
-1.44258e-15 1.00001 0
4.35612e-16 1.00001 0
-1.15581e-14 1.00001 0
-7.9528e-15 1.00001 0
1.4681e-14 1.00001 0
-1.15581e-14 1.00001 0
-2.49889e-16 1.00001 0
1.4681e-14 1.00001 0
7.95097e-16 1.00001 0
4.65555e-15 1.00001 0
-1.06987e-14 1.00001 0
-1.44258e-15 1.00001 0
1.17043e-14 1.00001 0
-1.06987e-14 1.00001 0
1.28246e-14 1.00001 0
1.17043e-14 1.00001 0
-1.51207e-14 1.00001 0
-1.48285e-14 1.00001 0
-1.00762e-14 1.00001 0
3.8533e-15 1.00001 0
6.12809e-15 1.00001 0
-1.00762e-14 1.00001 0
-2.05916e-15 1.00001 0
6.12809e-15 1.00001 0
1.20076e-15 1.00001 0
3.3724e-15 1.00001 0
-3.61384e-16 1.00001 0
3.52223e-15 1.00001 0
1.21338e-14 1.00001 0
-3.61384e-16 1.00001 0
8.42593e-15 1.00001 0
1.21338e-14 1.00001 0
-2.67231e-15 1.00001 0
-2.05916e-15 1.00001 0
2.06046e-16 1.00001 0
1.20076e-15 1.00001 0
-3.1402e-15 1.00001 0
2.06046e-16 1.00001 0
-5.51113e-15 1.00001 0
-3.1402e-15 1.00001 0
8.98571e-15 1.00001 0
8.42593e-15 1.00001 0
4.82919e-16 1.00001 0
-2.67231e-15 1.00001 0
5.29639e-15 1.00001 0
4.82919e-16 1.00001 0
-5.57425e-16 1.00001 0
5.29639e-15 1.00001 0
7.51364e-15 1.00001 0
-2.49889e-16 1.00001 0
-3.65075e-16 1.00001 0
7.95097e-16 1.00001 0
-4.46999e-15 1.00001 0
-3.65075e-16 1.00001 0
3.98231e-16 1.00001 0
-4.46999e-15 1.00001 0
3.93866e-15 1.00001 0
1.28246e-14 1.00001 0
-1.52162e-15 1.00001 0
-1.51207e-14 1.00001 0
-1.41873e-15 1.00001 0
-1.52162e-15 1.00001 0
4.13215e-16 1.00001 0
-1.41873e-15 1.00001 0
-4.2098e-15 1.00001 0
3.98231e-16 1.00001 0
-6.31685e-15 1.00001 0
3.93866e-15 1.00001 0
5.49882e-15 1.00001 0
-6.31685e-15 1.00001 0
-7.56217e-15 1.00001 0
5.49882e-15 1.00001 0
1.60849e-15 1.00001 0
4.13215e-16 1.00001 0
-8.47658e-15 1.00001 0
-4.2098e-15 1.00001 0
1.25693e-14 1.00001 0
-8.47658e-15 1.00001 0
-5.38633e-15 1.00001 0
1.25693e-14 1.00001 0
1.30394e-14 1.00001 0
-7.7772e-15 1.00001 0
-5.02057e-15 1.00001 0
2.94582e-15 1.00001 0
6.66775e-15 1.00001 0
-5.02057e-15 1.00001 0
-5.71164e-15 1.00001 0
6.66775e-15 1.00001 0
4.22002e-15 1.00001 0
-2.50926e-15 1.00001 0
-1.15841e-14 1.00001 0
1.09021e-14 1 0
1.37722e-14 1 0
-1.15841e-14 1.00001 0
-7.87602e-15 1.00001 0
1.37722e-14 1 0
7.93135e-15 1 0
-5.71164e-15 1.00001 0
-1.47581e-14 1.00001 0
4.22002e-15 1.00001 0
1.24529e-14 1.00001 0
-1.47581e-14 1.00001 0
-7.96076e-15 1.00001 0
1.24529e-14 1.00001 0
1.25759e-14 1.00001 0
-7.87602e-15 1.00001 0
-2.52767e-15 1.00001 0
7.93135e-15 1 0
2.51889e-15 1 0
-2.52767e-15 1.00001 0
-3.56229e-15 1.00001 0
2.51889e-15 1 0
-2.463e-15 1 0
-7.59595e-15 1 0
-1.62597e-14 1 0
6.2921e-15 1 0
-4.06375e-15 1 0
-1.62597e-14 1 0
-6.6911e-15 1 0
-4.06375e-15 1 0
2.59364e-16 1 0
-1.1353e-14 1 0
2.90554e-15 1 0
8.07602e-15 1 0
1.17208e-15 1 0
2.90554e-15 1 0
-3.8071e-15 1 0
1.17208e-15 1 0
7.52707e-16 1 0