# vtk DataFile Version 3.0
#This file was generated by the deal.II library on 2018/10/15 at 2:16:13
ASCII
DATASET UNSTRUCTURED_GRID

POINTS 20480 double
0 0 0
0.19635 0 0
0 0.310338 0
0.19635 0.310338 0
0.19635 0 0
0.392699 0 0
0.19635 0.310338 0
0.392699 0.310338 0
0 0.310338 0
0.19635 0.310338 0
0 0.622942 0
0.19635 0.622942 0
0.19635 0.310338 0
0.392699 0.310338 0
0.19635 0.622942 0
0.392699 0.622942 0
0.392699 0 0
0.589049 0 0
0.392699 0.310338 0
0.589049 0.310338 0
0.589049 0 0
0.785398 0 0
0.589049 0.310338 0
0.785398 0.310338 0
0.392699 0.310338 0
0.589049 0.310338 0
0.392699 0.622942 0
0.589049 0.622942 0
0.589049 0.310338 0
0.785398 0.310338 0
0.589049 0.622942 0
0.785398 0.622942 0
0 0.622942 0
0.19635 0.622942 0
0 0.935459 0
0.19635 0.935459 0
0.19635 0.622942 0
0.392699 0.622942 0
0.19635 0.935459 0
0.392699 0.935459 0
0 0.935459 0
0.19635 0.935459 0
0 1.24805 0
0.19635 1.24805 0
0.19635 0.935459 0
0.392699 0.935459 0
0.19635 1.24805 0
0.392699 1.24805 0
0.392699 0.622942 0
0.589049 0.622942 0
0.392699 0.935459 0
0.589049 0.935459 0
0.589049 0.622942 0
0.785398 0.622942 0
0.589049 0.935459 0
0.785398 0.935459 0
0.392699 0.935459 0
0.589049 0.935459 0
0.392699 1.24805 0
0.589049 1.24805 0
0.589049 0.935459 0
0.785398 0.935459 0
0.589049 1.24805 0
0.785398 1.24805 0
0.785398 0 0
0.981748 0 0
0.785398 0.310338 0
0.981748 0.310338 0
0.981748 0 0
1.1781 0 0
0.981748 0.310338 0
1.1781 0.310338 0
0.785398 0.310338 0
0.981748 0.310338 0
0.785398 0.622942 0
0.981748 0.622942 0
0.981748 0.310338 0
1.1781 0.310338 0
0.981748 0.622942 0
1.1781 0.622942 0
1.1781 0 0
1.37445 0 0
1.1781 0.310338 0
1.37445 0.310338 0
1.37445 0 0
1.5708 0 0
1.37445 0.310338 0
1.5708 0.310338 0
1.1781 0.310338 0
1.37445 0.310338 0
1.1781 0.622942 0
1.37445 0.622942 0
1.37445 0.310338 0
1.5708 0.310338 0
1.37445 0.622942 0
1.5708 0.622942 0
0.785398 0.622942 0
0.981748 0.622942 0
0.785398 0.935459 0
0.981748 0.935459 0
0.981748 0.622942 0
1.1781 0.622942 0
0.981748 0.935459 0
1.1781 0.935459 0
0.785398 0.935459 0
0.981748 0.935459 0
0.785398 1.24805 0
0.981748 1.24805 0
0.981748 0.935459 0
1.1781 0.935459 0
0.981748 1.24805 0
1.1781 1.24805 0
1.1781 0.622942 0
1.37445 0.622942 0
1.1781 0.935459 0
1.37445 0.935459 0
1.37445 0.622942 0
1.5708 0.622942 0
1.37445 0.935459 0
1.5708 0.935459 0
1.1781 0.935459 0
1.37445 0.935459 0
1.1781 1.24805 0
1.37445 1.24805 0
1.37445 0.935459 0
1.5708 0.935459 0
1.37445 1.24805 0
1.5708 1.24805 0
0 1.24805 0
0.19635 1.24805 0
0 1.56063 0
0.19635 1.56063 0
0.19635 1.24805 0
0.392699 1.24805 0
0.19635 1.56063 0
0.392699 1.56063 0
0 1.56063 0
0.19635 1.56063 0
0 1.87321 0
0.19635 1.87321 0
0.19635 1.56063 0
0.392699 1.56063 0
0.19635 1.87321 0
0.392699 1.87321 0
0.392699 1.24805 0
0.589049 1.24805 0
0.392699 1.56063 0
0.589049 1.56063 0
0.589049 1.24805 0
0.785398 1.24805 0
0.589049 1.56063 0
0.785398 1.56063 0
0.392699 1.56063 0
0.589049 1.56063 0
0.392699 1.87321 0
0.589049 1.87321 0
0.589049 1.56063 0
0.785398 1.56063 0
0.589049 1.87321 0
0.785398 1.87321 0
0 1.87321 0
0.19635 1.87321 0
0 2.18578 0
0.19635 2.18578 0
0.19635 1.87321 0
0.392699 1.87321 0
0.19635 2.18578 0
0.392699 2.18578 0
0 2.18578 0
0.19635 2.18578 0
0 2.49836 0
0.19635 2.49836 0
0.19635 2.18578 0
0.392699 2.18578 0
0.19635 2.49836 0
0.392699 2.49836 0
0.392699 1.87321 0
0.589049 1.87321 0
0.392699 2.18578 0
0.589049 2.18578 0
0.589049 1.87321 0
0.785398 1.87321 0
0.589049 2.18578 0
0.785398 2.18578 0
0.392699 2.18578 0
0.589049 2.18578 0
0.392699 2.49836 0
0.589049 2.49836 0
0.589049 2.18578 0
0.785398 2.18578 0
0.589049 2.49836 0
0.785398 2.49836 0
0.785398 1.24805 0
0.981748 1.24805 0
0.785398 1.56063 0
0.981748 1.56063 0
0.981748 1.24805 0
1.1781 1.24805 0
0.981748 1.56063 0
1.1781 1.56063 0
0.785398 1.56063 0
0.981748 1.56063 0
0.785398 1.87321 0
0.981748 1.87321 0
0.981748 1.56063 0
1.1781 1.56063 0
0.981748 1.87321 0
1.1781 1.87321 0
1.1781 1.24805 0
1.37445 1.24805 0
1.1781 1.56063 0
1.37445 1.56063 0
1.37445 1.24805 0
1.5708 1.24805 0
1.37445 1.56063 0
1.5708 1.56063 0
1.1781 1.56063 0
1.37445 1.56063 0
1.1781 1.87321 0
1.37445 1.87321 0
1.37445 1.56063 0
1.5708 1.56063 0
1.37445 1.87321 0
1.5708 1.87321 0
0.785398 1.87321 0
0.981748 1.87321 0
0.785398 2.18578 0
0.981748 2.18578 0
0.981748 1.87321 0
1.1781 1.87321 0
0.981748 2.18578 0
1.1781 2.18578 0
0.785398 2.18578 0
0.981748 2.18578 0
0.785398 2.49836 0
0.981748 2.49836 0
0.981748 2.18578 0
1.1781 2.18578 0
0.981748 2.49836 0
1.1781 2.49836 0
1.1781 1.87321 0
1.37445 1.87321 0
1.1781 2.18578 0
1.37445 2.18578 0
1.37445 1.87321 0
1.5708 1.87321 0
1.37445 2.18578 0
1.5708 2.18578 0
1.1781 2.18578 0
1.37445 2.18578 0
1.1781 2.49836 0
1.37445 2.49836 0
1.37445 2.18578 0
1.5708 2.18578 0
1.37445 2.49836 0
1.5708 2.49836 0
1.5708 0 0
1.76715 0 0
1.5708 0.310338 0
1.76715 0.310338 0
1.76715 0 0
1.9635 0 0
1.76715 0.310338 0
1.9635 0.310338 0
1.5708 0.310338 0
1.76715 0.310338 0
1.5708 0.622942 0
1.76715 0.622942 0
1.76715 0.310338 0
1.9635 0.310338 0
1.76715 0.622942 0
1.9635 0.622942 0
1.9635 0 0
2.15984 0 0
1.9635 0.310338 0
2.15984 0.310338 0
2.15984 0 0
2.35619 0 0
2.15984 0.310338 0
2.35619 0.310338 0
1.9635 0.310338 0
2.15984 0.310338 0
1.9635 0.622942 0
2.15984 0.622942 0
2.15984 0.310338 0
2.35619 0.310338 0
2.15984 0.622942 0
2.35619 0.622942 0
1.5708 0.622942 0
1.76715 0.622942 0
1.5708 0.935459 0
1.76715 0.935459 0
1.76715 0.622942 0
1.9635 0.622942 0
1.76715 0.935459 0
1.9635 0.935459 0
1.5708 0.935459 0
1.76715 0.935459 0
1.5708 1.24805 0
1.76715 1.24805 0
1.76715 0.935459 0
1.9635 0.935459 0
1.76715 1.24805 0
1.9635 1.24805 0
1.9635 0.622942 0
2.15984 0.622942 0
1.9635 0.935459 0
2.15984 0.935459 0
2.15984 0.622942 0
2.35619 0.622942 0
2.15984 0.935459 0
2.35619 0.935459 0
1.9635 0.935459 0
2.15984 0.935459 0
1.9635 1.24805 0
2.15984 1.24805 0
2.15984 0.935459 0
2.35619 0.935459 0
2.15984 1.24805 0
2.35619 1.24805 0
2.35619 0 0
2.55254 0 0
2.35619 0.310338 0
2.55254 0.310338 0
2.55254 0 0
2.74889 0 0
2.55254 0.310338 0
2.74889 0.310338 0
2.35619 0.310338 0
2.55254 0.310338 0
2.35619 0.622942 0
2.55254 0.622942 0
2.55254 0.310338 0
2.74889 0.310338 0
2.55254 0.622942 0
2.74889 0.622942 0
2.74889 0 0
2.94524 0 0
2.74889 0.310338 0
2.94524 0.310338 0
2.94524 0 0
3.14159 0 0
2.94524 0.310338 0
3.14159 0.310338 0
2.74889 0.310338 0
2.94524 0.310338 0
2.74889 0.622942 0
2.94524 0.622942 0
2.94524 0.310338 0
3.14159 0.310338 0
2.94524 0.622942 0
3.14159 0.622942 0
2.35619 0.622942 0
2.55254 0.622942 0
2.35619 0.935459 0
2.55254 0.935459 0
2.55254 0.622942 0
2.74889 0.622942 0
2.55254 0.935459 0
2.74889 0.935459 0
2.35619 0.935459 0
2.55254 0.935459 0
2.35619 1.24805 0
2.55254 1.24805 0
2.55254 0.935459 0
2.74889 0.935459 0
2.55254 1.24805 0
2.74889 1.24805 0
2.74889 0.622942 0
2.94524 0.622942 0
2.74889 0.935459 0
2.94524 0.935459 0
2.94524 0.622942 0
3.14159 0.622942 0
2.94524 0.935459 0
3.14159 0.935459 0
2.74889 0.935459 0
2.94524 0.935459 0
2.74889 1.24805 0
2.94524 1.24805 0
2.94524 0.935459 0
3.14159 0.935459 0
2.94524 1.24805 0
3.14159 1.24805 0
1.5708 1.24805 0
1.76715 1.24805 0
1.5708 1.56063 0
1.76715 1.56063 0
1.76715 1.24805 0
1.9635 1.24805 0
1.76715 1.56063 0
1.9635 1.56063 0
1.5708 1.56063 0
1.76715 1.56063 0
1.5708 1.87321 0
1.76715 1.87321 0
1.76715 1.56063 0
1.9635 1.56063 0
1.76715 1.87321 0
1.9635 1.87321 0
1.9635 1.24805 0
2.15984 1.24805 0
1.9635 1.56063 0
2.15984 1.56063 0
2.15984 1.24805 0
2.35619 1.24805 0
2.15984 1.56063 0
2.35619 1.56063 0
1.9635 1.56063 0
2.15984 1.56063 0
1.9635 1.87321 0
2.15984 1.87321 0
2.15984 1.56063 0
2.35619 1.56063 0
2.15984 1.87321 0
2.35619 1.87321 0
1.5708 1.87321 0
1.76715 1.87321 0
1.5708 2.18578 0
1.76715 2.18578 0
1.76715 1.87321 0
1.9635 1.87321 0
1.76715 2.18578 0
1.9635 2.18578 0
1.5708 2.18578 0
1.76715 2.18578 0
1.5708 2.49836 0
1.76715 2.49836 0
1.76715 2.18578 0
1.9635 2.18578 0
1.76715 2.49836 0
1.9635 2.49836 0
1.9635 1.87321 0
2.15984 1.87321 0
1.9635 2.18578 0
2.15984 2.18578 0
2.15984 1.87321 0
2.35619 1.87321 0
2.15984 2.18578 0
2.35619 2.18578 0
1.9635 2.18578 0
2.15984 2.18578 0
1.9635 2.49836 0
2.15984 2.49836 0
2.15984 2.18578 0
2.35619 2.18578 0
2.15984 2.49836 0
2.35619 2.49836 0
2.35619 1.24805 0
2.55254 1.24805 0
2.35619 1.56063 0
2.55254 1.56063 0
2.55254 1.24805 0
2.74889 1.24805 0
2.55254 1.56063 0
2.74889 1.56063 0
2.35619 1.56063 0
2.55254 1.56063 0
2.35619 1.87321 0
2.55254 1.87321 0
2.55254 1.56063 0
2.74889 1.56063 0
2.55254 1.87321 0
2.74889 1.87321 0
2.74889 1.24805 0
2.94524 1.24805 0
2.74889 1.56063 0
2.94524 1.56063 0
2.94524 1.24805 0
3.14159 1.24805 0
2.94524 1.56063 0
3.14159 1.56063 0
2.74889 1.56063 0
2.94524 1.56063 0
2.74889 1.87321 0
2.94524 1.87321 0
2.94524 1.56063 0
3.14159 1.56063 0
2.94524 1.87321 0
3.14159 1.87321 0
2.35619 1.87321 0
2.55254 1.87321 0
2.35619 2.18578 0
2.55254 2.18578 0
2.55254 1.87321 0
2.74889 1.87321 0
2.55254 2.18578 0
2.74889 2.18578 0
2.35619 2.18578 0
2.55254 2.18578 0
2.35619 2.49836 0
2.55254 2.49836 0
2.55254 2.18578 0
2.74889 2.18578 0
2.55254 2.49836 0
2.74889 2.49836 0
2.74889 1.87321 0
2.94524 1.87321 0
2.74889 2.18578 0
2.94524 2.18578 0
2.94524 1.87321 0
3.14159 1.87321 0
2.94524 2.18578 0
3.14159 2.18578 0
2.74889 2.18578 0
2.94524 2.18578 0
2.74889 2.49836 0
2.94524 2.49836 0
2.94524 2.18578 0
3.14159 2.18578 0
2.94524 2.49836 0
3.14159 2.49836 0
0 2.49836 0
0.19635 2.49836 0
0 2.81093 0
0.19635 2.81093 0
0.19635 2.49836 0
0.392699 2.49836 0
0.19635 2.81093 0
0.392699 2.81093 0
0 2.81093 0
0.19635 2.81093 0
0 3.12351 0
0.19635 3.12351 0
0.19635 2.81093 0
0.392699 2.81093 0
0.19635 3.12351 0
0.392699 3.12351 0
0.392699 2.49836 0
0.589049 2.49836 0
0.392699 2.81093 0
0.589049 2.81093 0
0.589049 2.49836 0
0.785398 2.49836 0
0.589049 2.81093 0
0.785398 2.81093 0
0.392699 2.81093 0
0.589049 2.81093 0
0.392699 3.12351 0
0.589049 3.12351 0
0.589049 2.81093 0
0.785398 2.81093 0
0.589049 3.12351 0
0.785398 3.12351 0
0 3.12351 0
0.19635 3.12351 0
0 3.43608 0
0.19635 3.43608 0
0.19635 3.12351 0
0.392699 3.12351 0
0.19635 3.43608 0
[...]
POINT_DATA 20480
VECTORS uf double
0 1 0
-2.2198e-14 1 0
0 1.00001 0
2.78566e-14 1.00001 0
-2.2198e-14 1 0
-1.60235e-14 1 0
2.78566e-14 1.00001 0
1.14774e-14 1.00001 0
0 1.00001 0
-1.28947e-14 1.00001 0
0 1.00001 0
3.00507e-15 1.00001 0
-1.28947e-14 1.00001 0
9.52391e-16 1.00001 0
3.00507e-15 1.00001 0
-4.6035e-15 1.00001 0
-1.60235e-14 1 0
-1.65365e-14 1 0
1.14774e-14 1.00001 0
2.44442e-14 1.00001 0
-1.65365e-14 1 0
-1.52214e-14 1 0
2.44442e-14 1.00001 0
2.47916e-14 1.00001 0
9.52391e-16 1.00001 0
-2.80868e-14 1.00001 0
-4.6035e-15 1.00001 0
1.99039e-14 1.00001 0
-2.80868e-14 1.00001 0
-2.84815e-14 1.00001 0
1.99039e-14 1.00001 0
2.21944e-14 1.00001 0
0 1.00001 0
-1.85163e-15 1.00001 0
0 1.00001 0
1.2477e-14 1.00001 0
-1.85163e-15 1.00001 0
-1.98857e-15 1.00001 0
1.2477e-14 1.00001 0
2.19745e-14 1.00001 0
0 1.00001 0
-1.81243e-14 1.00001 0
0 1.00001 0
2.14128e-14 1.00001 0
-1.81243e-14 1.00001 0
-5.78945e-14 1.00001 0
2.14128e-14 1.00001 0
5.8238e-14 1.00001 0
-1.98857e-15 1.00001 0
-1.56596e-14 1.00001 0
2.19745e-14 1.00001 0
2.41677e-14 1.00001 0
-1.56596e-14 1.00001 0
-1.95714e-14 1.00001 0
2.41677e-14 1.00001 0
2.38714e-14 1.00001 0
-5.78945e-14 1.00001 0
-2.58461e-14 1.00001 0
5.8238e-14 1.00001 0
2.53924e-14 1.00001 0
-2.58461e-14 1.00001 0
-3.18692e-14 1.00001 0
2.53924e-14 1.00001 0
4.25856e-14 1.00001 0
-1.52214e-14 1 0
-3.18404e-14 1 0
2.47916e-14 1.00001 0
3.81062e-14 1.00001 0
-3.18404e-14 1 0
-2.83579e-14 1 0
3.81062e-14 1.00001 0
2.75278e-14 1.00001 0
-2.84815e-14 1.00001 0
-4.50394e-14 1.00001 0
2.21944e-14 1.00001 0
5.62159e-14 1.00001 0
-4.50394e-14 1.00001 0
-2.67806e-14 1.00001 0
5.62159e-14 1.00001 0
3.34418e-14 1.00001 0
-2.83579e-14 1 0
-4.54915e-14 1 0
2.75278e-14 1.00001 0
4.66817e-14 1.00001 0
-4.54915e-14 1 0
-3.30712e-14 1 0
4.66817e-14 1.00001 0
2.23373e-14 1.00001 0
-2.67806e-14 1.00001 0
-2.95533e-14 1.00001 0
3.34418e-14 1.00001 0
3.54096e-14 1.00001 0
-2.95533e-14 1.00001 0
-1.06107e-14 1.00001 0
3.54096e-14 1.00001 0
1.76705e-14 1.00001 0
-1.95714e-14 1.00001 0
-5.93904e-14 1.00001 0
2.38714e-14 1.00001 0
5.45686e-14 1.00001 0
-5.93904e-14 1.00001 0
-2.38735e-14 1.00001 0
5.45686e-14 1.00001 0
2.22922e-14 1.00001 0
-3.18692e-14 1.00001 0
-3.74801e-14 1.00001 0
4.25856e-14 1.00001 0
3.46919e-14 1.00001 0
-3.74801e-14 1.00001 0
-1.57166e-14 1.00001 0
3.46919e-14 1.00001 0
2.64346e-14 1.00001 0
-2.38735e-14 1.00001 0
-2.49584e-14 1.00001 0
2.22922e-14 1.00001 0
2.58813e-14 1.00001 0
-2.49584e-14 1.00001 0
-2.77494e-14 1.00001 0
2.58813e-14 1.00001 0
4.48111e-14 1.00001 0
-1.57166e-14 1.00001 0
-1.74038e-14 1.00001 0
2.64346e-14 1.00001 0
8.4594e-15 1.00001 0
-1.74038e-14 1.00001 0
-2.16723e-14 1.00001 0
8.4594e-15 1.00001 0
1.06844e-14 1.00001 0
0 1.00001 0
-3.19374e-14 1.00001 0
0 1 0
2.68324e-14 1 0
-3.19374e-14 1.00001 0
-3.17211e-14 1.00001 0
2.68324e-14 1 0
2.44895e-14 1 0
0 1 0
-8.48332e-16 1 0
0 1 0
-3.8348e-15 1 0
-8.48332e-16 1 0
-2.14444e-14 1 0
-3.8348e-15 1 0
3.07134e-14 1 0
-3.17211e-14 1.00001 0
-7.91697e-15 1.00001 0
2.44895e-14 1 0
4.89588e-15 1 0
-7.91697e-15 1.00001 0
-5.4808e-14 1.00001 0
4.89588e-15 1 0
5.70581e-14 1 0
-2.14444e-14 1 0
-1.5896e-14 1 0
3.07134e-14 1 0
2.85546e-14 1 0
-1.5896e-14 1 0
-5.70015e-14 1 0
2.85546e-14 1 0
5.4552e-14 1 0
0 1 0
-1.66938e-14 1 0
0 1 0
2.46702e-14 1 0
-1.66938e-14 1 0
-2.74143e-14 1 0
2.46702e-14 1 0
1.49058e-14 1 0
0 1 0
-1.95658e-14 1 0
0 1 0
1.90782e-14 1 0
-1.95658e-14 1 0
-2.76157e-14 1 0
1.90782e-14 1 0
3.94965e-14 1 0
-2.74143e-14 1 0
-3.67238e-14 1 0
1.49058e-14 1 0
2.7933e-14 1 0
-3.67238e-14 1 0
-3.92535e-14 1 0
2.7933e-14 1 0
2.57608e-14 1 0
-2.76157e-14 1 0
-1.96296e-14 1 0
3.94965e-14 1 0
1.30103e-14 1 0
-1.96296e-14 1 0
-2.60165e-14 1 0
1.30103e-14 1 0
4.0654e-14 1 0
-5.4808e-14 1.00001 0
-3.31675e-14 1.00001 0
5.70581e-14 1 0
3.89602e-14 1 0
-3.31675e-14 1.00001 0
-2.54637e-14 1.00001 0
3.89602e-14 1 0
2.49671e-14 1 0
-5.70015e-14 1 0
-3.84448e-14 1 0
5.4552e-14 1 0
3.17396e-14 1 0
-3.84448e-14 1 0
-4.83384e-14 1 0
3.17396e-14 1 0
5.29881e-14 1 0
-2.54637e-14 1.00001 0
-6.4108e-15 1.00001 0
2.49671e-14 1 0
1.50875e-14 1 0
-6.4108e-15 1.00001 0
-1.36895e-14 1.00001 0
1.50875e-14 1 0
2.5003e-14 1 0
-4.83384e-14 1 0
-1.8866e-14 1 0
5.29881e-14 1 0
2.30547e-14 1 0
-1.8866e-14 1 0
-2.58297e-14 1 0
2.30547e-14 1 0
2.20033e-14 1 0
-3.92535e-14 1 0
-2.1898e-14 1 0
2.57608e-14 1 0
3.2392e-14 1 0
-2.1898e-14 1 0
-3.98096e-14 1 0
3.2392e-14 1 0
4.19375e-14 1 0
-2.60165e-14 1 0
-5.77071e-14 1 0
4.0654e-14 1 0
6.13919e-14 1 0
-5.77071e-14 1 0
-4.71262e-14 1 0
6.13919e-14 1 0
5.06796e-14 1 0
-3.98096e-14 1 0
-2.4391e-14 1 0
4.19375e-14 1 0
3.40896e-14 1 0
-2.4391e-14 1 0
-2.45897e-14 1 0
3.40896e-14 1 0
3.00646e-14 1 0
-4.71262e-14 1 0
-2.93154e-14 1 0
5.06796e-14 1 0
2.02977e-14 1 0
-2.93154e-14 1 0
-2.90748e-14 1 0
2.02977e-14 1 0
2.9553e-14 1 0
-3.30712e-14 1 0
-5.30016e-14 1 0
2.23373e-14 1.00001 0
5.58424e-14 1.00001 0
-5.30016e-14 1 0
-3.93718e-14 1 0
5.58424e-14 1.00001 0
4.88311e-14 1.00001 0
-1.06107e-14 1.00001 0
-3.72375e-14 1.00001 0
1.76705e-14 1.00001 0
3.63373e-14 1.00001 0
-3.72375e-14 1.00001 0
-2.54175e-14 1.00001 0
3.63373e-14 1.00001 0
1.43202e-14 1.00001 0
-3.93718e-14 1 0
-9.87215e-15 1 0
4.88311e-14 1.00001 0
8.01137e-15 1.00001 0
-9.87215e-15 1 0
-1.24018e-14 1 0
8.01137e-15 1.00001 0
2.37874e-14 1.00001 0
-2.54175e-14 1.00001 0
-3.11729e-14 1.00001 0
1.43202e-14 1.00001 0
3.14666e-14 1.00001 0
-3.11729e-14 1.00001 0
-2.56911e-14 1.00001 0
3.14666e-14 1.00001 0
4.88916e-15 1.00001 0
-2.77494e-14 1.00001 0
-3.97731e-14 1.00001 0
4.48111e-14 1.00001 0
4.57227e-14 1.00001 0
-3.97731e-14 1.00001 0
-1.27921e-14 1.00001 0
4.57227e-14 1.00001 0
1.68686e-14 1.00001 0
-2.16723e-14 1.00001 0
-2.5339e-14 1.00001 0
1.06844e-14 1.00001 0
2.9188e-14 1.00001 0
-2.5339e-14 1.00001 0
-1.84409e-14 1.00001 0
2.9188e-14 1.00001 0
2.75263e-14 1.00001 0
-1.27921e-14 1.00001 0
-2.00625e-15 1.00001 0
1.68686e-14 1.00001 0
1.55272e-14 1.00001 0
-2.00625e-15 1.00001 0
1.81791e-14 1.00001 0
1.55272e-14 1.00001 0
1.5541e-15 1.00001 0
-1.84409e-14 1.00001 0
-3.67514e-14 1.00001 0
2.75263e-14 1.00001 0
4.23323e-14 1.00001 0
-3.67514e-14 1.00001 0
-3.61282e-15 1.00001 0
4.23323e-14 1.00001 0
-1.0955e-15 1.00001 0
-1.24018e-14 1 0
-1.57053e-14 1 0
2.37874e-14 1.00001 0
2.54704e-14 1.00001 0
-1.57053e-14 1 0
-3.75232e-14 1 0
2.54704e-14 1.00001 0
4.98074e-14 1.00001 0
-2.56911e-14 1.00001 0
-1.46447e-14 1.00001 0
4.88916e-15 1.00001 0
8.71308e-15 1.00001 0
-1.46447e-14 1.00001 0
-3.9641e-14 1.00001 0
8.71308e-15 1.00001 0
4.31765e-14 1.00001 0
-3.75232e-14 1 0
-1.65125e-14 1 0
4.98074e-14 1.00001 0
2.08247e-14 1.00001 0
-1.65125e-14 1 0
-1.63137e-14 1 0
2.08247e-14 1.00001 0
3.5468e-14 1.00001 0
-3.9641e-14 1.00001 0
-3.15323e-14 1.00001 0
4.31765e-14 1.00001 0
3.81825e-14 1.00001 0
-3.15323e-14 1.00001 0
-7.39485e-14 1.00001 0
3.81825e-14 1.00001 0
7.1341e-14 1.00001 0
1.81791e-14 1.00001 0
-1.09289e-14 1.00001 0
1.5541e-15 1.00001 0
2.34695e-14 1.00001 0
-1.09289e-14 1.00001 0
-3.54813e-14 1.00001 0
2.34695e-14 1.00001 0
4.36595e-14 1.00001 0
-3.61282e-15 1.00001 0
-1.22078e-15 1.00001 0
-1.0955e-15 1.00001 0
-4.78773e-15 1.00001 0
-1.22078e-15 1.00001 0
-3.15278e-14 1.00001 0
-4.78773e-15 1.00001 0
2.68694e-14 1.00001 0
-3.54813e-14 1.00001 0
-3.04662e-14 1.00001 0
4.36595e-14 1.00001 0
4.45497e-14 1.00001 0
-3.04662e-14 1.00001 0
-3.78945e-14 1.00001 0
4.45497e-14 1.00001 0
3.90359e-14 1.00001 0
-3.15278e-14 1.00001 0
-4.77286e-14 1.00001 0
2.68694e-14 1.00001 0
4.92139e-14 1.00001 0
-4.77286e-14 1.00001 0
-2.31691e-14 1.00001 0
4.92139e-14 1.00001 0
2.8744e-14 1.00001 0
-1.36895e-14 1.00001 0
-4.23517e-14 1.00001 0
2.5003e-14 1 0
5.2288e-14 1 0
-4.23517e-14 1.00001 0
-2.23178e-14 1.00001 0
5.2288e-14 1 0
2.73952e-14 1 0
-2.58297e-14 1 0
-4.88421e-14 1 0
2.20033e-14 1 0
4.30404e-14 1 0
-4.88421e-14 1 0
-4.06861e-14 1 0
4.30404e-14 1 0
3.6558e-14 1 0
-2.23178e-14 1.00001 0
-2.53477e-14 1.00001 0
2.73952e-14 1 0
2.41615e-14 1 0
-2.53477e-14 1.00001 0
1.50816e-15 1.00001 0
2.41615e-14 1 0
1.10863e-14 1 0
-4.06861e-14 1 0
-3.43177e-14 1 0
3.6558e-14 1 0
3.47912e-14 1 0
-3.43177e-14 1 0
-2.40575e-14 1 0
3.47912e-14 1 0
2.49319e-14 1 0
-2.45897e-14 1 0
-3.6713e-14 1 0
3.00646e-14 1 0
4.08765e-14 1 0
-3.6713e-14 1 0
-2.3812e-14 1 0
4.08765e-14 1 0
3.60517e-14 1 0
-2.90748e-14 1 0
-2.32403e-14 1 0
2.9553e-14 1 0
1.96111e-14 1 0
-2.32403e-14 1 0
-5.167e-14 1 0
1.96111e-14 1 0
6.06852e-14 1 0
-2.3812e-14 1 0
-4.76755e-14 1 0
3.60517e-14 1 0
5.36694e-14 1 0
-4.76755e-14 1 0
-2.42425e-14 1 0
5.36694e-14 1 0
1.94799e-14 1 0
-5.167e-14 1 0
-2.43217e-14 1 0
6.06852e-14 1 0
2.32643e-14 1 0
-2.43217e-14 1 0
-2.89309e-15 1 0
2.32643e-14 1 0
-2.63834e-15 1 0
1.50816e-15 1.00001 0
-4.47363e-15 1.00001 0
1.10863e-14 1 0
1.02651e-14 1 0
-4.47363e-15 1.00001 0
-2.18402e-14 1.00001 0
1.02651e-14 1 0
2.39801e-14 1 0
-2.40575e-14 1 0
-1.58373e-15 1 0
2.49319e-14 1 0
3.14388e-16 1 0
-1.58373e-15 1 0
-1.92603e-14 1 0
3.14388e-16 1 0
1.53624e-14 1 0
-2.18402e-14 1.00001 0
-3.77176e-14 1.00001 0
2.39801e-14 1 0
3.31976e-14 1 0
-3.77176e-14 1.00001 0
-3.02466e-14 1.00001 0
3.31976e-14 1 0
3.12565e-14 1 0
-1.92603e-14 1 0
-3.27295e-14 1 0
1.53624e-14 1 0
3.17203e-14 1 0
-3.27295e-14 1 0
-3.87919e-14 1 0
3.17203e-14 1 0
4.64938e-14 1 0
-2.42425e-14 1 0
-8.83646e-15 1 0
1.94799e-14 1 0
1.20494e-14 1 0
-8.83646e-15 1 0
-1.91145e-15 1 0
1.20494e-14 1 0
7.5648e-15 1 0
-2.89309e-15 1 0
-2.40598e-14 1 0
-2.63834e-15 1 0
2.6133e-14 1 0
-2.40598e-14 1 0
-2.84775e-14 1 0
2.6133e-14 1 0
2.47692e-14 1 0
-1.91145e-15 1 0
-3.18977e-14 1 0
7.5648e-15 1 0
3.76963e-14 1 0
-3.18977e-14 1 0
-4.54535e-14 1 0
3.76963e-14 1 0
3.99276e-14 1 0
-2.84775e-14 1 0
-2.92443e-14 1 0
2.47692e-14 1 0
2.49081e-14 1 0
-2.92443e-14 1 0
-2.35742e-14 1 0
2.49081e-14 1 0
1.35875e-14 1 0
0 1 0
-1.71e-14 1 0
0 1 0
2.46993e-14 1 0
-1.71e-14 1 0
-2.99343e-14 1 0
2.46993e-14 1 0
3.72594e-14 1 0
0 1 0
-2.82394e-14 1 0
0 1 0
1.73713e-14 1 0
-2.82394e-14 1 0
-4.11245e-14 1 0
1.73713e-14 1 0
1.49272e-14 1 0
-2.99343e-14 1 0
-5.83523e-16 1 0
3.72594e-14 1 0
1.33799e-14 1 0
-5.83523e-16 1 0
-3.93901e-14 1 0
1.33799e-14 1 0
3.43045e-14 1 0
-4.11245e-14 1 0
-2.01456e-14 1 0
1.49272e-14 1 0
1.35571e-14 1 0
-2.01456e-14 1 0
-1.99919e-14 1 0
1.35571e-14 1 0
1.57818e-14 1 0
0 1 0
-1.16231e-14 1 0
0 1 0
7.79579e-15 1 0
-1.16231e-14 1 0
8.38108e-15 1 0
7.79579e-15 1 0
1.83587e-15 1 0
0 1 0
-1.09245e-14 1 0
0 1 0
9.92114e-15 1 0
-1.09245e-14 1 0
-1.59196e-14 1 0
9.92114e-15 1 0
1.62553e-14 1 0
8.38108e-15 1 0
-6.20225e-15 1 0
1.83587e-15 1 0
1.54396e-15 1 0
-6.20225e-15 1 0
-2.04086e-14 1 0
1.54396e-15 1 0
1.183e-14 1 0
-1.59196e-14 1 0
-4.58271e-15 1 0
1.62553e-14 1 0
1.41907e-14 1 0
-4.58271e-15 1 0
-2.0653e-14 1 0
1.41907e-14 1 0
4.01948e-14 1 0
-3.93901e-14 1 0
-3.82786e-14 1 0
3.43045e-14 1 0
3.37838e-14 1 0
-3.82786e-14 1 0
-4.78718e-14 1 0
3.37838e-14 1 0
4.50057e-14 1 0
-1.99919e-14 1 0
-4.35921e-14 1 0
1.57818e-14 1 0
4.92449e-14 1 0
-4.35921e-14 1 0
-2.6956e-14 1 0
4.92449e-14 1 0
2.68706e-14 1 0
-4.78718e-14 1 0
-2.49749e-14 1 0
4.50057e-14 1 0
2.93602e-14 1 0
-2.49749e-14 1 0
-3.78803e-14 1 0
2.93602e-14 1 0
4.19742e-14 1 0
-2.6956e-14 1 0
-1.31509e-14 1 0
2.68706e-14 1 0
1.4197e-14 1 0
-1.31509e-14 1 0
-2.47627e-14 1 0
1.4197e-14 1 0
2.34354e-14 1 0
-2.04086e-14 1 0
-4.48502e-14 1 0
1.183e-14 1 0
3.23072e-14 1 0
-4.48502e-14 1 0
-4.37816e-14 1 0
3.23072e-14 1 0
4.20121e-14 1 0
-2.0653e-14 1 0
-1.27356e-14 1 0
4.01948e-14 1 0
1.40746e-14 1 0
-1.27356e-14 1 0
-2.04284e-15 1 0
1.40746e-14 1 0
-1.03778e-14 1 0
-4.37816e-14 1 0
-1.1228e-14 1 0
4.20121e-14 1 0
2.02581e-14 1 0
-1.1228e-14 1 0
-1.54485e-14 1 0
2.02581e-14 1 0
2.49413e-14 1 0
-2.04284e-15 1 0
-4.43627e-14 1 0
-1.03778e-14 1 0
3.77977e-14 1 0
-4.43627e-14 1 0
-4.72108e-14 1 0
3.77977e-14 1 0
4.66263e-14 1 0
0 1 0
-7.98269e-15 1 0
0 1 0
1.24355e-14 1 0
-7.98269e-15 1 0
-1.66936e-14 1 0
1.24355e-14 1 0
1.41031e-14 1 0
0 1 0
-3.5071e-15 1 0
0 1 0
4.09736e-15 1 0
-3.5071e-15 1 0
-4.81625e-15 1 0
4.09736e-15 1 0
2.06565e-15 1 0
-1.66936e-14 1 0
-1.68824e-14 1 0
1.41031e-14 1 0
1.69306e-14 1 0
-1.68824e-14 1 0
-3.89841e-14 1 0
1.69306e-14 1 0
3.25007e-14 1 0
-4.81625e-15 1 0
-1.33146e-14 1 0
2.06565e-15 1 0
1.10197e-14 1 0
-1.33146e-14 1 0
-4.24409e-14 1 0
1.10197e-14 1 0
4.16962e-14 1 0
0 1 0
-1.07135e-15 1 0
0 1 0
-8.37633e-15 1 0
-1.07135e-15 1 0
-1.62709e-14 1 0
-8.37633e-15 1 0
1.39645e-14 1 0
0 1 0
-3.19252e-15 1 0
0 1 0
-9.42851e-16 1 0
-3.19252e-15 1 0
-2.22495e-14 1 0
-9.42851e-16 1 0
1.95482e-14 1 0
-1.62709e-14 1 0
-2.71411e-14 1 0
1.39645e-14 1 0
1.91037e-14 1 0
-2.71411e-14 1 0
-2.79734e-14 1 0
1.91037e-14 1 0
1.09847e-14 1 0
-2.22495e-14 1 0
-1.33999e-14 1 0
1.95482e-14 1 0
2.09428e-14 1 0
-1.33999e-14 1 0
-8.05728e-15 1 0
2.09428e-14 1 0
5.81792e-15 1 0
-3.89841e-14 1 0
-5.30311e-14 1 0
3.25007e-14 1 0
4.70686e-14 1 0
-5.30311e-14 1 0
-8.7542e-16 1 0
4.70686e-14 1 0
4.62977e-15 1 0
-4.24409e-14 1 0
-3.65547e-14 1 0
4.16962e-14 1 0
3.27868e-14 1 0
-3.65547e-14 1 0
-3.02325e-14 1 0
3.27868e-14 1 0
3.53205e-14 1 0
-8.7542e-16 1 0
-1.88629e-14 1 0
4.62977e-15 1 0
6.30127e-15 1 0
-1.88629e-14 1 0
-5.16007e-14 1 0
6.30127e-15 1 0
4.51633e-14 1 0
-3.02325e-14 1 0
-2.04857e-14 1 0
3.53205e-14 1 0
1.41937e-14 1 0
-2.04857e-14 1 0
-3.55474e-14 1 0
1.41937e-14 1 0
3.40737e-14 1 0
-2.79734e-14 1 0
-3.84939e-14 1 0
1.09847e-14 1 0
2.50323e-14 1 0
-3.84939e-14 1 0
-2.69822e-14 1 0
2.50323e-14 1 0
2.30203e-14 1 0
-8.05728e-15 1 0
-1.69179e-14 1 0
5.81792e-15 1 0
2.45162e-14 1 0
-1.69179e-14 1 0
-1.36802e-14 1 0
2.45162e-14 1 0
1.73711e-14 1 0
-2.69822e-14 1 0
-1.20688e-14 1 0
2.30203e-14 1 0
2.62623e-14 1 0
-1.20688e-14 1 0
-4.9109e-14 1 0
2.62623e-14 1 0
5.53696e-14 1 0
-1.36802e-14 1 0
-3.20989e-14 1 0
1.73711e-14 1 0
2.01445e-14 1 0
-3.20989e-14 1 0
-5.57975e-14 1 0
2.01445e-14 1 0
3.17715e-14 1 0
-3.78803e-14 1 0
-2.23665e-14 1 0
4.19742e-14 1 0
2.90274e-14 1 0
-2.23665e-14 1 0
-5.79633e-14 1 0
2.90274e-14 1 0
4.81756e-14 1 0
-2.47627e-14 1 0
-3.44193e-14 1 0
2.34354e-14 1 0
4.20692e-14 1 0
-3.44193e-14 1 0
-4.89667e-15 1 0
4.20692e-14 1 0
-3.53051e-15 1 0
-5.79633e-14 1 0
-3.79205e-14 1 0
4.81756e-14 1 0
3.27527e-14 1 0
-3.79205e-14 1 0
-1.68815e-14 1 0
3.27527e-14 1 0
2.05718e-14 1 0
-4.89667e-15 1 0
-1.11852e-14 1 0
-3.53051e-15 1 0
1.82251e-14 1 0
-1.11852e-14 1 0
-1.80129e-14 1 0
1.82251e-14 1 0
3.05326e-14 1 0
-1.54485e-14 1 0
-3.38906e-14 1 0
2.49413e-14 1 0
2.7321e-14 1 0
-3.38906e-14 1 0
4.93401e-15 1 0
2.7321e-14 1 0
-5.46048e-15 1 0
-4.72108e-14 1 0
-3.38293e-14 1 0
4.66263e-14 1 0
3.39086e-14 1 0
-3.38293e-14 1 0
-1.67125e-14 1 0
3.39086e-14 1 0
3.17796e-14 1 0
4.93401e-15 1 0
-1.44295e-14 1 0
-5.46048e-15 1 0
1.09497e-14 1 0
-1.44295e-14 1 0
-3.6464e-14 1 0
1.09497e-14 1 0
4.04258e-14 1 0
-1.67125e-14 1 0
-1.71091e-14 1 0
3.17796e-14 1 0
2.42313e-14 1 0
-1.71091e-14 1 0
-2.78649e-14 1 0
2.42313e-14 1 0
3.01857e-14 1 0
-1.68815e-14 1 0
-1.6476e-14 1 0
2.05718e-14 1 0
5.99052e-15 1 0
-1.6476e-14 1 0
-1.17121e-14 1 0
5.99052e-15 1 0
3.43423e-15 1 0
-1.80129e-14 1 0
-4.42465e-15 1 0
3.05326e-14 1 0
1.58138e-14 1 0
-4.42465e-15 1 0
8.36041e-15 1 0
1.58138e-14 1 0
-9.02015e-15 1 0
-1.17121e-14 1 0
-1.36991e-14 1 0
3.43423e-15 1 0
8.87042e-15 1 0
-1.36991e-14 1 0
1.34567e-15 1 0
8.87042e-15 1 0
3.87067e-15 1 0
8.36041e-15 1 0
-1.2026e-15 1 0
-9.02015e-15 1 0
7.52354e-15 1 0
-1.2026e-15 1 0
4.42681e-15 1 0
7.52354e-15 1 0
-5.01545e-15 1 0
-3.6464e-14 1 0
4.12704e-15 1 0
4.04258e-14 1 0
-3.84807e-15 1 0
4.12704e-15 1 0
1.1328e-14 1 0
-3.84807e-15 1 0
-4.55096e-15 1 0
-2.78649e-14 1 0
3.8153e-16 1 0
3.01857e-14 1 0
-2.56661e-15 1 0
3.8153e-16 1 0
3.84706e-15 1 0
-2.56661e-15 1 0
6.80732e-15 1 0
1.1328e-14 1 0
-1.19641e-14 1 0
-4.55096e-15 1 0
1.19649e-14 1 0
-1.19641e-14 1 0
5.11103e-15 1 0
1.19649e-14 1 0
1.32382e-16 1 0
3.84706e-15 1 0
-1.18324e-14 1 0
6.80732e-15 1 0
1.91095e-14 1 0
-1.18324e-14 1 0
-1.26525e-14 1 0
1.91095e-14 1 0
2.50586e-14 1 0
-5.16007e-14 1 0
-3.24003e-14 1 0
4.51633e-14 1 0
3.30606e-14 1 0
-3.24003e-14 1 0
-3.51534e-14 1 0
3.30606e-14 1 0
3.64277e-14 1 0
-3.55474e-14 1 0
-3.75258e-14 1 0
3.40737e-14 1 0
3.86363e-14 1 0
-3.75258e-14 1 0
-5.12895e-14 1 0
3.86363e-14 1 0
3.06343e-14 1 0
-3.51534e-14 1 0
-1.90712e-14 1 0
3.64277e-14 1 0
1.79366e-14 1 0
-1.90712e-14 1 0
-3.03217e-14 1 0
1.79366e-14 1 0
2.98472e-14 1 0
-5.12895e-14 1 0
-2.95286e-14 1 0
3.06343e-14 1 0
3.15935e-14 1 0
-2.95286e-14 1 0
-3.22475e-14 1 0
3.15935e-14 1 0
1.83011e-14 1 0
-4.9109e-14 1 0
-6.27015e-14 1 0
5.53696e-14 1 0
4.65933e-14 1 0
-6.27015e-14 1 0
-3.81037e-14 1 0
4.65933e-14 1 0
2.22012e-14 1 0
-5.57975e-14 1 0
-5.38021e-14 1 0
3.17715e-14 1 0
3.11991e-14 1 0
-5.38021e-14 1 0
-2.04869e-14 1 0
3.11991e-14 1 0
8.93089e-15 1 0
-3.81037e-14 1 0
-3.37987e-14 1 0
2.22012e-14 1 0
2.84371e-14 1 0
-3.37987e-14 1 0
-8.32005e-15 1 0
2.84371e-14 1 0
1.02964e-14 1 0
-2.04869e-14 1 0
-2.5317e-14 1 0
8.93089e-15 1 0
2.2616e-14 1 0
-2.5317e-14 1 0
-9.21588e-15 1 0
2.2616e-14 1 0
1.18235e-14 1 0
-3.03217e-14 1 0
-2.28194e-14 1 0
2.98472e-14 1 0
3.11077e-14 1 0
-2.28194e-14 1 0
-2.4966e-14 1 0
3.11077e-14 1 0
2.6707e-14 1 0
-3.22475e-14 1 0
-1.47477e-14 1 0
1.83011e-14 1 0
9.55329e-15 1 0
-1.47477e-14 1 0
-2.91817e-14 1 0
9.55329e-15 1 0
2.66907e-14 1 0
-2.4966e-14 1 0
-2.50708e-14 1 0
2.6707e-14 1 0
1.47283e-14 1 0
-2.50708e-14 1 0
-3.96965e-14 1 0
1.47283e-14 1 0
3.00358e-14 1 0
-2.91817e-14 1 0
-1.09422e-14 1 0
2.66907e-14 1 0
2.30171e-14 1 0
-1.09422e-14 1 0
-2.09393e-14 1 0
2.30171e-14 1 0
2.78732e-14 1 0
-8.32005e-15 1 0
-1.12659e-14 1 0
1.02964e-14 1 0
1.63924e-14 1 0
-1.12659e-14 1 0
-1.74649e-14 1 0
1.63924e-14 1 0
1.45548e-14 1 0
-9.21588e-15 1 0
-2.52751e-14 1 0
1.18235e-14 1 0
3.62622e-14 1 0
-2.52751e-14 1 0
-1.25958e-14 1 0
3.62622e-14 1 0
1.7364e-14 1 0
-1.74649e-14 1 0
-4.27485e-14 1 0
1.45548e-14 1 0
4.16525e-14 1 0
-4.27485e-14 1 0
-2.96466e-14 1 0
4.16525e-14 1 0
2.71267e-14 1 0
-1.25958e-14 1 0
-9.37963e-15 1 0
1.7364e-14 1 0
5.67421e-15 1 0
-9.37963e-15 1 0
-2.56179e-15 1 0
5.67421e-15 1 0
6.54858e-15 1 0
-1.63137e-14 1 0
-1.81333e-14 1 0
3.5468e-14 1.00001 0
3.17194e-14 1.00001 0
-1.81333e-14 1 0
-1.93458e-14 1 0
3.17194e-14 1.00001 0
2.69035e-14 1.00001 0
-7.39485e-14 1.00001 0
-6.01526e-14 1.00001 0
7.1341e-14 1.00001 0
5.76621e-14 1.00001 0
-6.01526e-14 1.00001 0
-8.46618e-15 1.00001 0
5.76621e-14 1.00001 0
7.50514e-15 1.00001 0
-1.93458e-14 1 0
-2.9197e-14 1 0
2.69035e-14 1.00001 0
3.39434e-14 1.00001 0
-2.9197e-14 1 0
-1.9539e-14 1 0
3.39434e-14 1.00001 0
3.36685e-14 1.00001 0
-8.46618e-15 1.00001 0
1.23433e-14 1.00001 0
7.50514e-15 1.00001 0
-2.10107e-14 1.00001 0
1.23433e-14 1.00001 0
-7.21719e-15 1.00001 0
-2.10107e-14 1.00001 0
7.68215e-15 1.00001 0
-3.78945e-14 1.00001 0
-7.80605e-15 1.00001 0
3.90359e-14 1.00001 0
1.62554e-14 1.00001 0
-7.80605e-15 1.00001 0
-7.4063e-15 1.00001 0
1.62554e-14 1.00001 0
2.5806e-14 1.00001 0
-2.31691e-14 1.00001 0
-2.72396e-15 1.00001 0
2.8744e-14 1.00001 0
1.92151e-15 1.00001 0
-2.72396e-15 1.00001 0
-4.60957e-14 1.00001 0
1.92151e-15 1.00001 0
4.89096e-14 1.00001 0
-7.4063e-15 1.00001 0
1.28591e-14 1.00001 0
2.5806e-14 1.00001 0
1.03366e-14 1.00001 0
1.28591e-14 1.00001 0
-1.7091e-14 1.00001 0
1.03366e-14 1.00001 0
2.13883e-14 1.00001 0
-4.60957e-14 1.00001 0
-2.06551e-14 1.00001 0
4.89096e-14 1.00001 0
3.16805e-14 1.00001 0
-2.06551e-14 1.00001 0
-1.16687e-14 1.00001 0
3.16805e-14 1.00001 0
7.95888e-15 1.00001 0
-1.9539e-14 1 0
-2.64147e-14 1 0
3.36685e-14 1.00001 0
3.74816e-14 1.00001 0
-2.64147e-14 1 0
5.46953e-15 1 0
3.74816e-14 1.00001 0
1.40204e-14 1.00001 0
-7.21719e-15 1.00001 0
-1.53658e-14 1.00001 0
7.68215e-15 1.00001 0
9.05274e-15 1.00001 0
-1.53658e-14 1.00001 0
-5.17407e-14 1.00001 0
9.05274e-15 1.00001 0
7.22831e-14 1.00001 0
5.46953e-15 1 0
-4.84478e-15 1 0
1.40204e-14 1.00001 0
1.77603e-14 1.00001 0
-4.84478e-15 1 0
-1.37844e-14 1 0
1.77603e-14 1.00001 0
2.10566e-14 1.00001 0
-5.17407e-14 1.00001 0
-3.42586e-14 1.00001 0
7.22831e-14 1.00001 0
4.42064e-14 1.00001 0