# vtk DataFile Version 3.0
#This file was generated by the deal.II library on 2018/10/15 at 12:47:55
ASCII
DATASET UNSTRUCTURED_GRID

POINTS 20480 double
0 0 0
0.19635 0 0
0 0.30083 0
0.19635 0.30083 0
0.19635 0 0
0.392699 0 0
0.19635 0.30083 0
0.392699 0.30083 0
0 0.30083 0
0.19635 0.30083 0
0 0.613678 0
0.19635 0.613678 0
0.19635 0.30083 0
0.392699 0.30083 0
0.19635 0.613678 0
0.392699 0.613678 0
0.392699 0 0
0.589049 0 0
0.392699 0.30083 0
0.589049 0.30083 0
0.589049 0 0
0.785398 0 0
0.589049 0.30083 0
0.785398 0.30083 0
0.392699 0.30083 0
0.589049 0.30083 0
0.392699 0.613678 0
0.589049 0.613678 0
0.589049 0.30083 0
0.785398 0.30083 0
0.589049 0.613678 0
0.785398 0.613678 0
0 0.613678 0
0.19635 0.613678 0
0 0.926235 0
0.19635 0.926235 0
0.19635 0.613678 0
0.392699 0.613678 0
0.19635 0.926235 0
0.392699 0.926235 0
0 0.926235 0
0.19635 0.926235 0
0 1.23928 0
0.19635 1.23928 0
0.19635 0.926235 0
0.392699 0.926235 0
0.19635 1.23928 0
0.392699 1.23928 0
0.392699 0.613678 0
0.589049 0.613678 0
0.392699 0.926235 0
0.589049 0.926235 0
0.589049 0.613678 0
0.785398 0.613678 0
0.589049 0.926235 0
0.785398 0.926235 0
0.392699 0.926235 0
0.589049 0.926235 0
0.392699 1.23928 0
0.589049 1.23928 0
0.589049 0.926235 0
0.785398 0.926235 0
0.589049 1.23928 0
0.785398 1.23928 0
0.785398 0 0
0.981748 0 0
0.785398 0.30083 0
0.981748 0.30083 0
0.981748 0 0
1.1781 0 0
0.981748 0.30083 0
1.1781 0.30083 0
0.785398 0.30083 0
0.981748 0.30083 0
0.785398 0.613678 0
0.981748 0.613678 0
0.981748 0.30083 0
1.1781 0.30083 0
0.981748 0.613678 0
1.1781 0.613678 0
1.1781 0 0
1.37445 0 0
1.1781 0.30083 0
1.37445 0.30083 0
1.37445 0 0
1.5708 0 0
1.37445 0.30083 0
1.5708 0.30083 0
1.1781 0.30083 0
1.37445 0.30083 0
1.1781 0.613678 0
1.37445 0.613678 0
1.37445 0.30083 0
1.5708 0.30083 0
1.37445 0.613678 0
1.5708 0.613678 0
0.785398 0.613678 0
0.981748 0.613678 0
0.785398 0.926235 0
0.981748 0.926235 0
0.981748 0.613678 0
1.1781 0.613678 0
0.981748 0.926235 0
1.1781 0.926235 0
0.785398 0.926235 0
0.981748 0.926235 0
0.785398 1.23928 0
0.981748 1.23928 0
0.981748 0.926235 0
1.1781 0.926235 0
0.981748 1.23928 0
1.1781 1.23928 0
1.1781 0.613678 0
1.37445 0.613678 0
1.1781 0.926235 0
1.37445 0.926235 0
1.37445 0.613678 0
1.5708 0.613678 0
1.37445 0.926235 0
1.5708 0.926235 0
1.1781 0.926235 0
1.37445 0.926235 0
1.1781 1.23928 0
1.37445 1.23928 0
1.37445 0.926235 0
1.5708 0.926235 0
1.37445 1.23928 0
1.5708 1.23928 0
0 1.23928 0
0.19635 1.23928 0
0 1.5522 0
0.19635 1.5522 0
0.19635 1.23928 0
0.392699 1.23928 0
0.19635 1.5522 0
0.392699 1.5522 0
0 1.5522 0
0.19635 1.5522 0
0 1.86516 0
0.19635 1.86516 0
0.19635 1.5522 0
0.392699 1.5522 0
0.19635 1.86516 0
0.392699 1.86516 0
0.392699 1.23928 0
0.589049 1.23928 0
0.392699 1.5522 0
0.589049 1.5522 0
0.589049 1.23928 0
0.785398 1.23928 0
0.589049 1.5522 0
0.785398 1.5522 0
0.392699 1.5522 0
0.589049 1.5522 0
0.392699 1.86516 0
0.589049 1.86516 0
0.589049 1.5522 0
0.785398 1.5522 0
0.589049 1.86516 0
0.785398 1.86516 0
0 1.86516 0
0.19635 1.86516 0
0 2.17809 0
0.19635 2.17809 0
0.19635 1.86516 0
0.392699 1.86516 0
0.19635 2.17809 0
0.392699 2.17809 0
0 2.17809 0
0.19635 2.17809 0
0 2.49102 0
0.19635 2.49102 0
0.19635 2.17809 0
0.392699 2.17809 0
0.19635 2.49102 0
0.392699 2.49102 0
0.392699 1.86516 0
0.589049 1.86516 0
0.392699 2.17809 0
0.589049 2.17809 0
0.589049 1.86516 0
0.785398 1.86516 0
0.589049 2.17809 0
0.785398 2.17809 0
0.392699 2.17809 0
0.589049 2.17809 0
0.392699 2.49102 0
0.589049 2.49102 0
0.589049 2.17809 0
0.785398 2.17809 0
0.589049 2.49102 0
0.785398 2.49102 0
0.785398 1.23928 0
0.981748 1.23928 0
0.785398 1.5522 0
0.981748 1.5522 0
0.981748 1.23928 0
1.1781 1.23928 0
0.981748 1.5522 0
1.1781 1.5522 0
0.785398 1.5522 0
0.981748 1.5522 0
0.785398 1.86516 0
0.981748 1.86516 0
0.981748 1.5522 0
1.1781 1.5522 0
0.981748 1.86516 0
1.1781 1.86516 0
1.1781 1.23928 0
1.37445 1.23928 0
1.1781 1.5522 0
1.37445 1.5522 0
1.37445 1.23928 0
1.5708 1.23928 0
1.37445 1.5522 0
1.5708 1.5522 0
1.1781 1.5522 0
1.37445 1.5522 0
1.1781 1.86516 0
1.37445 1.86516 0
1.37445 1.5522 0
1.5708 1.5522 0
1.37445 1.86516 0
1.5708 1.86516 0
0.785398 1.86516 0
0.981748 1.86516 0
0.785398 2.17809 0
0.981748 2.17809 0
0.981748 1.86516 0
1.1781 1.86516 0
0.981748 2.17809 0
1.1781 2.17809 0
0.785398 2.17809 0
0.981748 2.17809 0
0.785398 2.49102 0
0.981748 2.49102 0
0.981748 2.17809 0
1.1781 2.17809 0
0.981748 2.49102 0
1.1781 2.49102 0
1.1781 1.86516 0
1.37445 1.86516 0
1.1781 2.17809 0
1.37445 2.17809 0
1.37445 1.86516 0
1.5708 1.86516 0
1.37445 2.17809 0
1.5708 2.17809 0
1.1781 2.17809 0
1.37445 2.17809 0
1.1781 2.49102 0
1.37445 2.49102 0
1.37445 2.17809 0
1.5708 2.17809 0
1.37445 2.49102 0
1.5708 2.49102 0
1.5708 0 0
1.76715 0 0
1.5708 0.30083 0
1.76715 0.30083 0
1.76715 0 0
1.9635 0 0
1.76715 0.30083 0
1.9635 0.30083 0
1.5708 0.30083 0
1.76715 0.30083 0
1.5708 0.613678 0
1.76715 0.613678 0
1.76715 0.30083 0
1.9635 0.30083 0
1.76715 0.613678 0
1.9635 0.613678 0
1.9635 0 0
2.15984 0 0
1.9635 0.30083 0
2.15984 0.30083 0
2.15984 0 0
2.35619 0 0
2.15984 0.30083 0
2.35619 0.30083 0
1.9635 0.30083 0
2.15984 0.30083 0
1.9635 0.613678 0
2.15984 0.613678 0
2.15984 0.30083 0
2.35619 0.30083 0
2.15984 0.613678 0
2.35619 0.613678 0
1.5708 0.613678 0
1.76715 0.613678 0
1.5708 0.926235 0
1.76715 0.926235 0
1.76715 0.613678 0
1.9635 0.613678 0
1.76715 0.926235 0
1.9635 0.926235 0
1.5708 0.926235 0
1.76715 0.926235 0
1.5708 1.23928 0
1.76715 1.23928 0
1.76715 0.926235 0
1.9635 0.926235 0
1.76715 1.23928 0
1.9635 1.23928 0
1.9635 0.613678 0
2.15984 0.613678 0
1.9635 0.926235 0
2.15984 0.926235 0
2.15984 0.613678 0
2.35619 0.613678 0
2.15984 0.926235 0
2.35619 0.926235 0
1.9635 0.926235 0
2.15984 0.926235 0
1.9635 1.23928 0
2.15984 1.23928 0
2.15984 0.926235 0
2.35619 0.926235 0
2.15984 1.23928 0
2.35619 1.23928 0
2.35619 0 0
2.55254 0 0
2.35619 0.30083 0
2.55254 0.30083 0
2.55254 0 0
2.74889 0 0
2.55254 0.30083 0
2.74889 0.30083 0
2.35619 0.30083 0
2.55254 0.30083 0
2.35619 0.613678 0
2.55254 0.613678 0
2.55254 0.30083 0
2.74889 0.30083 0
2.55254 0.613678 0
2.74889 0.613678 0
2.74889 0 0
2.94524 0 0
2.74889 0.30083 0
2.94524 0.30083 0
2.94524 0 0
3.14159 0 0
2.94524 0.30083 0
3.14159 0.30083 0
2.74889 0.30083 0
2.94524 0.30083 0
2.74889 0.613678 0
2.94524 0.613678 0
2.94524 0.30083 0
3.14159 0.30083 0
2.94524 0.613678 0
3.14159 0.613678 0
2.35619 0.613678 0
2.55254 0.613678 0
2.35619 0.926235 0
2.55254 0.926235 0
2.55254 0.613678 0
2.74889 0.613678 0
2.55254 0.926235 0
2.74889 0.926235 0
2.35619 0.926235 0
2.55254 0.926235 0
2.35619 1.23928 0
2.55254 1.23928 0
2.55254 0.926235 0
2.74889 0.926235 0
2.55254 1.23928 0
2.74889 1.23928 0
2.74889 0.613678 0
2.94524 0.613678 0
2.74889 0.926235 0
2.94524 0.926235 0
2.94524 0.613678 0
3.14159 0.613678 0
2.94524 0.926235 0
3.14159 0.926235 0
2.74889 0.926235 0
2.94524 0.926235 0
2.74889 1.23928 0
2.94524 1.23928 0
2.94524 0.926235 0
3.14159 0.926235 0
2.94524 1.23928 0
3.14159 1.23928 0
1.5708 1.23928 0
1.76715 1.23928 0
1.5708 1.5522 0
1.76715 1.5522 0
1.76715 1.23928 0
1.9635 1.23928 0
1.76715 1.5522 0
1.9635 1.5522 0
1.5708 1.5522 0
1.76715 1.5522 0
1.5708 1.86516 0
1.76715 1.86516 0
1.76715 1.5522 0
1.9635 1.5522 0
1.76715 1.86516 0
1.9635 1.86516 0
1.9635 1.23928 0
2.15984 1.23928 0
1.9635 1.5522 0
2.15984 1.5522 0
2.15984 1.23928 0
2.35619 1.23928 0
2.15984 1.5522 0
2.35619 1.5522 0
1.9635 1.5522 0
2.15984 1.5522 0
1.9635 1.86516 0
2.15984 1.86516 0
2.15984 1.5522 0
2.35619 1.5522 0
2.15984 1.86516 0
2.35619 1.86516 0
1.5708 1.86516 0
1.76715 1.86516 0
1.5708 2.17809 0
1.76715 2.17809 0
1.76715 1.86516 0
1.9635 1.86516 0
1.76715 2.17809 0
1.9635 2.17809 0
1.5708 2.17809 0
1.76715 2.17809 0
1.5708 2.49102 0
1.76715 2.49102 0
1.76715 2.17809 0
1.9635 2.17809 0
1.76715 2.49102 0
1.9635 2.49102 0
1.9635 1.86516 0
2.15984 1.86516 0
1.9635 2.17809 0
2.15984 2.17809 0
2.15984 1.86516 0
2.35619 1.86516 0
2.15984 2.17809 0
2.35619 2.17809 0
1.9635 2.17809 0
2.15984 2.17809 0
1.9635 2.49102 0
2.15984 2.49102 0
2.15984 2.17809 0
2.35619 2.17809 0
2.15984 2.49102 0
2.35619 2.49102 0
2.35619 1.23928 0
2.55254 1.23928 0
2.35619 1.5522 0
2.55254 1.5522 0
2.55254 1.23928 0
2.74889 1.23928 0
2.55254 1.5522 0
2.74889 1.5522 0
2.35619 1.5522 0
2.55254 1.5522 0
2.35619 1.86516 0
2.55254 1.86516 0
2.55254 1.5522 0
2.74889 1.5522 0
2.55254 1.86516 0
2.74889 1.86516 0
2.74889 1.23928 0
2.94524 1.23928 0
2.74889 1.5522 0
2.94524 1.5522 0
2.94524 1.23928 0
3.14159 1.23928 0
2.94524 1.5522 0
3.14159 1.5522 0
2.74889 1.5522 0
2.94524 1.5522 0
2.74889 1.86516 0
2.94524 1.86516 0
2.94524 1.5522 0
3.14159 1.5522 0
2.94524 1.86516 0
3.14159 1.86516 0
2.35619 1.86516 0
2.55254 1.86516 0
2.35619 2.17809 0
2.55254 2.17809 0
2.55254 1.86516 0
2.74889 1.86516 0
2.55254 2.17809 0
2.74889 2.17809 0
2.35619 2.17809 0
2.55254 2.17809 0
2.35619 2.49102 0
2.55254 2.49102 0
2.55254 2.17809 0
2.74889 2.17809 0
2.55254 2.49102 0
2.74889 2.49102 0
2.74889 1.86516 0
2.94524 1.86516 0
2.74889 2.17809 0
2.94524 2.17809 0
2.94524 1.86516 0
3.14159 1.86516 0
2.94524 2.17809 0
3.14159 2.17809 0
2.74889 2.17809 0
2.94524 2.17809 0
2.74889 2.49102 0
2.94524 2.49102 0
2.94524 2.17809 0
3.14159 2.17809 0
2.94524 2.49102 0
3.14159 2.49102 0
0 2.49102 0
0.19635 2.49102 0
0 2.80394 0
0.19635 2.80394 0
0.19635 2.49102 0
0.392699 2.49102 0
0.19635 2.80394 0
0.392699 2.80394 0
0 2.80394 0
0.19635 2.80394 0
0 3.11686 0
0.19635 3.11686 0
0.19635 2.80394 0
0.392699 2.80394 0
0.19635 3.11686 0
0.392699 3.11686 0
0.392699 2.49102 0
0.589049 2.49102 0
0.392699 2.80394 0
0.589049 2.80394 0
0.589049 2.49102 0
0.785398 2.49102 0
0.589049 2.80394 0
0.785398 2.80394 0
0.392699 2.80394 0
0.589049 2.80394 0
0.392699 3.11686 0
0.589049 3.11686 0
0.589049 2.80394 0
0.785398 2.80394 0
0.589049 3.11686 0
0.785398 3.11686 0
0 3.11686 0
0.19635 3.11686 0
0 3.42976 0
0.19635 3.42976 0
0.19635 3.11686 0
0.392699 3.11686 0
0.19635 3.42976 0
0.392699 3.42976 0
0 3.42976 0
0.19635 3.42976 0
0 3.74266 0
0.19635 3.74266 0
0.19635 3.42976 0
0.392699 3.42976 0
0.19635 3.74266 0
[...]
POINT_DATA 20480
VECTORS velocity double
0 0 0
0 0 0
0 -0.00344058 0
-7.26434e-16 -0.00344058 0
0 0 0
0 0 0
-7.26434e-16 -0.00344058 0
-2.79019e-16 -0.00344058 0
0 -0.00344058 0
-7.26434e-16 -0.00344058 0
0 -0.00341129 0
-2.14766e-15 -0.00341129 0
-7.26434e-16 -0.00344058 0
-2.79019e-16 -0.00344058 0
-2.14766e-15 -0.00341129 0
3.46657e-15 -0.00341129 0
0 0 0
0 0 0
-2.79019e-16 -0.00344058 0
1.068e-15 -0.00344058 0
0 0 0
0 0 0
1.068e-15 -0.00344058 0
-1.18428e-15 -0.00344058 0
-2.79019e-16 -0.00344058 0
1.068e-15 -0.00344058 0
3.46657e-15 -0.00341129 0
1.11013e-15 -0.00341129 0
1.068e-15 -0.00344058 0
-1.18428e-15 -0.00344058 0
1.11013e-15 -0.00341129 0
-1.71752e-15 -0.00341129 0
0 -0.00341129 0
-2.14766e-15 -0.00341129 0
0 -0.00341077 0
1.77591e-16 -0.00341077 0
-2.14766e-15 -0.00341129 0
3.46657e-15 -0.00341129 0
1.77591e-16 -0.00341077 0
-4.97678e-15 -0.00341077 0
0 -0.00341077 0
1.77591e-16 -0.00341077 0
0 -0.00323818 0
-3.28984e-15 -0.00323818 0
1.77591e-16 -0.00341077 0
-4.97678e-15 -0.00341077 0
-3.28984e-15 -0.00323818 0
3.81752e-15 -0.00323818 0
3.46657e-15 -0.00341129 0
1.11013e-15 -0.00341129 0
-4.97678e-15 -0.00341077 0
-3.68979e-15 -0.00341077 0
1.11013e-15 -0.00341129 0
-1.71752e-15 -0.00341129 0
-3.68979e-15 -0.00341077 0
-2.3649e-15 -0.00341077 0
-4.97678e-15 -0.00341077 0
-3.68979e-15 -0.00341077 0
3.81752e-15 -0.00323818 0
3.19356e-15 -0.00323818 0
-3.68979e-15 -0.00341077 0
-2.3649e-15 -0.00341077 0
3.19356e-15 -0.00323818 0
-3.87449e-15 -0.00323818 0
0 0 0
0 0 0
-1.18428e-15 -0.00344058 0
-2.12707e-15 -0.00344058 0
0 0 0
0 0 0
-2.12707e-15 -0.00344058 0
2.57485e-15 -0.00344058 0
-1.18428e-15 -0.00344058 0
-2.12707e-15 -0.00344058 0
-1.71752e-15 -0.00341129 0
-1.97418e-15 -0.00341129 0
-2.12707e-15 -0.00344058 0
2.57485e-15 -0.00344058 0
-1.97418e-15 -0.00341129 0
-4.24689e-15 -0.00341129 0
0 0 0
0 0 0
2.57485e-15 -0.00344058 0
4.25171e-16 -0.00344058 0
0 0 0
0 0 0
4.25171e-16 -0.00344058 0
-4.71869e-15 -0.00344058 0
2.57485e-15 -0.00344058 0
4.25171e-16 -0.00344058 0
-4.24689e-15 -0.00341129 0
-4.17968e-15 -0.00341129 0
4.25171e-16 -0.00344058 0
-4.71869e-15 -0.00344058 0
-4.17968e-15 -0.00341129 0
1.56676e-15 -0.00341129 0
-1.71752e-15 -0.00341129 0
-1.97418e-15 -0.00341129 0
-2.3649e-15 -0.00341077 0
-8.16179e-16 -0.00341077 0
-1.97418e-15 -0.00341129 0
-4.24689e-15 -0.00341129 0
-8.16179e-16 -0.00341077 0
1.07391e-15 -0.00341077 0
-2.3649e-15 -0.00341077 0
-8.16179e-16 -0.00341077 0
-3.87449e-15 -0.00323818 0
-1.01539e-14 -0.00323818 0
-8.16179e-16 -0.00341077 0
1.07391e-15 -0.00341077 0
-1.01539e-14 -0.00323818 0
-8.70137e-15 -0.00323818 0
-4.24689e-15 -0.00341129 0
-4.17968e-15 -0.00341129 0
1.07391e-15 -0.00341077 0
-8.70606e-16 -0.00341077 0
-4.17968e-15 -0.00341129 0
1.56676e-15 -0.00341129 0
-8.70606e-16 -0.00341077 0
-5.90296e-15 -0.00341077 0
1.07391e-15 -0.00341077 0
-8.70606e-16 -0.00341077 0
-8.70137e-15 -0.00323818 0
-9.89889e-15 -0.00323818 0
-8.70606e-16 -0.00341077 0
-5.90296e-15 -0.00341077 0
-9.89889e-15 -0.00323818 0
-6.86315e-15 -0.00323818 0
0 -0.00323818 0
-3.28984e-15 -0.00323818 0
0 -0.00311104 0
-6.20201e-16 -0.00311104 0
-3.28984e-15 -0.00323818 0
3.81752e-15 -0.00323818 0
-6.20201e-16 -0.00311104 0
2.02023e-15 -0.00311104 0
0 -0.00311104 0
-6.20201e-16 -0.00311104 0
0 -0.00296894 0
-3.31729e-15 -0.00296894 0
-6.20201e-16 -0.00311104 0
2.02023e-15 -0.00311104 0
-3.31729e-15 -0.00296894 0
-4.36546e-16 -0.00296894 0
3.81752e-15 -0.00323818 0
3.19356e-15 -0.00323818 0
2.02023e-15 -0.00311104 0
-7.74032e-15 -0.00311104 0
3.19356e-15 -0.00323818 0
-3.87449e-15 -0.00323818 0
-7.74032e-15 -0.00311104 0
-1.98779e-15 -0.00311104 0
2.02023e-15 -0.00311104 0
-7.74032e-15 -0.00311104 0
-4.36546e-16 -0.00296894 0
-4.18684e-15 -0.00296894 0
-7.74032e-15 -0.00311104 0
-1.98779e-15 -0.00311104 0
-4.18684e-15 -0.00296894 0
-3.13333e-15 -0.00296894 0
0 -0.00296894 0
-3.31729e-15 -0.00296894 0
0 -0.00283573 0
-3.59967e-16 -0.00283573 0
-3.31729e-15 -0.00296894 0
-4.36546e-16 -0.00296894 0
-3.59967e-16 -0.00283573 0
-1.21384e-14 -0.00283573 0
0 -0.00283573 0
-3.59967e-16 -0.00283573 0
0 -0.00270327 0
-4.79834e-15 -0.00270327 0
-3.59967e-16 -0.00283573 0
-1.21384e-14 -0.00283573 0
-4.79834e-15 -0.00270327 0
5.70739e-15 -0.00270327 0
-4.36546e-16 -0.00296894 0
-4.18684e-15 -0.00296894 0
-1.21384e-14 -0.00283573 0
-1.19823e-14 -0.00283573 0
-4.18684e-15 -0.00296894 0
-3.13333e-15 -0.00296894 0
-1.19823e-14 -0.00283573 0
-1.106e-14 -0.00283573 0
-1.21384e-14 -0.00283573 0
-1.19823e-14 -0.00283573 0
5.70739e-15 -0.00270327 0
2.05014e-15 -0.00270327 0
-1.19823e-14 -0.00283573 0
-1.106e-14 -0.00283573 0
2.05014e-15 -0.00270327 0
-1.64371e-15 -0.00270327 0
-3.87449e-15 -0.00323818 0
-1.01539e-14 -0.00323818 0
-1.98779e-15 -0.00311104 0
3.78339e-16 -0.00311104 0
-1.01539e-14 -0.00323818 0
-8.70137e-15 -0.00323818 0
3.78339e-16 -0.00311104 0
-2.2901e-15 -0.00311104 0
-1.98779e-15 -0.00311104 0
3.78339e-16 -0.00311104 0
-3.13333e-15 -0.00296894 0
-6.65722e-15 -0.00296894 0
3.78339e-16 -0.00311104 0
-2.2901e-15 -0.00311104 0
-6.65722e-15 -0.00296894 0
-6.75858e-15 -0.00296894 0
-8.70137e-15 -0.00323818 0
-9.89889e-15 -0.00323818 0
-2.2901e-15 -0.00311104 0
-8.80981e-15 -0.00311104 0
-9.89889e-15 -0.00323818 0
-6.86315e-15 -0.00323818 0
-8.80981e-15 -0.00311104 0
-5.17455e-16 -0.00311104 0
-2.2901e-15 -0.00311104 0
-8.80981e-15 -0.00311104 0
-6.75858e-15 -0.00296894 0
-5.06557e-15 -0.00296894 0
-8.80981e-15 -0.00311104 0
-5.17455e-16 -0.00311104 0
-5.06557e-15 -0.00296894 0
-1.02011e-14 -0.00296894 0
-3.13333e-15 -0.00296894 0
-6.65722e-15 -0.00296894 0
-1.106e-14 -0.00283573 0
-4.59767e-15 -0.00283573 0
-6.65722e-15 -0.00296894 0
-6.75858e-15 -0.00296894 0
-4.59767e-15 -0.00283573 0
-2.41826e-15 -0.00283573 0
-1.106e-14 -0.00283573 0
-4.59767e-15 -0.00283573 0
-1.64371e-15 -0.00270327 0
-5.92627e-15 -0.00270327 0
-4.59767e-15 -0.00283573 0
-2.41826e-15 -0.00283573 0
-5.92627e-15 -0.00270327 0
4.47451e-16 -0.00270327 0
-6.75858e-15 -0.00296894 0
-5.06557e-15 -0.00296894 0
-2.41826e-15 -0.00283573 0
-1.18557e-14 -0.00283573 0
-5.06557e-15 -0.00296894 0
-1.02011e-14 -0.00296894 0
-1.18557e-14 -0.00283573 0
-2.44527e-17 -0.00283573 0
-2.41826e-15 -0.00283573 0
-1.18557e-14 -0.00283573 0
4.47451e-16 -0.00270327 0
-5.12815e-15 -0.00270327 0
-1.18557e-14 -0.00283573 0
-2.44527e-17 -0.00283573 0
-5.12815e-15 -0.00270327 0
-7.65328e-15 -0.00270327 0
0 0 0
0 0 0
-4.71869e-15 -0.00344058 0
-2.30101e-15 -0.00344058 0
0 0 0
0 0 0
-2.30101e-15 -0.00344058 0
-8.18379e-16 -0.00344058 0
-4.71869e-15 -0.00344058 0
-2.30101e-15 -0.00344058 0
1.56676e-15 -0.00341129 0
1.46624e-15 -0.00341129 0
-2.30101e-15 -0.00344058 0
-8.18379e-16 -0.00344058 0
1.46624e-15 -0.00341129 0
-1.27441e-16 -0.00341129 0
0 0 0
0 0 0
-8.18379e-16 -0.00344058 0
-8.40173e-17 -0.00344058 0
0 0 0
0 0 0
-8.40173e-17 -0.00344058 0
-4.65156e-16 -0.00344058 0
-8.18379e-16 -0.00344058 0
-8.40173e-17 -0.00344058 0
-1.27441e-16 -0.00341129 0
-5.30534e-16 -0.00341129 0
-8.40173e-17 -0.00344058 0
-4.65156e-16 -0.00344058 0
-5.30534e-16 -0.00341129 0
-2.01778e-15 -0.00341129 0
1.56676e-15 -0.00341129 0
1.46624e-15 -0.00341129 0
-5.90296e-15 -0.00341077 0
7.30027e-16 -0.00341077 0
1.46624e-15 -0.00341129 0
-1.27441e-16 -0.00341129 0
7.30027e-16 -0.00341077 0
-8.64895e-16 -0.00341077 0
-5.90296e-15 -0.00341077 0
7.30027e-16 -0.00341077 0
-6.86315e-15 -0.00323818 0
-7.42846e-15 -0.00323818 0
7.30027e-16 -0.00341077 0
-8.64895e-16 -0.00341077 0
-7.42846e-15 -0.00323818 0
-7.35679e-15 -0.00323818 0
-1.27441e-16 -0.00341129 0
-5.30534e-16 -0.00341129 0
-8.64895e-16 -0.00341077 0
-4.0057e-15 -0.00341077 0
-5.30534e-16 -0.00341129 0
-2.01778e-15 -0.00341129 0
-4.0057e-15 -0.00341077 0
2.58335e-16 -0.00341077 0
-8.64895e-16 -0.00341077 0
-4.0057e-15 -0.00341077 0
-7.35679e-15 -0.00323818 0
-2.69293e-16 -0.00323818 0
-4.0057e-15 -0.00341077 0
2.58335e-16 -0.00341077 0
-2.69293e-16 -0.00323818 0
-4.17585e-15 -0.00323818 0
0 0 0
0 0 0
-4.65156e-16 -0.00344058 0
3.14655e-16 -0.00344058 0
0 0 0
0 0 0
3.14655e-16 -0.00344058 0
-1.32264e-15 -0.00344058 0
-4.65156e-16 -0.00344058 0
3.14655e-16 -0.00344058 0
-2.01778e-15 -0.00341129 0
4.97144e-16 -0.00341129 0
3.14655e-16 -0.00344058 0
-1.32264e-15 -0.00344058 0
4.97144e-16 -0.00341129 0
4.18569e-15 -0.00341129 0
0 0 0
0 0 0
-1.32264e-15 -0.00344058 0
-2.86754e-15 -0.00344058 0
0 0 0
0 0 0
-2.86754e-15 -0.00344058 0
-5.10319e-16 -0.00344058 0
-1.32264e-15 -0.00344058 0
-2.86754e-15 -0.00344058 0
4.18569e-15 -0.00341129 0
1.52681e-15 -0.00341129 0
-2.86754e-15 -0.00344058 0
-5.10319e-16 -0.00344058 0
1.52681e-15 -0.00341129 0
-2.54907e-16 -0.00341129 0
-2.01778e-15 -0.00341129 0
4.97144e-16 -0.00341129 0
2.58335e-16 -0.00341077 0
-5.04305e-15 -0.00341077 0
4.97144e-16 -0.00341129 0
4.18569e-15 -0.00341129 0
-5.04305e-15 -0.00341077 0
-2.06271e-15 -0.00341077 0
2.58335e-16 -0.00341077 0
-5.04305e-15 -0.00341077 0
-4.17585e-15 -0.00323818 0
-5.92504e-15 -0.00323818 0
-5.04305e-15 -0.00341077 0
-2.06271e-15 -0.00341077 0
-5.92504e-15 -0.00323818 0
-3.65184e-15 -0.00323818 0
4.18569e-15 -0.00341129 0
1.52681e-15 -0.00341129 0
-2.06271e-15 -0.00341077 0
-1.82593e-15 -0.00341077 0
1.52681e-15 -0.00341129 0
-2.54907e-16 -0.00341129 0
-1.82593e-15 -0.00341077 0
1.12503e-15 -0.00341077 0
-2.06271e-15 -0.00341077 0
-1.82593e-15 -0.00341077 0
-3.65184e-15 -0.00323818 0
1.06817e-15 -0.00323818 0
-1.82593e-15 -0.00341077 0
1.12503e-15 -0.00341077 0
1.06817e-15 -0.00323818 0
-7.36851e-15 -0.00323818 0
-6.86315e-15 -0.00323818 0
-7.42846e-15 -0.00323818 0
-5.17455e-16 -0.00311104 0
-4.17134e-15 -0.00311104 0
-7.42846e-15 -0.00323818 0
-7.35679e-15 -0.00323818 0
-4.17134e-15 -0.00311104 0
-1.01625e-14 -0.00311104 0
-5.17455e-16 -0.00311104 0
-4.17134e-15 -0.00311104 0
-1.02011e-14 -0.00296894 0
-3.85352e-15 -0.00296894 0
-4.17134e-15 -0.00311104 0
-1.01625e-14 -0.00311104 0
-3.85352e-15 -0.00296894 0
-2.7569e-15 -0.00296894 0
-7.35679e-15 -0.00323818 0
-2.69293e-16 -0.00323818 0
-1.01625e-14 -0.00311104 0
-1.03055e-14 -0.00311104 0
-2.69293e-16 -0.00323818 0
-4.17585e-15 -0.00323818 0
-1.03055e-14 -0.00311104 0
-5.01581e-15 -0.00311104 0
-1.01625e-14 -0.00311104 0
-1.03055e-14 -0.00311104 0
-2.7569e-15 -0.00296894 0
-4.42029e-15 -0.00296894 0
-1.03055e-14 -0.00311104 0
-5.01581e-15 -0.00311104 0
-4.42029e-15 -0.00296894 0
-1.11962e-14 -0.00296894 0
-1.02011e-14 -0.00296894 0
-3.85352e-15 -0.00296894 0
-2.44527e-17 -0.00283573 0
-8.49878e-15 -0.00283573 0
-3.85352e-15 -0.00296894 0
-2.7569e-15 -0.00296894 0
-8.49878e-15 -0.00283573 0
-1.10444e-14 -0.00283573 0
-2.44527e-17 -0.00283573 0
-8.49878e-15 -0.00283573 0
-7.65328e-15 -0.00270327 0
-4.41146e-15 -0.00270327 0
-8.49878e-15 -0.00283573 0
-1.10444e-14 -0.00283573 0
-4.41146e-15 -0.00270327 0
-6.88024e-15 -0.00270327 0
-2.7569e-15 -0.00296894 0
-4.42029e-15 -0.00296894 0
-1.10444e-14 -0.00283573 0
-5.02223e-15 -0.00283573 0
-4.42029e-15 -0.00296894 0
-1.11962e-14 -0.00296894 0
-5.02223e-15 -0.00283573 0
-1.64127e-15 -0.00283573 0
-1.10444e-14 -0.00283573 0
-5.02223e-15 -0.00283573 0
-6.88024e-15 -0.00270327 0
-1.37211e-14 -0.00270327 0
-5.02223e-15 -0.00283573 0
-1.64127e-15 -0.00283573 0
-1.37211e-14 -0.00270327 0
-7.36436e-15 -0.00270327 0
-4.17585e-15 -0.00323818 0
-5.92504e-15 -0.00323818 0
-5.01581e-15 -0.00311104 0
-6.94074e-15 -0.00311104 0
-5.92504e-15 -0.00323818 0
-3.65184e-15 -0.00323818 0
-6.94074e-15 -0.00311104 0
-4.83979e-15 -0.00311104 0
-5.01581e-15 -0.00311104 0
-6.94074e-15 -0.00311104 0
-1.11962e-14 -0.00296894 0
-7.79032e-15 -0.00296894 0
-6.94074e-15 -0.00311104 0
-4.83979e-15 -0.00311104 0
-7.79032e-15 -0.00296894 0
-1.11536e-14 -0.00296894 0
-3.65184e-15 -0.00323818 0
1.06817e-15 -0.00323818 0
-4.83979e-15 -0.00311104 0
-3.98513e-15 -0.00311104 0
1.06817e-15 -0.00323818 0
-7.36851e-15 -0.00323818 0
-3.98513e-15 -0.00311104 0
-7.90164e-15 -0.00311104 0
-4.83979e-15 -0.00311104 0
-3.98513e-15 -0.00311104 0
-1.11536e-14 -0.00296894 0
-1.26998e-14 -0.00296894 0
-3.98513e-15 -0.00311104 0
-7.90164e-15 -0.00311104 0
-1.26998e-14 -0.00296894 0
-1.50709e-14 -0.00296894 0
-1.11962e-14 -0.00296894 0
-7.79032e-15 -0.00296894 0
-1.64127e-15 -0.00283573 0
-1.07899e-14 -0.00283573 0
-7.79032e-15 -0.00296894 0
-1.11536e-14 -0.00296894 0
-1.07899e-14 -0.00283573 0
-1.1508e-14 -0.00283573 0
-1.64127e-15 -0.00283573 0
-1.07899e-14 -0.00283573 0
-7.36436e-15 -0.00270327 0
-9.89914e-15 -0.00270327 0
-1.07899e-14 -0.00283573 0
-1.1508e-14 -0.00283573 0
-9.89914e-15 -0.00270327 0
-7.08145e-15 -0.00270327 0
-1.11536e-14 -0.00296894 0
-1.26998e-14 -0.00296894 0
-1.1508e-14 -0.00283573 0
-6.40472e-15 -0.00283573 0
-1.26998e-14 -0.00296894 0
-1.50709e-14 -0.00296894 0
-6.40472e-15 -0.00283573 0
-1.58599e-14 -0.00283573 0
-1.1508e-14 -0.00283573 0
-6.40472e-15 -0.00283573 0
-7.08145e-15 -0.00270327 0
-3.98087e-15 -0.00270327 0
-6.40472e-15 -0.00283573 0
-1.58599e-14 -0.00283573 0
-3.98087e-15 -0.00270327 0
-1.11684e-14 -0.00270327 0
0 -0.00270327 0
-4.79834e-15 -0.00270327 0
0 -0.00257435 0
6.75684e-15 -0.00257435 0
-4.79834e-15 -0.00270327 0
5.70739e-15 -0.00270327 0
6.75684e-15 -0.00257435 0
3.66e-16 -0.00257435 0
0 -0.00257435 0
6.75684e-15 -0.00257435 0
0 -0.00244798 0
4.77455e-15 -0.00244798 0
6.75684e-15 -0.00257435 0
3.66e-16 -0.00257435 0
4.77455e-15 -0.00244798 0
9.03701e-15 -0.00244798 0
5.70739e-15 -0.00270327 0
2.05014e-15 -0.00270327 0
3.66e-16 -0.00257435 0
-4.04189e-15 -0.00257435 0
2.05014e-15 -0.00270327 0
-1.64371e-15 -0.00270327 0
-4.04189e-15 -0.00257435 0
2.29158e-15 -0.00257435 0
3.66e-16 -0.00257435 0
-4.04189e-15 -0.00257435 0
9.03701e-15 -0.00244798 0
-4.56227e-15 -0.00244798 0
-4.04189e-15 -0.00257435 0
2.29158e-15 -0.00257435 0
-4.56227e-15 -0.00244798 0
1.08874e-14 -0.00244798 0
0 -0.00244798 0
4.77455e-15 -0.00244798 0
0 -0.00232444 0
-5.49414e-15 -0.00232444 0
4.77455e-15 -0.00244798 0
9.03701e-15 -0.00244798 0
-5.49414e-15 -0.00232444 0
1.2667e-15 -0.00232444 0
0 -0.00232444 0
-5.49414e-15 -0.00232444 0
0 -0.00220358 0
7.33006e-15 -0.00220358 0
-5.49414e-15 -0.00232444 0
1.2667e-15 -0.00232444 0
7.33006e-15 -0.00220358 0
2.25515e-15 -0.00220358 0
9.03701e-15 -0.00244798 0
-4.56227e-15 -0.00244798 0
1.2667e-15 -0.00232444 0
-4.2286e-15 -0.00232444 0
-4.56227e-15 -0.00244798 0
1.08874e-14 -0.00244798 0
-4.2286e-15 -0.00232444 0
2.09464e-15 -0.00232444 0
1.2667e-15 -0.00232444 0
-4.2286e-15 -0.00232444 0
2.25515e-15 -0.00220358 0
7.12759e-16 -0.00220358 0
-4.2286e-15 -0.00232444 0
2.09464e-15 -0.00232444 0
7.12759e-16 -0.00220358 0
4.30821e-17 -0.00220358 0
-1.64371e-15 -0.00270327 0
-5.92627e-15 -0.00270327 0
2.29158e-15 -0.00257435 0
-5.61038e-15 -0.00257435 0
-5.92627e-15 -0.00270327 0
4.47451e-16 -0.00270327 0
-5.61038e-15 -0.00257435 0
-6.00568e-15 -0.00257435 0
2.29158e-15 -0.00257435 0
-5.61038e-15 -0.00257435 0
1.08874e-14 -0.00244798 0
1.84205e-15 -0.00244798 0
-5.61038e-15 -0.00257435 0
-6.00568e-15 -0.00257435 0
1.84205e-15 -0.00244798 0
-3.23714e-15 -0.00244798 0
4.47451e-16 -0.00270327 0
-5.12815e-15 -0.00270327 0
-6.00568e-15 -0.00257435 0
4.28977e-16 -0.00257435 0
-5.12815e-15 -0.00270327 0
-7.65328e-15 -0.00270327 0
4.28977e-16 -0.00257435 0
4.29271e-15 -0.00257435 0
-6.00568e-15 -0.00257435 0
4.28977e-16 -0.00257435 0
-3.23714e-15 -0.00244798 0
-3.84227e-15 -0.00244798 0
4.28977e-16 -0.00257435 0
4.29271e-15 -0.00257435 0
-3.84227e-15 -0.00244798 0
-4.24771e-15 -0.00244798 0
1.08874e-14 -0.00244798 0
1.84205e-15 -0.00244798 0
2.09464e-15 -0.00232444 0
1.77005e-15 -0.00232444 0
1.84205e-15 -0.00244798 0
-3.23714e-15 -0.00244798 0
1.77005e-15 -0.00232444 0
1.70635e-15 -0.00232444 0
2.09464e-15 -0.00232444 0
1.77005e-15 -0.00232444 0
4.30821e-17 -0.00220358 0
5.86611e-16 -0.00220358 0
1.77005e-15 -0.00232444 0
1.70635e-15 -0.00232444 0
5.86611e-16 -0.00220358 0
-7.0596e-16 -0.00220358 0
-3.23714e-15 -0.00244798 0
-3.84227e-15 -0.00244798 0
1.70635e-15 -0.00232444 0
1.46512e-16 -0.00232444 0
-3.84227e-15 -0.00244798 0
-4.24771e-15 -0.00244798 0
1.46512e-16 -0.00232444 0
-9.27706e-15 -0.00232444 0
1.70635e-15 -0.00232444 0
1.46512e-16 -0.00232444 0
-7.0596e-16 -0.00220358 0
-2.33083e-15 -0.00220358 0
1.46512e-16 -0.00232444 0
-9.27706e-15 -0.00232444 0
-2.33083e-15 -0.00220358 0
-1.65786e-15 -0.00220358 0
0 -0.00220358 0
7.33006e-15 -0.00220358 0
0 -0.00208538 0
-1.27155e-14 -0.00208538 0
7.33006e-15 -0.00220358 0
2.25515e-15 -0.00220358 0
-1.27155e-14 -0.00208538 0
-1.76942e-16 -0.00208538 0
0 -0.00208538 0
-1.27155e-14 -0.00208538 0
0 -0.0019698 0
1.07857e-15 -0.0019698 0
-1.27155e-14 -0.00208538 0
-1.76942e-16 -0.00208538 0
1.07857e-15 -0.0019698 0
-3.63018e-15 -0.0019698 0
2.25515e-15 -0.00220358 0
7.12759e-16 -0.00220358 0
-1.76942e-16 -0.00208538 0
-1.7106e-15 -0.00208538 0
7.12759e-16 -0.00220358 0
4.30821e-17 -0.00220358 0
-1.7106e-15 -0.00208538 0
-3.00609e-15 -0.00208538 0
-1.76942e-16 -0.00208538 0
-1.7106e-15 -0.00208538 0
-3.63018e-15 -0.0019698 0
-4.7191e-15 -0.0019698 0
-1.7106e-15 -0.00208538 0
-3.00609e-15 -0.00208538 0
-4.7191e-15 -0.0019698 0
-1.66678e-14 -0.0019698 0
0 -0.0019698 0
1.07857e-15 -0.0019698 0
0 -0.00185676 0
-4.41907e-15 -0.00185676 0
1.07857e-15 -0.0019698 0
-3.63018e-15 -0.0019698 0
-4.41907e-15 -0.00185676 0
-1.52522e-14 -0.00185676 0
0 -0.00185676 0
-4.41907e-15 -0.00185676 0
0 -0.00174627 0
-5.7137e-15 -0.00174627 0
-4.41907e-15 -0.00185676 0
-1.52522e-14 -0.00185676 0
-5.7137e-15 -0.00174627 0
5.50817e-16 -0.00174627 0
-3.63018e-15 -0.0019698 0
-4.7191e-15 -0.0019698 0
-1.52522e-14 -0.00185676 0
-1.19054e-14 -0.00185676 0
-4.7191e-15 -0.0019698 0
-1.66678e-14 -0.0019698 0
-1.19054e-14 -0.00185676 0
-1.06612e-14 -0.00185676 0
-1.52522e-14 -0.00185676 0
-1.19054e-14 -0.00185676 0
5.50817e-16 -0.00174627 0
1.9031e-15 -0.00174627 0
-1.19054e-14 -0.00185676 0
-1.06612e-14 -0.00185676 0
1.9031e-15 -0.00174627 0
8.10331e-15 -0.00174627 0
4.30821e-17 -0.00220358 0
5.86611e-16 -0.00220358 0
-3.00609e-15 -0.00208538 0
3.62424e-15 -0.00208538 0
5.86611e-16 -0.00220358 0
-7.0596e-16 -0.00220358 0
3.62424e-15 -0.00208538 0
3.97152e-15 -0.00208538 0
-3.00609e-15 -0.00208538 0
3.62424e-15 -0.00208538 0
-1.66678e-14 -0.0019698 0
-5.84511e-15 -0.0019698 0
3.62424e-15 -0.00208538 0
3.97152e-15 -0.00208538 0
-5.84511e-15 -0.0019698 0
-1.02618e-14 -0.0019698 0
-7.0596e-16 -0.00220358 0
-2.33083e-15 -0.00220358 0
3.97152e-15 -0.00208538 0
2.33642e-15 -0.00208538 0
-2.33083e-15 -0.00220358 0
-1.65786e-15 -0.00220358 0
2.33642e-15 -0.00208538 0
-1.92015e-16 -0.00208538 0
3.97152e-15 -0.00208538 0
2.33642e-15 -0.00208538 0
-1.02618e-14 -0.0019698 0
-7.21919e-15 -0.0019698 0
2.33642e-15 -0.00208538 0
-1.92015e-16 -0.00208538 0
-7.21919e-15 -0.0019698 0
-8.15385e-15 -0.0019698 0
-1.66678e-14 -0.0019698 0
-5.84511e-15 -0.0019698 0
-1.06612e-14 -0.00185676 0
-1.14477e-15 -0.00185676 0
-5.84511e-15 -0.0019698 0
-1.02618e-14 -0.0019698 0
-1.14477e-15 -0.00185676 0
-1.60931e-15 -0.00185676 0
-1.06612e-14 -0.00185676 0
-1.14477e-15 -0.00185676 0
8.10331e-15 -0.00174627 0
-2.75657e-15 -0.00174627 0
-1.14477e-15 -0.00185676 0
-1.60931e-15 -0.00185676 0
-2.75657e-15 -0.00174627 0
-7.24285e-15 -0.00174627 0
-1.02618e-14 -0.0019698 0
-7.21919e-15 -0.0019698 0
-1.60931e-15 -0.00185676 0
-2.13782e-15 -0.00185676 0
-7.21919e-15 -0.0019698 0
-8.15385e-15 -0.0019698 0
-2.13782e-15 -0.00185676 0
-7.32035e-15 -0.00185676 0
-1.60931e-15 -0.00185676 0
-2.13782e-15 -0.00185676 0
-7.24285e-15 -0.00174627 0
-9.46296e-15 -0.00174627 0
-2.13782e-15 -0.00185676 0
-7.32035e-15 -0.00185676 0
-9.46296e-15 -0.00174627 0
-5.19172e-15 -0.00174627 0
-7.65328e-15 -0.00270327 0
-4.41146e-15 -0.00270327 0
4.29271e-15 -0.00257435 0
-6.88397e-15 -0.00257435 0
-4.41146e-15 -0.00270327 0
-6.88024e-15 -0.00270327 0
-6.88397e-15 -0.00257435 0
-3.30475e-15 -0.00257435 0
4.29271e-15 -0.00257435 0
-6.88397e-15 -0.00257435 0
-4.24771e-15 -0.00244798 0
-1.55292e-15 -0.00244798 0
-6.88397e-15 -0.00257435 0
-3.30475e-15 -0.00257435 0
-1.55292e-15 -0.00244798 0
-6.62598e-15 -0.00244798 0
-6.88024e-15 -0.00270327 0
-1.37211e-14 -0.00270327 0
-3.30475e-15 -0.00257435 0