# vtk DataFile Version 3.0
#This file was generated by the deal.II library on 2018/10/16 at 1:14:24
ASCII
DATASET UNSTRUCTURED_GRID

POINTS 20480 double
0 0 0
0.19635 0 0
0 0.288335 0
0.19635 0.288335 0
0.19635 0 0
0.392699 0 0
0.19635 0.288335 0
0.392699 0.288335 0
0 0.288335 0
0.19635 0.288335 0
0 0.601011 0
0.19635 0.601011 0
0.19635 0.288335 0
0.392699 0.288335 0
0.19635 0.601011 0
0.392699 0.601011 0
0.392699 0 0
0.589049 0 0
0.392699 0.288335 0
0.589049 0.288335 0
0.589049 0 0
0.785398 0 0
0.589049 0.288335 0
0.785398 0.288335 0
0.392699 0.288335 0
0.589049 0.288335 0
0.392699 0.601011 0
0.589049 0.601011 0
0.589049 0.288335 0
0.785398 0.288335 0
0.589049 0.601011 0
0.785398 0.601011 0
0 0.601011 0
0.19635 0.601011 0
0 0.913495 0
0.19635 0.913495 0
0.19635 0.601011 0
0.392699 0.601011 0
0.19635 0.913495 0
0.392699 0.913495 0
0 0.913495 0
0.19635 0.913495 0
0 1.2272 0
0.19635 1.2272 0
0.19635 0.913495 0
0.392699 0.913495 0
0.19635 1.2272 0
0.392699 1.2272 0
0.392699 0.601011 0
0.589049 0.601011 0
0.392699 0.913495 0
0.589049 0.913495 0
0.589049 0.601011 0
0.785398 0.601011 0
0.589049 0.913495 0
0.785398 0.913495 0
0.392699 0.913495 0
0.589049 0.913495 0
0.392699 1.2272 0
0.589049 1.2272 0
0.589049 0.913495 0
0.785398 0.913495 0
0.589049 1.2272 0
0.785398 1.2272 0
0.785398 0 0
0.981748 0 0
0.785398 0.288335 0
0.981748 0.288335 0
0.981748 0 0
1.1781 0 0
0.981748 0.288335 0
1.1781 0.288335 0
0.785398 0.288335 0
0.981748 0.288335 0
0.785398 0.601011 0
0.981748 0.601011 0
0.981748 0.288335 0
1.1781 0.288335 0
0.981748 0.601011 0
1.1781 0.601011 0
1.1781 0 0
1.37445 0 0
1.1781 0.288335 0
1.37445 0.288335 0
1.37445 0 0
1.5708 0 0
1.37445 0.288335 0
1.5708 0.288335 0
1.1781 0.288335 0
1.37445 0.288335 0
1.1781 0.601011 0
1.37445 0.601011 0
1.37445 0.288335 0
1.5708 0.288335 0
1.37445 0.601011 0
1.5708 0.601011 0
0.785398 0.601011 0
0.981748 0.601011 0
0.785398 0.913495 0
0.981748 0.913495 0
0.981748 0.601011 0
1.1781 0.601011 0
0.981748 0.913495 0
1.1781 0.913495 0
0.785398 0.913495 0
0.981748 0.913495 0
0.785398 1.2272 0
0.981748 1.2272 0
0.981748 0.913495 0
1.1781 0.913495 0
0.981748 1.2272 0
1.1781 1.2272 0
1.1781 0.601011 0
1.37445 0.601011 0
1.1781 0.913495 0
1.37445 0.913495 0
1.37445 0.601011 0
1.5708 0.601011 0
1.37445 0.913495 0
1.5708 0.913495 0
1.1781 0.913495 0
1.37445 0.913495 0
1.1781 1.2272 0
1.37445 1.2272 0
1.37445 0.913495 0
1.5708 0.913495 0
1.37445 1.2272 0
1.5708 1.2272 0
0 1.2272 0
0.19635 1.2272 0
0 1.54059 0
0.19635 1.54059 0
0.19635 1.2272 0
0.392699 1.2272 0
0.19635 1.54059 0
0.392699 1.54059 0
0 1.54059 0
0.19635 1.54059 0
0 1.85409 0
0.19635 1.85409 0
0.19635 1.54059 0
0.392699 1.54059 0
0.19635 1.85409 0
0.392699 1.85409 0
0.392699 1.2272 0
0.589049 1.2272 0
0.392699 1.54059 0
0.589049 1.54059 0
0.589049 1.2272 0
0.785398 1.2272 0
0.589049 1.54059 0
0.785398 1.54059 0
0.392699 1.54059 0
0.589049 1.54059 0
0.392699 1.85409 0
0.589049 1.85409 0
0.589049 1.54059 0
0.785398 1.54059 0
0.589049 1.85409 0
0.785398 1.85409 0
0 1.85409 0
0.19635 1.85409 0
0 2.16752 0
0.19635 2.16752 0
0.19635 1.85409 0
0.392699 1.85409 0
0.19635 2.16752 0
0.392699 2.16752 0
0 2.16752 0
0.19635 2.16752 0
0 2.48095 0
0.19635 2.48095 0
0.19635 2.16752 0
0.392699 2.16752 0
0.19635 2.48095 0
0.392699 2.48095 0
0.392699 1.85409 0
0.589049 1.85409 0
0.392699 2.16752 0
0.589049 2.16752 0
0.589049 1.85409 0
0.785398 1.85409 0
0.589049 2.16752 0
0.785398 2.16752 0
0.392699 2.16752 0
0.589049 2.16752 0
0.392699 2.48095 0
0.589049 2.48095 0
0.589049 2.16752 0
0.785398 2.16752 0
0.589049 2.48095 0
0.785398 2.48095 0
0.785398 1.2272 0
0.981748 1.2272 0
0.785398 1.54059 0
0.981748 1.54059 0
0.981748 1.2272 0
1.1781 1.2272 0
0.981748 1.54059 0
1.1781 1.54059 0
0.785398 1.54059 0
0.981748 1.54059 0
0.785398 1.85409 0
0.981748 1.85409 0
0.981748 1.54059 0
1.1781 1.54059 0
0.981748 1.85409 0
1.1781 1.85409 0
1.1781 1.2272 0
1.37445 1.2272 0
1.1781 1.54059 0
1.37445 1.54059 0
1.37445 1.2272 0
1.5708 1.2272 0
1.37445 1.54059 0
1.5708 1.54059 0
1.1781 1.54059 0
1.37445 1.54059 0
1.1781 1.85409 0
1.37445 1.85409 0
1.37445 1.54059 0
1.5708 1.54059 0
1.37445 1.85409 0
1.5708 1.85409 0
0.785398 1.85409 0
0.981748 1.85409 0
0.785398 2.16752 0
0.981748 2.16752 0
0.981748 1.85409 0
1.1781 1.85409 0
0.981748 2.16752 0
1.1781 2.16752 0
0.785398 2.16752 0
0.981748 2.16752 0
0.785398 2.48095 0
0.981748 2.48095 0
0.981748 2.16752 0
1.1781 2.16752 0
0.981748 2.48095 0
1.1781 2.48095 0
1.1781 1.85409 0
1.37445 1.85409 0
1.1781 2.16752 0
1.37445 2.16752 0
1.37445 1.85409 0
1.5708 1.85409 0
1.37445 2.16752 0
1.5708 2.16752 0
1.1781 2.16752 0
1.37445 2.16752 0
1.1781 2.48095 0
1.37445 2.48095 0
1.37445 2.16752 0
1.5708 2.16752 0
1.37445 2.48095 0
1.5708 2.48095 0
1.5708 0 0
1.76715 0 0
1.5708 0.288335 0
1.76715 0.288335 0
1.76715 0 0
1.9635 0 0
1.76715 0.288335 0
1.9635 0.288335 0
1.5708 0.288335 0
1.76715 0.288335 0
1.5708 0.601011 0
1.76715 0.601011 0
1.76715 0.288335 0
1.9635 0.288335 0
1.76715 0.601011 0
1.9635 0.601011 0
1.9635 0 0
2.15984 0 0
1.9635 0.288335 0
2.15984 0.288335 0
2.15984 0 0
2.35619 0 0
2.15984 0.288335 0
2.35619 0.288335 0
1.9635 0.288335 0
2.15984 0.288335 0
1.9635 0.601011 0
2.15984 0.601011 0
2.15984 0.288335 0
2.35619 0.288335 0
2.15984 0.601011 0
2.35619 0.601011 0
1.5708 0.601011 0
1.76715 0.601011 0
1.5708 0.913495 0
1.76715 0.913495 0
1.76715 0.601011 0
1.9635 0.601011 0
1.76715 0.913495 0
1.9635 0.913495 0
1.5708 0.913495 0
1.76715 0.913495 0
1.5708 1.2272 0
1.76715 1.2272 0
1.76715 0.913495 0
1.9635 0.913495 0
1.76715 1.2272 0
1.9635 1.2272 0
1.9635 0.601011 0
2.15984 0.601011 0
1.9635 0.913495 0
2.15984 0.913495 0
2.15984 0.601011 0
2.35619 0.601011 0
2.15984 0.913495 0
2.35619 0.913495 0
1.9635 0.913495 0
2.15984 0.913495 0
1.9635 1.2272 0
2.15984 1.2272 0
2.15984 0.913495 0
2.35619 0.913495 0
2.15984 1.2272 0
2.35619 1.2272 0
2.35619 0 0
2.55254 0 0
2.35619 0.288335 0
2.55254 0.288335 0
2.55254 0 0
2.74889 0 0
2.55254 0.288335 0
2.74889 0.288335 0
2.35619 0.288335 0
2.55254 0.288335 0
2.35619 0.601011 0
2.55254 0.601011 0
2.55254 0.288335 0
2.74889 0.288335 0
2.55254 0.601011 0
2.74889 0.601011 0
2.74889 0 0
2.94524 0 0
2.74889 0.288335 0
2.94524 0.288335 0
2.94524 0 0
3.14159 0 0
2.94524 0.288335 0
3.14159 0.288335 0
2.74889 0.288335 0
2.94524 0.288335 0
2.74889 0.601011 0
2.94524 0.601011 0
2.94524 0.288335 0
3.14159 0.288335 0
2.94524 0.601011 0
3.14159 0.601011 0
2.35619 0.601011 0
2.55254 0.601011 0
2.35619 0.913495 0
2.55254 0.913495 0
2.55254 0.601011 0
2.74889 0.601011 0
2.55254 0.913495 0
2.74889 0.913495 0
2.35619 0.913495 0
2.55254 0.913495 0
2.35619 1.2272 0
2.55254 1.2272 0
2.55254 0.913495 0
2.74889 0.913495 0
2.55254 1.2272 0
2.74889 1.2272 0
2.74889 0.601011 0
2.94524 0.601011 0
2.74889 0.913495 0
2.94524 0.913495 0
2.94524 0.601011 0
3.14159 0.601011 0
2.94524 0.913495 0
3.14159 0.913495 0
2.74889 0.913495 0
2.94524 0.913495 0
2.74889 1.2272 0
2.94524 1.2272 0
2.94524 0.913495 0
3.14159 0.913495 0
2.94524 1.2272 0
3.14159 1.2272 0
1.5708 1.2272 0
1.76715 1.2272 0
1.5708 1.54059 0
1.76715 1.54059 0
1.76715 1.2272 0
1.9635 1.2272 0
1.76715 1.54059 0
1.9635 1.54059 0
1.5708 1.54059 0
1.76715 1.54059 0
1.5708 1.85409 0
1.76715 1.85409 0
1.76715 1.54059 0
1.9635 1.54059 0
1.76715 1.85409 0
1.9635 1.85409 0
1.9635 1.2272 0
2.15984 1.2272 0
1.9635 1.54059 0
2.15984 1.54059 0
2.15984 1.2272 0
2.35619 1.2272 0
2.15984 1.54059 0
2.35619 1.54059 0
1.9635 1.54059 0
2.15984 1.54059 0
1.9635 1.85409 0
2.15984 1.85409 0
2.15984 1.54059 0
2.35619 1.54059 0
2.15984 1.85409 0
2.35619 1.85409 0
1.5708 1.85409 0
1.76715 1.85409 0
1.5708 2.16752 0
1.76715 2.16752 0
1.76715 1.85409 0
1.9635 1.85409 0
1.76715 2.16752 0
1.9635 2.16752 0
1.5708 2.16752 0
1.76715 2.16752 0
1.5708 2.48095 0
1.76715 2.48095 0
1.76715 2.16752 0
1.9635 2.16752 0
1.76715 2.48095 0
1.9635 2.48095 0
1.9635 1.85409 0
2.15984 1.85409 0
1.9635 2.16752 0
2.15984 2.16752 0
2.15984 1.85409 0
2.35619 1.85409 0
2.15984 2.16752 0
2.35619 2.16752 0
1.9635 2.16752 0
2.15984 2.16752 0
1.9635 2.48095 0
2.15984 2.48095 0
2.15984 2.16752 0
2.35619 2.16752 0
2.15984 2.48095 0
2.35619 2.48095 0
2.35619 1.2272 0
2.55254 1.2272 0
2.35619 1.54059 0
2.55254 1.54059 0
2.55254 1.2272 0
2.74889 1.2272 0
2.55254 1.54059 0
2.74889 1.54059 0
2.35619 1.54059 0
2.55254 1.54059 0
2.35619 1.85409 0
2.55254 1.85409 0
2.55254 1.54059 0
2.74889 1.54059 0
2.55254 1.85409 0
2.74889 1.85409 0
2.74889 1.2272 0
2.94524 1.2272 0
2.74889 1.54059 0
2.94524 1.54059 0
2.94524 1.2272 0
3.14159 1.2272 0
2.94524 1.54059 0
3.14159 1.54059 0
2.74889 1.54059 0
2.94524 1.54059 0
2.74889 1.85409 0
2.94524 1.85409 0
2.94524 1.54059 0
3.14159 1.54059 0
2.94524 1.85409 0
3.14159 1.85409 0
2.35619 1.85409 0
2.55254 1.85409 0
2.35619 2.16752 0
2.55254 2.16752 0
2.55254 1.85409 0
2.74889 1.85409 0
2.55254 2.16752 0
2.74889 2.16752 0
2.35619 2.16752 0
2.55254 2.16752 0
2.35619 2.48095 0
2.55254 2.48095 0
2.55254 2.16752 0
2.74889 2.16752 0
2.55254 2.48095 0
2.74889 2.48095 0
2.74889 1.85409 0
2.94524 1.85409 0
2.74889 2.16752 0
2.94524 2.16752 0
2.94524 1.85409 0
3.14159 1.85409 0
2.94524 2.16752 0
3.14159 2.16752 0
2.74889 2.16752 0
2.94524 2.16752 0
2.74889 2.48095 0
2.94524 2.48095 0
2.94524 2.16752 0
3.14159 2.16752 0
2.94524 2.48095 0
3.14159 2.48095 0
0 2.48095 0
0.19635 2.48095 0
0 2.79435 0
0.19635 2.79435 0
0.19635 2.48095 0
0.392699 2.48095 0
0.19635 2.79435 0
0.392699 2.79435 0
0 2.79435 0
0.19635 2.79435 0
0 3.10774 0
0.19635 3.10774 0
0.19635 2.79435 0
0.392699 2.79435 0
0.19635 3.10774 0
0.392699 3.10774 0
0.392699 2.48095 0
0.589049 2.48095 0
0.392699 2.79435 0
0.589049 2.79435 0
0.589049 2.48095 0
0.785398 2.48095 0
0.589049 2.79435 0
0.785398 2.79435 0
0.392699 2.79435 0
0.589049 2.79435 0
0.392699 3.10774 0
0.589049 3.10774 0
0.589049 2.79435 0
0.785398 2.79435 0
0.589049 3.10774 0
0.785398 3.10774 0
0 3.10774 0
0.19635 3.10774 0
0 3.42111 0
0.19635 3.42111 0
0.19635 3.10774 0
0.392699 3.10774 0
0.19635 3.42111 0
0.392699 3.42111 0
0 3.42111 0
0.19635 3.42111 0
0 3.73446 0
[...]
POINT_DATA 20480
VECTORS uf double
0 1 0
-7.2722e-16 1 0
0 1.00001 0
5.44261e-15 1.00001 0
-7.2722e-16 1 0
-5.75378e-15 1 0
5.44261e-15 1.00001 0
2.14557e-15 1.00001 0
0 1.00001 0
-2.01409e-14 1.00001 0
0 1.00001 0
-1.08907e-15 1.00001 0
-2.01409e-14 1.00001 0
4.79134e-15 1.00001 0
-1.08907e-15 1.00001 0
7.40831e-15 1.00001 0
-5.75378e-15 1 0
4.92716e-15 1 0
2.14557e-15 1.00001 0
4.31607e-15 1.00001 0
4.92716e-15 1 0
6.90002e-15 1 0
4.31607e-15 1.00001 0
-1.20455e-15 1.00001 0
4.79134e-15 1.00001 0
-8.93175e-15 1.00001 0
7.40831e-15 1.00001 0
1.26839e-15 1.00001 0
-8.93175e-15 1.00001 0
1.58494e-15 1.00001 0
1.26839e-15 1.00001 0
-8.04862e-15 1.00001 0
0 1.00001 0
2.4147e-14 1.00001 0
0 1.00001 0
2.50058e-14 1.00001 0
2.4147e-14 1.00001 0
-6.0061e-15 1.00001 0
2.50058e-14 1.00001 0
-9.13423e-15 1.00001 0
0 1.00001 0
-1.43325e-14 1.00001 0
0 1.00001 0
-7.50371e-15 1.00001 0
-1.43325e-14 1.00001 0
-2.42764e-15 1.00001 0
-7.50371e-15 1.00001 0
1.61218e-14 1.00001 0
-6.0061e-15 1.00001 0
8.61073e-15 1.00001 0
-9.13423e-15 1.00001 0
-1.50274e-14 1.00001 0
8.61073e-15 1.00001 0
2.18145e-15 1.00001 0
-1.50274e-14 1.00001 0
-3.97025e-15 1.00001 0
-2.42764e-15 1.00001 0
5.44419e-15 1.00001 0
1.61218e-14 1.00001 0
4.61657e-15 1.00001 0
5.44419e-15 1.00001 0
-1.88288e-15 1.00001 0
4.61657e-15 1.00001 0
1.0967e-14 1.00001 0
6.90002e-15 1 0
2.53717e-16 1 0
-1.20455e-15 1.00001 0
9.21483e-15 1.00001 0
2.53717e-16 1 0
1.15306e-15 1 0
9.21483e-15 1.00001 0
1.5344e-14 1.00001 0
1.58494e-15 1.00001 0
-8.75431e-15 1.00001 0
-8.04862e-15 1.00001 0
7.74395e-16 1.00001 0
-8.75431e-15 1.00001 0
-1.1401e-14 1.00001 0
7.74395e-16 1.00001 0
5.60407e-15 1.00001 0
1.15306e-15 1 0
7.1108e-15 1 0
1.5344e-14 1.00001 0
-4.576e-15 1.00001 0
7.1108e-15 1 0
7.19859e-16 1 0
-4.576e-15 1.00001 0
3.55711e-15 1.00001 0
-1.1401e-14 1.00001 0
1.65687e-15 1.00001 0
5.60407e-15 1.00001 0
2.23686e-16 1.00001 0
1.65687e-15 1.00001 0
8.37072e-16 1.00001 0
2.23686e-16 1.00001 0
7.40514e-15 1.00001 0
2.18145e-15 1.00001 0
-5.49066e-15 1.00001 0
-3.97025e-15 1.00001 0
8.39809e-15 1.00001 0
-5.49066e-15 1.00001 0
-7.76104e-15 1.00001 0
8.39809e-15 1.00001 0
6.68786e-15 1.00001 0
-1.88288e-15 1.00001 0
-9.14786e-15 1.00001 0
1.0967e-14 1.00001 0
9.21005e-15 1.00001 0
-9.14786e-15 1.00001 0
-1.13661e-14 1.00001 0
9.21005e-15 1.00001 0
1.06577e-14 1.00001 0
-7.76104e-15 1.00001 0
-1.48676e-15 1.00001 0
6.68786e-15 1.00001 0
1.1105e-14 1.00001 0
-1.48676e-15 1.00001 0
-1.35392e-14 1.00001 0
1.1105e-14 1.00001 0
6.83516e-15 1.00001 0
-1.13661e-14 1.00001 0
-1.10861e-14 1.00001 0
1.06577e-14 1.00001 0
-5.95492e-15 1.00001 0
-1.10861e-14 1.00001 0
-1.26379e-15 1.00001 0
-5.95492e-15 1.00001 0
-1.36109e-15 1.00001 0
0 1.00001 0
-1.85151e-14 1.00001 0
0 1.00001 0
1.84722e-14 1.00001 0
-1.85151e-14 1.00001 0
-1.3418e-14 1.00001 0
1.84722e-14 1.00001 0
4.59529e-15 1.00001 0
0 1.00001 0
-2.68398e-14 1.00001 0
0 1.00001 0
-2.68615e-14 1.00001 0
-2.68398e-14 1.00001 0
-1.87868e-15 1.00001 0
-2.68615e-14 1.00001 0
5.5373e-15 1.00001 0
-1.3418e-14 1.00001 0
-1.12095e-14 1.00001 0
4.59529e-15 1.00001 0
3.39966e-15 1.00001 0
-1.12095e-14 1.00001 0
-1.69633e-14 1.00001 0
3.39966e-15 1.00001 0
1.34624e-14 1.00001 0
-1.87868e-15 1.00001 0
-4.40869e-15 1.00001 0
5.5373e-15 1.00001 0
6.02661e-16 1.00001 0
-4.40869e-15 1.00001 0
-5.37004e-15 1.00001 0
6.02661e-16 1.00001 0
-4.80897e-17 1.00001 0
0 1.00001 0
2.6728e-14 1.00001 0
0 1.00001 0
3.64378e-14 1.00001 0
2.6728e-14 1.00001 0
-1.2642e-14 1.00001 0
3.64378e-14 1.00001 0
-1.08068e-14 1.00001 0
0 1.00001 0
-2.90306e-14 1.00001 0
0 1.00001 0
-3.29092e-14 1.00001 0
-2.90306e-14 1.00001 0
1.74249e-14 1.00001 0
-3.29092e-14 1.00001 0
2.76962e-14 1.00001 0
-1.2642e-14 1.00001 0
3.11702e-15 1.00001 0
-1.08068e-14 1.00001 0
-6.72339e-16 1.00001 0
3.11702e-15 1.00001 0
-7.82625e-15 1.00001 0
-6.72339e-16 1.00001 0
3.05715e-16 1.00001 0
1.74249e-14 1.00001 0
-2.43947e-15 1.00001 0
2.76962e-14 1.00001 0
-2.77218e-15 1.00001 0
-2.43947e-15 1.00001 0
2.99103e-16 1.00001 0
-2.77218e-15 1.00001 0
8.83063e-15 1.00001 0
-1.69633e-14 1.00001 0
-1.29962e-14 1.00001 0
1.34624e-14 1.00001 0
1.65984e-14 1.00001 0
-1.29962e-14 1.00001 0
-6.29566e-15 1.00001 0
1.65984e-14 1.00001 0
2.58812e-15 1.00001 0
-5.37004e-15 1.00001 0
-7.52268e-15 1.00001 0
-4.80897e-17 1.00001 0
5.74159e-15 1.00001 0
-7.52268e-15 1.00001 0
-1.34579e-15 1.00001 0
5.74159e-15 1.00001 0
2.67357e-17 1.00001 0
-6.29566e-15 1.00001 0
4.24033e-15 1.00001 0
2.58812e-15 1.00001 0
-1.7184e-15 1.00001 0
4.24033e-15 1.00001 0
-2.99036e-15 1.00001 0
-1.7184e-15 1.00001 0
5.58216e-15 1.00001 0
-1.34579e-15 1.00001 0
6.20355e-15 1.00001 0
2.67357e-17 1.00001 0
-2.14846e-15 1.00001 0
6.20355e-15 1.00001 0
-5.24053e-15 1.00001 0
-2.14846e-15 1.00001 0
-1.582e-15 1.00001 0
-7.82625e-15 1.00001 0
1.518e-15 1.00001 0
3.05715e-16 1.00001 0
-4.45399e-15 1.00001 0
1.518e-15 1.00001 0
2.54405e-15 1.00001 0
-4.45399e-15 1.00001 0
4.92923e-15 1.00001 0
2.99103e-16 1.00001 0
-1.2336e-14 1.00001 0
8.83063e-15 1.00001 0
3.61086e-15 1.00001 0
-1.2336e-14 1.00001 0
-1.07801e-14 1.00001 0
3.61086e-15 1.00001 0
1.96539e-15 1.00001 0
2.54405e-15 1.00001 0
7.42937e-15 1.00001 0
4.92923e-15 1.00001 0
-6.65158e-15 1.00001 0
7.42937e-15 1.00001 0
3.18092e-15 1.00001 0
-6.65158e-15 1.00001 0
2.53961e-16 1.00001 0
-1.07801e-14 1.00001 0
-2.98443e-15 1.00001 0
1.96539e-15 1.00001 0
-2.10338e-16 1.00001 0
-2.98443e-15 1.00001 0
5.64702e-17 1.00001 0
-2.10338e-16 1.00001 0
9.61989e-16 1.00001 0
7.19859e-16 1 0
-1.20503e-14 1 0
3.55711e-15 1.00001 0
2.72748e-14 1.00001 0
-1.20503e-14 1 0
-7.42874e-15 1 0
2.72748e-14 1.00001 0
1.94786e-14 1.00001 0
8.37072e-16 1.00001 0
-1.08331e-14 1.00001 0
7.40514e-15 1.00001 0
7.54025e-15 1.00001 0
-1.08331e-14 1.00001 0
-3.25106e-15 1.00001 0
7.54025e-15 1.00001 0
1.39887e-15 1.00001 0
-7.42874e-15 1 0
7.43425e-15 1 0
1.94786e-14 1.00001 0
9.00978e-15 1.00001 0
7.43425e-15 1 0
5.9414e-15 1 0
9.00978e-15 1.00001 0
1.26938e-14 1.00001 0
-3.25106e-15 1.00001 0
-1.04243e-14 1.00001 0
1.39887e-15 1.00001 0
5.00891e-15 1.00001 0
-1.04243e-14 1.00001 0
-2.30379e-14 1.00001 0
5.00891e-15 1.00001 0
1.15179e-14 1.00001 0
-1.35392e-14 1.00001 0
-1.85062e-14 1.00001 0
6.83516e-15 1.00001 0
1.30943e-14 1.00001 0
-1.85062e-14 1.00001 0
-3.32522e-15 1.00001 0
1.30943e-14 1.00001 0
-7.85532e-15 1.00001 0
-1.26379e-15 1.00001 0
-1.06985e-14 1.00001 0
-1.36109e-15 1.00001 0
5.59723e-15 1.00001 0
-1.06985e-14 1.00001 0
2.73138e-15 1.00001 0
5.59723e-15 1.00001 0
6.66744e-15 1.00001 0
-3.32522e-15 1.00001 0
-1.85274e-15 1.00001 0
-7.85532e-15 1.00001 0
-4.66603e-15 1.00001 0
-1.85274e-15 1.00001 0
6.85832e-15 1.00001 0
-4.66603e-15 1.00001 0
-6.21765e-15 1.00001 0
2.73138e-15 1.00001 0
8.60394e-15 1.00001 0
6.66744e-15 1.00001 0
-6.10561e-15 1.00001 0
8.60394e-15 1.00001 0
-1.77347e-15 1.00001 0
-6.10561e-15 1.00001 0
-3.71477e-15 1.00001 0
5.9414e-15 1 0
4.03917e-15 1 0
1.26938e-14 1.00001 0
1.01055e-14 1.00001 0
4.03917e-15 1 0
2.95281e-15 1 0
1.01055e-14 1.00001 0
9.52639e-15 1.00001 0
-2.30379e-14 1.00001 0
-7.94472e-15 1.00001 0
1.15179e-14 1.00001 0
1.20421e-14 1.00001 0
-7.94472e-15 1.00001 0
-2.29061e-15 1.00001 0
1.20421e-14 1.00001 0
6.12162e-15 1.00001 0
2.95281e-15 1 0
1.32128e-14 1 0
9.52639e-15 1.00001 0
7.7524e-16 1.00001 0
1.32128e-14 1 0
8.77875e-15 1 0
7.7524e-16 1.00001 0
1.69725e-15 1.00001 0
-2.29061e-15 1.00001 0
-8.79227e-15 1.00001 0
6.12162e-15 1.00001 0
1.05765e-14 1.00001 0
-8.79227e-15 1.00001 0
-8.46077e-15 1.00001 0
1.05765e-14 1.00001 0
1.61509e-14 1.00001 0
6.85832e-15 1.00001 0
-1.04981e-14 1.00001 0
-6.21765e-15 1.00001 0
-7.55882e-16 1.00001 0
-1.04981e-14 1.00001 0
-7.26219e-15 1.00001 0
-7.55882e-16 1.00001 0
6.12465e-15 1.00001 0
-1.77347e-15 1.00001 0
2.92435e-15 1.00001 0
-3.71477e-15 1.00001 0
-1.85863e-15 1.00001 0
2.92435e-15 1.00001 0
-1.48301e-14 1.00001 0
-1.85863e-15 1.00001 0
8.84963e-15 1.00001 0
-7.26219e-15 1.00001 0
-4.40397e-15 1.00001 0
6.12465e-15 1.00001 0
2.75071e-15 1.00001 0
-4.40397e-15 1.00001 0
-1.09905e-14 1.00001 0
2.75071e-15 1.00001 0
8.78894e-15 1.00001 0
-1.48301e-14 1.00001 0
-1.58666e-14 1.00001 0
8.84963e-15 1.00001 0
2.24199e-14 1.00001 0
-1.58666e-14 1.00001 0
-6.48717e-16 1.00001 0
2.24199e-14 1.00001 0
5.64046e-15 1.00001 0
-2.99036e-15 1.00001 0
-3.05828e-15 1.00001 0
5.58216e-15 1.00001 0
1.06179e-14 1.00001 0
-3.05828e-15 1.00001 0
-9.75731e-15 1.00001 0
1.06179e-14 1.00001 0
6.93206e-15 1.00001 0
-5.24053e-15 1.00001 0
-9.70441e-15 1.00001 0
-1.582e-15 1.00001 0
9.71729e-15 1.00001 0
-9.70441e-15 1.00001 0
-2.44099e-15 1.00001 0
9.71729e-15 1.00001 0
4.29294e-15 1.00001 0
-9.75731e-15 1.00001 0
1.2677e-15 1.00001 0
6.93206e-15 1.00001 0
-1.76965e-15 1.00001 0
1.2677e-15 1.00001 0
5.37981e-15 1.00001 0
-1.76965e-15 1.00001 0
7.10588e-15 1.00001 0
-2.44099e-15 1.00001 0
-9.07216e-15 1.00001 0
4.29294e-15 1.00001 0
6.00204e-15 1.00001 0
-9.07216e-15 1.00001 0
-1.16278e-14 1.00001 0
6.00204e-15 1.00001 0
3.77608e-15 1.00001 0
3.18092e-15 1.00001 0
-7.6448e-15 1.00001 0
2.53961e-16 1.00001 0
4.51089e-15 1.00001 0
-7.6448e-15 1.00001 0
-5.39914e-15 1.00001 0
4.51089e-15 1.00001 0
1.03601e-14 1.00001 0
5.64702e-17 1.00001 0
3.28934e-16 1.00001 0
9.61989e-16 1.00001 0
-2.92453e-16 1.00001 0
3.28934e-16 1.00001 0
-8.22505e-15 1.00001 0
-2.92453e-16 1.00001 0
5.25916e-15 1.00001 0
-5.39914e-15 1.00001 0
3.44475e-15 1.00001 0
1.03601e-14 1.00001 0
-1.81524e-16 1.00001 0
3.44475e-15 1.00001 0
-1.9518e-15 1.00001 0
-1.81524e-16 1.00001 0
3.50636e-15 1.00001 0
-8.22505e-15 1.00001 0
-2.02316e-15 1.00001 0
5.25916e-15 1.00001 0
1.05055e-14 1.00001 0
-2.02316e-15 1.00001 0
-3.85502e-15 1.00001 0
1.05055e-14 1.00001 0
-1.72805e-15 1.00001 0
5.37981e-15 1.00001 0
9.10471e-15 1.00001 0
7.10588e-15 1.00001 0
-1.12357e-14 1.00001 0
9.10471e-15 1.00001 0
5.10335e-17 1.00001 0
-1.12357e-14 1.00001 0
2.02673e-15 1.00001 0
-1.16278e-14 1.00001 0
8.72077e-15 1.00001 0
3.77608e-15 1.00001 0
-1.35063e-14 1.00001 0
8.72077e-15 1.00001 0
-4.55649e-15 1.00001 0
-1.35063e-14 1.00001 0
2.95881e-15 1.00001 0
5.10335e-17 1.00001 0
-1.62654e-14 1.00001 0
2.02673e-15 1.00001 0
1.72288e-15 1.00001 0
-1.62654e-14 1.00001 0
-1.38844e-14 1.00001 0
1.72288e-15 1.00001 0
8.66974e-15 1.00001 0
-4.55649e-15 1.00001 0
3.20972e-15 1.00001 0
2.95881e-15 1.00001 0
2.09941e-15 1.00001 0
3.20972e-15 1.00001 0
-9.11027e-15 1.00001 0
2.09941e-15 1.00001 0
9.44333e-15 1.00001 0
-1.9518e-15 1.00001 0
3.41562e-15 1.00001 0
3.50636e-15 1.00001 0
-3.82421e-15 1.00001 0
3.41562e-15 1.00001 0
2.67047e-15 1.00001 0
-3.82421e-15 1.00001 0
-8.21768e-15 1.00001 0
-3.85502e-15 1.00001 0
6.74431e-15 1.00001 0
-1.72805e-15 1.00001 0
3.64264e-15 1.00001 0
6.74431e-15 1.00001 0
-1.57006e-15 1.00001 0
3.64264e-15 1.00001 0
1.65678e-15 1.00001 0
2.67047e-15 1.00001 0
-2.45926e-15 1.00001 0
-8.21768e-15 1.00001 0
1.14596e-16 1.00001 0
-2.45926e-15 1.00001 0
-1.06158e-14 1.00001 0
1.14596e-16 1.00001 0
5.13512e-15 1.00001 0
-1.57006e-15 1.00001 0
-1.46316e-16 1.00001 0
1.65678e-15 1.00001 0
-7.79661e-15 1.00001 0
-1.46316e-16 1.00001 0
7.57611e-15 1.00001 0
-7.79661e-15 1.00001 0
-1.61712e-14 1.00001 0
0 1.00001 0
2.15791e-14 1.00001 0
0 1.00001 0
2.62094e-14 1.00001 0
2.15791e-14 1.00001 0
-3.17621e-14 1.00001 0
2.62094e-14 1.00001 0
-1.02774e-14 1.00001 0
0 1.00001 0
1.39809e-14 1.00001 0
0 1.00001 0
1.54514e-14 1.00001 0
1.39809e-14 1.00001 0
-7.59055e-15 1.00001 0
1.54514e-14 1.00001 0
4.15294e-15 1.00001 0
-3.17621e-14 1.00001 0
-2.18911e-15 1.00001 0
-1.02774e-14 1.00001 0
6.0173e-15 1.00001 0
-2.18911e-15 1.00001 0
-1.28917e-14 1.00001 0
6.0173e-15 1.00001 0
9.0022e-16 1.00001 0
-7.59055e-15 1.00001 0
-1.58826e-14 1.00001 0
4.15294e-15 1.00001 0
-1.26202e-14 1.00001 0
-1.58826e-14 1.00001 0
6.73152e-15 1.00001 0
-1.26202e-14 1.00001 0
-9.51012e-15 1.00001 0
0 1.00001 0
-6.18454e-14 1.00001 0
0 1.00001 0
-6.93134e-14 1.00001 0
-6.18454e-14 1.00001 0
1.31487e-14 1.00001 0
-6.93134e-14 1.00001 0
1.31537e-15 1.00001 0
0 1.00001 0
6.79543e-14 1.00001 0
0 1.00001 0
6.11345e-14 1.00001 0
6.79543e-14 1.00001 0
5.50148e-15 1.00001 0
6.11345e-14 1.00001 0
-6.01722e-15 1.00001 0
1.31487e-14 1.00001 0
7.6796e-15 1.00001 0
1.31537e-15 1.00001 0
1.3906e-14 1.00001 0
7.6796e-15 1.00001 0
-2.72355e-14 1.00001 0
1.3906e-14 1.00001 0
-2.92747e-14 1.00001 0
5.50148e-15 1.00001 0
5.07219e-15 1.00001 0
-6.01722e-15 1.00001 0
-5.09901e-15 1.00001 0
5.07219e-15 1.00001 0
3.34073e-14 1.00001 0
-5.09901e-15 1.00001 0
3.33262e-14 1.00001 0
-1.28917e-14 1.00001 0
-9.36956e-15 1.00001 0
9.0022e-16 1.00001 0
-2.59571e-15 1.00001 0
-9.36956e-15 1.00001 0
-1.4652e-15 1.00001 0
-2.59571e-15 1.00001 0
4.49896e-15 1.00001 0
6.73152e-15 1.00001 0
6.4234e-16 1.00001 0
-9.51012e-15 1.00001 0
1.28442e-14 1.00001 0
6.4234e-16 1.00001 0
-3.67549e-15 1.00001 0
1.28442e-14 1.00001 0
8.83337e-15 1.00001 0
-1.4652e-15 1.00001 0
8.4744e-16 1.00001 0
4.49896e-15 1.00001 0
-1.47075e-15 1.00001 0
8.4744e-16 1.00001 0
-3.7085e-15 1.00001 0
-1.47075e-15 1.00001 0
5.61658e-15 1.00001 0
-3.67549e-15 1.00001 0
9.05482e-15 1.00001 0
8.83337e-15 1.00001 0
-6.24775e-15 1.00001 0
9.05482e-15 1.00001 0
-5.01727e-15 1.00001 0
-6.24775e-15 1.00001 0
5.50841e-15 1.00001 0
-2.72355e-14 1.00001 0
-9.25659e-15 1.00001 0
-2.92747e-14 1.00001 0
1.10158e-15 1.00001 0
-9.25659e-15 1.00001 0
-4.96258e-15 1.00001 0
1.10158e-15 1.00001 0
-3.29029e-15 1.00001 0
3.34073e-14 1.00001 0
1.07892e-14 1.00001 0
3.33262e-14 1.00001 0
9.51802e-16 1.00001 0
1.07892e-14 1.00001 0
1.10985e-14 1.00001 0
9.51802e-16 1.00001 0
-6.21627e-15 1.00001 0
-4.96258e-15 1.00001 0
6.94389e-15 1.00001 0
-3.29029e-15 1.00001 0
-6.18347e-15 1.00001 0
6.94389e-15 1.00001 0
-1.48142e-15 1.00001 0
-6.18347e-15 1.00001 0
1.46949e-15 1.00001 0
1.10985e-14 1.00001 0
-2.55513e-15 1.00001 0
-6.21627e-15 1.00001 0
3.38912e-15 1.00001 0
-2.55513e-15 1.00001 0
-1.73603e-15 1.00001 0
3.38912e-15 1.00001 0
7.83443e-15 1.00001 0
0 1.00001 0
-2.67453e-14 1.00001 0
0 1.00001 0
-2.94548e-14 1.00001 0
-2.67453e-14 1.00001 0
-7.981e-15 1.00001 0
-2.94548e-14 1.00001 0
-8.31086e-15 1.00001 0
0 1.00001 0
3.1246e-14 1.00001 0
0 1.00001 0
1.58559e-14 1.00001 0
3.1246e-14 1.00001 0
-1.89631e-14 1.00001 0
1.58559e-14 1.00001 0
-1.32603e-14 1.00001 0
-7.981e-15 1.00001 0
-1.96637e-14 1.00001 0
-8.31086e-15 1.00001 0
-1.71836e-14 1.00001 0
-1.96637e-14 1.00001 0
-4.746e-15 1.00001 0
-1.71836e-14 1.00001 0
-1.14117e-14 1.00001 0
-1.89631e-14 1.00001 0
9.49012e-15 1.00001 0
-1.32603e-14 1.00001 0
9.01259e-15 1.00001 0
9.49012e-15 1.00001 0
1.64474e-14 1.00001 0
9.01259e-15 1.00001 0
2.46233e-15 1.00001 0
0 1.00001 0
-3.56433e-14 1.00001 0
0 1.00001 0
-3.56342e-14 1.00001 0
-3.56433e-14 1.00001 0
3.18595e-15 1.00001 0
-3.56342e-14 1.00001 0
9.84744e-15 1.00001 0
0 1.00001 0
2.24219e-14 1.00001 0
0 1 0
2.66344e-14 1 0
2.24219e-14 1.00001 0
-4.03765e-15 1.00001 0
2.66344e-14 1 0
-8.2203e-16 1 0
3.18595e-15 1.00001 0
-1.53584e-14 1.00001 0
9.84744e-15 1.00001 0
-1.35542e-14 1.00001 0
-1.53584e-14 1.00001 0
-1.73769e-14 1.00001 0
-1.35542e-14 1.00001 0
-2.20419e-14 1.00001 0
-4.03765e-15 1.00001 0
3.72749e-15 1.00001 0
-8.2203e-16 1 0
1.54275e-14 1 0
3.72749e-15 1.00001 0
-9.3692e-15 1.00001 0
1.54275e-14 1 0
-8.40024e-15 1 0
-4.746e-15 1.00001 0
-7.29665e-14 1.00001 0
-1.14117e-14 1.00001 0
-5.45422e-14 1.00001 0
-7.29665e-14 1.00001 0
5.37313e-16 1.00001 0
-5.45422e-14 1.00001 0
9.30955e-16 1.00001 0
1.64474e-14 1.00001 0
3.5794e-14 1.00001 0
2.46233e-15 1.00001 0
5.44133e-14 1.00001 0
3.5794e-14 1.00001 0
-5.55541e-15 1.00001 0
5.44133e-14 1.00001 0
-1.36437e-15 1.00001 0
5.37313e-16 1.00001 0
-4.2673e-15 1.00001 0
9.30955e-16 1.00001 0
4.10407e-15 1.00001 0
-4.2673e-15 1.00001 0
-1.82714e-14 1.00001 0
4.10407e-15 1.00001 0
-7.58581e-15 1.00001 0
-5.55541e-15 1.00001 0
-2.54204e-15 1.00001 0
-1.36437e-15 1.00001 0
-1.2929e-14 1.00001 0
-2.54204e-15 1.00001 0
-5.53195e-15 1.00001 0
-1.2929e-14 1.00001 0
1.96512e-14 1.00001 0
-1.73769e-14 1.00001 0
-6.41082e-15 1.00001 0
-2.20419e-14 1.00001 0
-1.08895e-14 1.00001 0
-6.41082e-15 1.00001 0
-1.06329e-14 1.00001 0
-1.08895e-14 1.00001 0
1.29697e-14 1.00001 0
-9.3692e-15 1.00001 0
-1.40746e-14 1.00001 0
-8.40024e-15 1 0
-1.00686e-14 1 0
-1.40746e-14 1.00001 0
3.48644e-16 1.00001 0
-1.00686e-14 1 0
1.71511e-15 1 0
-1.06329e-14 1.00001 0
7.74487e-15 1.00001 0
1.29697e-14 1.00001 0
1.2809e-15 1.00001 0
7.74487e-15 1.00001 0
-7.35445e-15 1.00001 0
1.2809e-15 1.00001 0
9.67528e-15 1.00001 0
3.48644e-16 1.00001 0
-4.50702e-15 1.00001 0
1.71511e-15 1 0
-8.27086e-15 1 0
-4.50702e-15 1.00001 0
-1.35987e-14 1.00001 0
-8.27086e-15 1 0
3.40783e-16 1 0
-3.7085e-15 1.00001 0
1.21981e-15 1.00001 0
5.61658e-15 1.00001 0
-5.04046e-16 1.00001 0
1.21981e-15 1.00001 0
-1.83803e-16 1.00001 0
-5.04046e-16 1.00001 0
1.94998e-15 1.00001 0
-5.01727e-15 1.00001 0
-1.83891e-16 1.00001 0
5.50841e-15 1.00001 0
-1.96436e-15 1.00001 0
-1.83891e-16 1.00001 0
-1.02171e-15 1.00001 0
-1.96436e-15 1.00001 0
-1.0991e-14 1.00001 0
-1.83803e-16 1.00001 0
-8.74912e-15 1.00001 0
1.94998e-15 1.00001 0
7.60407e-15 1.00001 0
-8.74912e-15 1.00001 0
6.41217e-15 1.00001 0
7.60407e-15 1.00001 0
-7.14818e-15 1.00001 0
-1.02171e-15 1.00001 0
-9.03721e-15 1.00001 0
-1.0991e-14 1.00001 0
-1.60758e-15 1.00001 0
-9.03721e-15 1.00001 0
8.81979e-15 1.00001 0
-1.60758e-15 1.00001 0
1.88724e-16 1.00001 0
-1.48142e-15 1.00001 0
-2.84507e-15 1.00001 0
1.46949e-15 1.00001 0
7.14433e-15 1.00001 0
-2.84507e-15 1.00001 0
1.13115e-14 1.00001 0
7.14433e-15 1.00001 0
-5.41365e-15 1.00001 0
-1.73603e-15 1.00001 0
-6.20725e-16 1.00001 0
7.83443e-15 1.00001 0
-1.79197e-15 1.00001 0
-6.20725e-16 1.00001 0
4.10964e-16 1.00001 0
-1.79197e-15 1.00001 0
1.70458e-15 1.00001 0
1.13115e-14 1.00001 0
7.29734e-15 1.00001 0
-5.41365e-15 1.00001 0
-5.17115e-15 1.00001 0
7.29734e-15 1.00001 0
-1.17204e-14 1.00001 0
-5.17115e-15 1.00001 0
1.20139e-14 1.00001 0
4.10964e-16 1.00001 0
-8.02786e-16 1.00001 0
1.70458e-15 1.00001 0
7.48614e-15 1.00001 0
-8.02786e-16 1.00001 0
-8.66631e-15 1.00001 0
7.48614e-15 1.00001 0
1.16265e-14 1.00001 0
6.41217e-15 1.00001 0
-5.77083e-15 1.00001 0
-7.14818e-15 1.00001 0
2.66647e-15 1.00001 0
-5.77083e-15 1.00001 0
1.15353e-15 1.00001 0
2.66647e-15 1.00001 0
8.3148e-15 1.00001 0
8.81979e-15 1.00001 0
4.14691e-15 1.00001 0
1.88724e-16 1.00001 0
2.52824e-15 1.00001 0
4.14691e-15 1.00001 0
-4.26818e-15 1.00001 0
2.52824e-15 1.00001 0
2.26551e-15 1.00001 0
1.15353e-15 1.00001 0
9.88881e-15 1.00001 0
8.3148e-15 1.00001 0
-9.88793e-16 1.00001 0
9.88881e-15 1.00001 0
9.64944e-15 1.00001 0
-9.88793e-16 1.00001 0
2.69229e-15 1.00001 0
-4.26818e-15 1.00001 0
1.41955e-15 1.00001 0
2.26551e-15 1.00001 0
6.75331e-15 1.00001 0
1.41955e-15 1.00001 0
9.99742e-15 1.00001 0
6.75331e-15 1.00001 0
-1.26573e-14 1.00001 0
-1.17204e-14 1.00001 0
-4.78338e-15 1.00001 0
1.20139e-14 1.00001 0
-1.65585e-15 1.00001 0
-4.78338e-15 1.00001 0
-2.21689e-15 1.00001 0
-1.65585e-15 1.00001 0
-1.50384e-16 1.00001 0
-8.66631e-15 1.00001 0
4.5247e-16 1.00001 0
1.16265e-14 1.00001 0
-2.20926e-15 1.00001 0
4.5247e-16 1.00001 0
2.6291e-15 1.00001 0
-2.20926e-15 1.00001 0
-1.59482e-15 1.00001 0
-2.21689e-15 1.00001 0
-5.21222e-15 1.00001 0
-1.50384e-16 1.00001 0
-1.44104e-15 1.00001 0
-5.21222e-15 1.00001 0
9.21727e-15 1.00001 0
-1.44104e-15 1.00001 0
-7.67657e-15 1.00001 0
2.6291e-15 1.00001 0
8.18191e-16 1.00001 0
-1.59482e-15 1.00001 0
1.70811e-15 1.00001 0
8.18191e-16 1.00001 0
2.86351e-15 1.00001 0
1.70811e-15 1.00001 0
2.51079e-16 1.00001 0
-1.82714e-14 1.00001 0
-8.7681e-15 1.00001 0
-7.58581e-15 1.00001 0
-7.85241e-15 1.00001 0
-8.7681e-15 1.00001 0
-8.9258e-15 1.00001 0
-7.85241e-15 1.00001 0
-1.1981e-14 1.00001 0
-5.53195e-15 1.00001 0
1.08216e-15 1.00001 0
1.96512e-14 1.00001 0
1.04165e-14 1.00001 0
1.08216e-15 1.00001 0
2.84255e-15 1.00001 0
1.04165e-14 1.00001 0
-2.11145e-15 1.00001 0
-8.9258e-15 1.00001 0
-4.67281e-15 1.00001 0
-1.1981e-14 1.00001 0
3.93963e-15 1.00001 0
-4.67281e-15 1.00001 0
-1.01565e-14 1.00001 0
3.93963e-15 1.00001 0