# vtk DataFile Version 3.0
#This file was generated by the deal.II library on 2018/10/16 at 8:46:39
ASCII
DATASET UNSTRUCTURED_GRID

POINTS 20480 double
0 0 0
0.19635 0 0
0 0.280992 0
0.19635 0.280992 0
0.19635 0 0
0.392699 0 0
0.19635 0.280992 0
0.392699 0.280992 0
0 0.280992 0
0.19635 0.280992 0
0 0.5933 0
0.19635 0.5933 0
0.19635 0.280992 0
0.392699 0.280992 0
0.19635 0.5933 0
0.392699 0.5933 0
0.392699 0 0
0.589049 0 0
0.392699 0.280992 0
0.589049 0.280992 0
0.589049 0 0
0.785398 0 0
0.589049 0.280992 0
0.785398 0.280992 0
0.392699 0.280992 0
0.589049 0.280992 0
0.392699 0.5933 0
0.589049 0.5933 0
0.589049 0.280992 0
0.785398 0.280992 0
0.589049 0.5933 0
0.785398 0.5933 0
0 0.5933 0
0.19635 0.5933 0
0 0.905665 0
0.19635 0.905665 0
0.19635 0.5933 0
0.392699 0.5933 0
0.19635 0.905665 0
0.392699 0.905665 0
0 0.905665 0
0.19635 0.905665 0
0 1.21979 0
0.19635 1.21979 0
0.19635 0.905665 0
0.392699 0.905665 0
0.19635 1.21979 0
0.392699 1.21979 0
0.392699 0.5933 0
0.589049 0.5933 0
0.392699 0.905665 0
0.589049 0.905665 0
0.589049 0.5933 0
0.785398 0.5933 0
0.589049 0.905665 0
0.785398 0.905665 0
0.392699 0.905665 0
0.589049 0.905665 0
0.392699 1.21979 0
0.589049 1.21979 0
0.589049 0.905665 0
0.785398 0.905665 0
0.589049 1.21979 0
0.785398 1.21979 0
0.785398 0 0
0.981748 0 0
0.785398 0.280992 0
0.981748 0.280992 0
0.981748 0 0
1.1781 0 0
0.981748 0.280992 0
1.1781 0.280992 0
0.785398 0.280992 0
0.981748 0.280992 0
0.785398 0.5933 0
0.981748 0.5933 0
0.981748 0.280992 0
1.1781 0.280992 0
0.981748 0.5933 0
1.1781 0.5933 0
1.1781 0 0
1.37445 0 0
1.1781 0.280992 0
1.37445 0.280992 0
1.37445 0 0
1.5708 0 0
1.37445 0.280992 0
1.5708 0.280992 0
1.1781 0.280992 0
1.37445 0.280992 0
1.1781 0.5933 0
1.37445 0.5933 0
1.37445 0.280992 0
1.5708 0.280992 0
1.37445 0.5933 0
1.5708 0.5933 0
0.785398 0.5933 0
0.981748 0.5933 0
0.785398 0.905665 0
0.981748 0.905665 0
0.981748 0.5933 0
1.1781 0.5933 0
0.981748 0.905665 0
1.1781 0.905665 0
0.785398 0.905665 0
0.981748 0.905665 0
0.785398 1.21979 0
0.981748 1.21979 0
0.981748 0.905665 0
1.1781 0.905665 0
0.981748 1.21979 0
1.1781 1.21979 0
1.1781 0.5933 0
1.37445 0.5933 0
1.1781 0.905665 0
1.37445 0.905665 0
1.37445 0.5933 0
1.5708 0.5933 0
1.37445 0.905665 0
1.5708 0.905665 0
1.1781 0.905665 0
1.37445 0.905665 0
1.1781 1.21979 0
1.37445 1.21979 0
1.37445 0.905665 0
1.5708 0.905665 0
1.37445 1.21979 0
1.5708 1.21979 0
0 1.21979 0
0.19635 1.21979 0
0 1.53346 0
0.19635 1.53346 0
0.19635 1.21979 0
0.392699 1.21979 0
0.19635 1.53346 0
0.392699 1.53346 0
0 1.53346 0
0.19635 1.53346 0
0 1.84729 0
0.19635 1.84729 0
0.19635 1.53346 0
0.392699 1.53346 0
0.19635 1.84729 0
0.392699 1.84729 0
0.392699 1.21979 0
0.589049 1.21979 0
0.392699 1.53346 0
0.589049 1.53346 0
0.589049 1.21979 0
0.785398 1.21979 0
0.589049 1.53346 0
0.785398 1.53346 0
0.392699 1.53346 0
0.589049 1.53346 0
0.392699 1.84729 0
0.589049 1.84729 0
0.589049 1.53346 0
0.785398 1.53346 0
0.589049 1.84729 0
0.785398 1.84729 0
0 1.84729 0
0.19635 1.84729 0
0 2.16103 0
0.19635 2.16103 0
0.19635 1.84729 0
0.392699 1.84729 0
0.19635 2.16103 0
0.392699 2.16103 0
0 2.16103 0
0.19635 2.16103 0
0 2.47477 0
0.19635 2.47477 0
0.19635 2.16103 0
0.392699 2.16103 0
0.19635 2.47477 0
0.392699 2.47477 0
0.392699 1.84729 0
0.589049 1.84729 0
0.392699 2.16103 0
0.589049 2.16103 0
0.589049 1.84729 0
0.785398 1.84729 0
0.589049 2.16103 0
0.785398 2.16103 0
0.392699 2.16103 0
0.589049 2.16103 0
0.392699 2.47477 0
0.589049 2.47477 0
0.589049 2.16103 0
0.785398 2.16103 0
0.589049 2.47477 0
0.785398 2.47477 0
0.785398 1.21979 0
0.981748 1.21979 0
0.785398 1.53346 0
0.981748 1.53346 0
0.981748 1.21979 0
1.1781 1.21979 0
0.981748 1.53346 0
1.1781 1.53346 0
0.785398 1.53346 0
0.981748 1.53346 0
0.785398 1.84729 0
0.981748 1.84729 0
0.981748 1.53346 0
1.1781 1.53346 0
0.981748 1.84729 0
1.1781 1.84729 0
1.1781 1.21979 0
1.37445 1.21979 0
1.1781 1.53346 0
1.37445 1.53346 0
1.37445 1.21979 0
1.5708 1.21979 0
1.37445 1.53346 0
1.5708 1.53346 0
1.1781 1.53346 0
1.37445 1.53346 0
1.1781 1.84729 0
1.37445 1.84729 0
1.37445 1.53346 0
1.5708 1.53346 0
1.37445 1.84729 0
1.5708 1.84729 0
0.785398 1.84729 0
0.981748 1.84729 0
0.785398 2.16103 0
0.981748 2.16103 0
0.981748 1.84729 0
1.1781 1.84729 0
0.981748 2.16103 0
1.1781 2.16103 0
0.785398 2.16103 0
0.981748 2.16103 0
0.785398 2.47477 0
0.981748 2.47477 0
0.981748 2.16103 0
1.1781 2.16103 0
0.981748 2.47477 0
1.1781 2.47477 0
1.1781 1.84729 0
1.37445 1.84729 0
1.1781 2.16103 0
1.37445 2.16103 0
1.37445 1.84729 0
1.5708 1.84729 0
1.37445 2.16103 0
1.5708 2.16103 0
1.1781 2.16103 0
1.37445 2.16103 0
1.1781 2.47477 0
1.37445 2.47477 0
1.37445 2.16103 0
1.5708 2.16103 0
1.37445 2.47477 0
1.5708 2.47477 0
1.5708 0 0
1.76715 0 0
1.5708 0.280992 0
1.76715 0.280992 0
1.76715 0 0
1.9635 0 0
1.76715 0.280992 0
1.9635 0.280992 0
1.5708 0.280992 0
1.76715 0.280992 0
1.5708 0.5933 0
1.76715 0.5933 0
1.76715 0.280992 0
1.9635 0.280992 0
1.76715 0.5933 0
1.9635 0.5933 0
1.9635 0 0
2.15984 0 0
1.9635 0.280992 0
2.15984 0.280992 0
2.15984 0 0
2.35619 0 0
2.15984 0.280992 0
2.35619 0.280992 0
1.9635 0.280992 0
2.15984 0.280992 0
1.9635 0.5933 0
2.15984 0.5933 0
2.15984 0.280992 0
2.35619 0.280992 0
2.15984 0.5933 0
2.35619 0.5933 0
1.5708 0.5933 0
1.76715 0.5933 0
1.5708 0.905665 0
1.76715 0.905665 0
1.76715 0.5933 0
1.9635 0.5933 0
1.76715 0.905665 0
1.9635 0.905665 0
1.5708 0.905665 0
1.76715 0.905665 0
1.5708 1.21979 0
1.76715 1.21979 0
1.76715 0.905665 0
1.9635 0.905665 0
1.76715 1.21979 0
1.9635 1.21979 0
1.9635 0.5933 0
2.15984 0.5933 0
1.9635 0.905665 0
2.15984 0.905665 0
2.15984 0.5933 0
2.35619 0.5933 0
2.15984 0.905665 0
2.35619 0.905665 0
1.9635 0.905665 0
2.15984 0.905665 0
1.9635 1.21979 0
2.15984 1.21979 0
2.15984 0.905665 0
2.35619 0.905665 0
2.15984 1.21979 0
2.35619 1.21979 0
2.35619 0 0
2.55254 0 0
2.35619 0.280992 0
2.55254 0.280992 0
2.55254 0 0
2.74889 0 0
2.55254 0.280992 0
2.74889 0.280992 0
2.35619 0.280992 0
2.55254 0.280992 0
2.35619 0.5933 0
2.55254 0.5933 0
2.55254 0.280992 0
2.74889 0.280992 0
2.55254 0.5933 0
2.74889 0.5933 0
2.74889 0 0
2.94524 0 0
2.74889 0.280992 0
2.94524 0.280992 0
2.94524 0 0
3.14159 0 0
2.94524 0.280992 0
3.14159 0.280992 0
2.74889 0.280992 0
2.94524 0.280992 0
2.74889 0.5933 0
2.94524 0.5933 0
2.94524 0.280992 0
3.14159 0.280992 0
2.94524 0.5933 0
3.14159 0.5933 0
2.35619 0.5933 0
2.55254 0.5933 0
2.35619 0.905665 0
2.55254 0.905665 0
2.55254 0.5933 0
2.74889 0.5933 0
2.55254 0.905665 0
2.74889 0.905665 0
2.35619 0.905665 0
2.55254 0.905665 0
2.35619 1.21979 0
2.55254 1.21979 0
2.55254 0.905665 0
2.74889 0.905665 0
2.55254 1.21979 0
2.74889 1.21979 0
2.74889 0.5933 0
2.94524 0.5933 0
2.74889 0.905665 0
2.94524 0.905665 0
2.94524 0.5933 0
3.14159 0.5933 0
2.94524 0.905665 0
3.14159 0.905665 0
2.74889 0.905665 0
2.94524 0.905665 0
2.74889 1.21979 0
2.94524 1.21979 0
2.94524 0.905665 0
3.14159 0.905665 0
2.94524 1.21979 0
3.14159 1.21979 0
1.5708 1.21979 0
1.76715 1.21979 0
1.5708 1.53346 0
1.76715 1.53346 0
1.76715 1.21979 0
1.9635 1.21979 0
1.76715 1.53346 0
1.9635 1.53346 0
1.5708 1.53346 0
1.76715 1.53346 0
1.5708 1.84729 0
1.76715 1.84729 0
1.76715 1.53346 0
1.9635 1.53346 0
1.76715 1.84729 0
1.9635 1.84729 0
1.9635 1.21979 0
2.15984 1.21979 0
1.9635 1.53346 0
2.15984 1.53346 0
2.15984 1.21979 0
2.35619 1.21979 0
2.15984 1.53346 0
2.35619 1.53346 0
1.9635 1.53346 0
2.15984 1.53346 0
1.9635 1.84729 0
2.15984 1.84729 0
2.15984 1.53346 0
2.35619 1.53346 0
2.15984 1.84729 0
2.35619 1.84729 0
1.5708 1.84729 0
1.76715 1.84729 0
1.5708 2.16103 0
1.76715 2.16103 0
1.76715 1.84729 0
1.9635 1.84729 0
1.76715 2.16103 0
1.9635 2.16103 0
1.5708 2.16103 0
1.76715 2.16103 0
1.5708 2.47477 0
1.76715 2.47477 0
1.76715 2.16103 0
1.9635 2.16103 0
1.76715 2.47477 0
1.9635 2.47477 0
1.9635 1.84729 0
2.15984 1.84729 0
1.9635 2.16103 0
2.15984 2.16103 0
2.15984 1.84729 0
2.35619 1.84729 0
2.15984 2.16103 0
2.35619 2.16103 0
1.9635 2.16103 0
2.15984 2.16103 0
1.9635 2.47477 0
2.15984 2.47477 0
2.15984 2.16103 0
2.35619 2.16103 0
2.15984 2.47477 0
2.35619 2.47477 0
2.35619 1.21979 0
2.55254 1.21979 0
2.35619 1.53346 0
2.55254 1.53346 0
2.55254 1.21979 0
2.74889 1.21979 0
2.55254 1.53346 0
2.74889 1.53346 0
2.35619 1.53346 0
2.55254 1.53346 0
2.35619 1.84729 0
2.55254 1.84729 0
2.55254 1.53346 0
2.74889 1.53346 0
2.55254 1.84729 0
2.74889 1.84729 0
2.74889 1.21979 0
2.94524 1.21979 0
2.74889 1.53346 0
2.94524 1.53346 0
2.94524 1.21979 0
3.14159 1.21979 0
2.94524 1.53346 0
3.14159 1.53346 0
2.74889 1.53346 0
2.94524 1.53346 0
2.74889 1.84729 0
2.94524 1.84729 0
2.94524 1.53346 0
3.14159 1.53346 0
2.94524 1.84729 0
3.14159 1.84729 0
2.35619 1.84729 0
2.55254 1.84729 0
2.35619 2.16103 0
2.55254 2.16103 0
2.55254 1.84729 0
2.74889 1.84729 0
2.55254 2.16103 0
2.74889 2.16103 0
2.35619 2.16103 0
2.55254 2.16103 0
2.35619 2.47477 0
2.55254 2.47477 0
2.55254 2.16103 0
2.74889 2.16103 0
2.55254 2.47477 0
2.74889 2.47477 0
2.74889 1.84729 0
2.94524 1.84729 0
2.74889 2.16103 0
2.94524 2.16103 0
2.94524 1.84729 0
3.14159 1.84729 0
2.94524 2.16103 0
3.14159 2.16103 0
2.74889 2.16103 0
2.94524 2.16103 0
2.74889 2.47477 0
2.94524 2.47477 0
2.94524 2.16103 0
3.14159 2.16103 0
2.94524 2.47477 0
3.14159 2.47477 0
0 2.47477 0
0.19635 2.47477 0
0 2.78848 0
0.19635 2.78848 0
0.19635 2.47477 0
0.392699 2.47477 0
0.19635 2.78848 0
0.392699 2.78848 0
0 2.78848 0
0.19635 2.78848 0
0 3.10216 0
0.19635 3.10216 0
0.19635 2.78848 0
0.392699 2.78848 0
0.19635 3.10216 0
0.392699 3.10216 0
0.392699 2.47477 0
0.589049 2.47477 0
0.392699 2.78848 0
0.589049 2.78848 0
0.589049 2.47477 0
0.785398 2.47477 0
0.589049 2.78848 0
0.785398 2.78848 0
0.392699 2.78848 0
0.589049 2.78848 0
0.392699 3.10216 0
0.589049 3.10216 0
0.589049 2.78848 0
0.785398 2.78848 0
0.589049 3.10216 0
0.785398 3.10216 0
0 3.10216 0
0.19635 3.10216 0
0 3.41581 0
0.19635 3.41581 0
0.19635 3.10216 0
0.392699 3.10216 0
0.19635 3.41581 0
0.392699 3.41581 0
0 3.41581 0
0.19635 3.41581 0
0 3.72944 0
0.19635 3.72944 0
0.19635 3.41581 0
0.392699 3.41581 0
0.19635 3.72944 0
[...]
POINT_DATA 20480
VECTORS uf double
0 1 0
-4.83679e-15 1 0
0 1.00001 0
1.39312e-14 1.00001 0
-4.83679e-15 1 0
-1.3991e-15 1 0
1.39312e-14 1.00001 0
8.61154e-15 1.00001 0
0 1.00001 0
-1.59265e-14 1.00001 0
0 1.00001 0
-2.11559e-14 1.00001 0
-1.59265e-14 1.00001 0
-3.00313e-15 1.00001 0
-2.11559e-14 1.00001 0
-4.09393e-15 1.00001 0
-1.3991e-15 1 0
5.9516e-15 1 0
8.61154e-15 1.00001 0
1.01183e-14 1.00001 0
5.9516e-15 1 0
8.89335e-15 1 0
1.01183e-14 1.00001 0
-4.55196e-15 1.00001 0
-3.00313e-15 1.00001 0
-1.68933e-14 1.00001 0
-4.09393e-15 1.00001 0
8.61127e-15 1.00001 0
-1.68933e-14 1.00001 0
-7.07532e-15 1.00001 0
8.61127e-15 1.00001 0
7.24752e-15 1.00001 0
0 1.00001 0
5.55517e-14 1.00001 0
0 1.00001 0
4.60957e-14 1.00001 0
5.55517e-14 1.00001 0
1.22126e-14 1.00001 0
4.60957e-14 1.00001 0
1.07134e-14 1.00001 0
0 1.00001 0
-2.44381e-14 1.00001 0
0 1.00001 0
-4.96432e-14 1.00001 0
-2.44381e-14 1.00001 0
-1.47808e-14 1.00001 0
-4.96432e-14 1.00001 0
2.59873e-14 1.00001 0
1.22126e-14 1.00001 0
-4.00789e-15 1.00001 0
1.07134e-14 1.00001 0
-8.63049e-15 1.00001 0
-4.00789e-15 1.00001 0
-4.56053e-15 1.00001 0
-8.63049e-15 1.00001 0
5.14956e-15 1.00001 0
-1.47808e-14 1.00001 0
3.47197e-14 1.00001 0
2.59873e-14 1.00001 0
6.32533e-15 1.00001 0
3.47197e-14 1.00001 0
8.82398e-16 1.00001 0
6.32533e-15 1.00001 0
-6.28053e-16 1.00001 0
8.89335e-15 1 0
7.40404e-15 1 0
-4.55196e-15 1.00001 0
-1.33171e-14 1.00001 0
7.40404e-15 1 0
-6.25312e-15 1 0
-1.33171e-14 1.00001 0
9.52433e-15 1.00001 0
-7.07532e-15 1.00001 0
-5.81425e-15 1.00001 0
7.24752e-15 1.00001 0
1.21106e-14 1.00001 0
-5.81425e-15 1.00001 0
-6.92487e-15 1.00001 0
1.21106e-14 1.00001 0
8.79557e-15 1.00001 0
-6.25312e-15 1 0
9.41354e-15 1 0
9.52433e-15 1.00001 0
-9.14817e-15 1.00001 0
9.41354e-15 1 0
2.79206e-15 1 0
-9.14817e-15 1.00001 0
-4.55125e-15 1.00001 0
-6.92487e-15 1.00001 0
-9.38947e-15 1.00001 0
8.79557e-15 1.00001 0
6.2377e-15 1.00001 0
-9.38947e-15 1.00001 0
3.04157e-16 1.00001 0
6.2377e-15 1.00001 0
2.05326e-15 1.00001 0
-4.56053e-15 1.00001 0
1.58298e-14 1.00001 0
5.14956e-15 1.00001 0
2.89297e-14 1.00001 0
1.58298e-14 1.00001 0
-3.79501e-15 1.00001 0
2.89297e-14 1.00001 0
5.40597e-15 1.00001 0
8.82398e-16 1.00001 0
-1.49644e-14 1.00001 0
-6.28053e-16 1.00001 0
1.99258e-15 1.00001 0
-1.49644e-14 1.00001 0
-2.20309e-14 1.00001 0
1.99258e-15 1.00001 0
1.99026e-14 1.00001 0
-3.79501e-15 1.00001 0
-2.13245e-15 1.00001 0
5.40597e-15 1.00001 0
7.06343e-16 1.00001 0
-2.13245e-15 1.00001 0
-8.34806e-15 1.00001 0
7.06343e-16 1.00001 0
1.12089e-14 1.00001 0
-2.20309e-14 1.00001 0
1.09713e-14 1.00001 0
1.99026e-14 1.00001 0
1.63573e-14 1.00001 0
1.09713e-14 1.00001 0
1.57521e-14 1.00001 0
1.63573e-14 1.00001 0
9.97495e-15 1.00001 0
0 1.00001 0
1.24604e-14 1.00001 0
0 1.00001 0
1.19862e-14 1.00001 0
1.24604e-14 1.00001 0
-1.92782e-14 1.00001 0
1.19862e-14 1.00001 0
-1.02666e-15 1.00001 0
0 1.00001 0
-3.5983e-14 1.00001 0
0 1.00001 0
-4.06049e-14 1.00001 0
-3.5983e-14 1.00001 0
-7.24599e-15 1.00001 0
-4.06049e-14 1.00001 0
1.26365e-14 1.00001 0
-1.92782e-14 1.00001 0
-1.09585e-14 1.00001 0
-1.02666e-15 1.00001 0
-3.45604e-14 1.00001 0
-1.09585e-14 1.00001 0
1.11669e-15 1.00001 0
-3.45604e-14 1.00001 0
9.47336e-15 1.00001 0
-7.24599e-15 1.00001 0
5.88212e-15 1.00001 0
1.26365e-14 1.00001 0
4.0967e-15 1.00001 0
5.88212e-15 1.00001 0
1.64759e-14 1.00001 0
4.0967e-15 1.00001 0
3.50482e-14 1.00001 0
0 1.00001 0
5.19323e-14 1.00001 0
0 1.00001 0
4.69175e-14 1.00001 0
5.19323e-14 1.00001 0
-1.22147e-14 1.00001 0
4.69175e-14 1.00001 0
9.82859e-15 1.00001 0
0 1.00001 0
-3.88685e-14 1.00001 0
0 1.00001 0
-3.09292e-14 1.00001 0
-3.88685e-14 1.00001 0
8.54629e-15 1.00001 0
-3.09292e-14 1.00001 0
5.18488e-14 1.00001 0
-1.22147e-14 1.00001 0
2.15284e-14 1.00001 0
9.82859e-15 1.00001 0
1.03709e-14 1.00001 0
2.15284e-14 1.00001 0
-2.03041e-14 1.00001 0
1.03709e-14 1.00001 0
-6.42609e-15 1.00001 0
8.54629e-15 1.00001 0
1.12969e-14 1.00001 0
5.18488e-14 1.00001 0
-4.39617e-15 1.00001 0
1.12969e-14 1.00001 0
1.1721e-14 1.00001 0
-4.39617e-15 1.00001 0
3.04991e-14 1.00001 0
1.11669e-15 1.00001 0
4.29505e-15 1.00001 0
9.47336e-15 1.00001 0
1.23681e-14 1.00001 0
4.29505e-15 1.00001 0
2.09293e-14 1.00001 0
1.23681e-14 1.00001 0
2.22985e-14 1.00001 0
1.64759e-14 1.00001 0
5.51947e-15 1.00001 0
3.50482e-14 1.00001 0
2.60942e-14 1.00001 0
5.51947e-15 1.00001 0
-1.9791e-14 1.00001 0
2.60942e-14 1.00001 0
6.36633e-15 1.00001 0
2.09293e-14 1.00001 0
1.3046e-14 1.00001 0
2.22985e-14 1.00001 0
2.61261e-14 1.00001 0
1.3046e-14 1.00001 0
5.05977e-14 1.00001 0
2.61261e-14 1.00001 0
3.9242e-14 1.00001 0
-1.9791e-14 1.00001 0
2.85311e-14 1.00001 0
6.36633e-15 1.00001 0
2.00071e-14 1.00001 0
2.85311e-14 1.00001 0
-5.49948e-15 1.00001 0
2.00071e-14 1.00001 0
-8.19383e-15 1.00001 0
-2.03041e-14 1.00001 0
-8.57231e-15 1.00001 0
-6.42609e-15 1.00001 0
-6.544e-15 1.00001 0
-8.57231e-15 1.00001 0
3.83131e-14 1.00001 0
-6.544e-15 1.00001 0
5.26315e-14 1.00001 0
1.1721e-14 1.00001 0
2.73329e-15 1.00001 0
3.04991e-14 1.00001 0
1.50172e-14 1.00001 0
2.73329e-15 1.00001 0
-1.72246e-14 1.00001 0
1.50172e-14 1.00001 0
8.21585e-15 1.00001 0
3.83131e-14 1.00001 0
1.35638e-14 1.00001 0
5.26315e-14 1.00001 0
-4.18908e-15 1.00001 0
1.35638e-14 1.00001 0
1.07315e-14 1.00001 0
-4.18908e-15 1.00001 0
2.82362e-14 1.00001 0
-1.72246e-14 1.00001 0
1.41412e-14 1.00001 0
8.21585e-15 1.00001 0
1.18943e-14 1.00001 0
1.41412e-14 1.00001 0
-5.20363e-15 1.00001 0
1.18943e-14 1.00001 0
9.76003e-15 1.00001 0
2.79206e-15 1 0
-3.5358e-15 1 0
-4.55125e-15 1.00001 0
6.32611e-15 1.00001 0
-3.5358e-15 1 0
-1.91128e-14 1 0
6.32611e-15 1.00001 0
2.36146e-14 1.00001 0
3.04157e-16 1.00001 0
-9.06647e-15 1.00001 0
2.05326e-15 1.00001 0
3.10979e-15 1.00001 0
-9.06647e-15 1.00001 0
-1.35059e-14 1.00001 0
3.10979e-15 1.00001 0
3.52708e-15 1.00001 0
-1.91128e-14 1 0
-8.82641e-16 1 0
2.36146e-14 1.00001 0
3.83698e-15 1.00001 0
-8.82641e-16 1 0
1.03519e-14 1 0
3.83698e-15 1.00001 0
-1.25066e-14 1.00001 0
-1.35059e-14 1.00001 0
-5.46678e-15 1.00001 0
3.52708e-15 1.00001 0
-2.91534e-15 1.00001 0
-5.46678e-15 1.00001 0
-3.55884e-15 1.00001 0
-2.91534e-15 1.00001 0
-7.90158e-16 1.00001 0
-8.34806e-15 1.00001 0
1.55193e-14 1.00001 0
1.12089e-14 1.00001 0
2.9696e-14 1.00001 0
1.55193e-14 1.00001 0
2.59689e-14 1.00001 0
2.9696e-14 1.00001 0
2.93341e-14 1.00001 0
1.57521e-14 1.00001 0
-1.53875e-15 1.00001 0
9.97495e-15 1.00001 0
2.60517e-14 1.00001 0
-1.53875e-15 1.00001 0
1.81921e-14 1.00001 0
2.60517e-14 1.00001 0
3.21924e-14 1.00001 0
2.59689e-14 1.00001 0
2.08664e-15 1.00001 0
2.93341e-14 1.00001 0
7.32642e-15 1.00001 0
2.08664e-15 1.00001 0
2.59818e-14 1.00001 0
7.32642e-15 1.00001 0
-2.58054e-14 1.00001 0
1.81921e-14 1.00001 0
-1.12669e-14 1.00001 0
3.21924e-14 1.00001 0
1.12888e-14 1.00001 0
-1.12669e-14 1.00001 0
1.98714e-14 1.00001 0
1.12888e-14 1.00001 0
-9.77705e-15 1.00001 0
1.03519e-14 1 0
5.77423e-15 1 0
-1.25066e-14 1.00001 0
-1.19204e-15 1.00001 0
5.77423e-15 1 0
-7.32963e-15 1 0
-1.19204e-15 1.00001 0
5.28675e-15 1.00001 0
-3.55884e-15 1.00001 0
-5.76646e-15 1.00001 0
-7.90158e-16 1.00001 0
1.11444e-14 1.00001 0
-5.76646e-15 1.00001 0
8.56102e-15 1.00001 0
1.11444e-14 1.00001 0
1.74221e-15 1.00001 0
-7.32963e-15 1 0
4.19421e-17 1 0
5.28675e-15 1.00001 0
6.85131e-15 1.00001 0
4.19421e-17 1 0
5.14127e-15 1 0
6.85131e-15 1.00001 0
4.811e-15 1.00001 0
8.56102e-15 1.00001 0
-3.94317e-15 1.00001 0
1.74221e-15 1.00001 0
7.78062e-15 1.00001 0
-3.94317e-15 1.00001 0
-1.54426e-14 1.00001 0
7.78062e-15 1.00001 0
1.94885e-14 1.00001 0
2.59818e-14 1.00001 0
-7.1574e-15 1.00001 0
-2.58054e-14 1.00001 0
-2.01275e-16 1.00001 0
-7.1574e-15 1.00001 0
-8.121e-15 1.00001 0
-2.01275e-16 1.00001 0
1.19446e-14 1.00001 0
1.98714e-14 1.00001 0
1.03823e-14 1.00001 0
-9.77705e-15 1.00001 0
-1.15109e-14 1.00001 0
1.03823e-14 1.00001 0
2.63439e-14 1.00001 0
-1.15109e-14 1.00001 0
3.89605e-14 1.00001 0
-8.121e-15 1.00001 0
-1.04958e-14 1.00001 0
1.19446e-14 1.00001 0
-7.67705e-16 1.00001 0
-1.04958e-14 1.00001 0
-1.19033e-14 1.00001 0
-7.67705e-16 1.00001 0
1.24887e-14 1.00001 0
2.63439e-14 1.00001 0
5.91554e-14 1.00001 0
3.89605e-14 1.00001 0
8.25009e-14 1.00001 0
5.91554e-14 1.00001 0
2.89187e-14 1.00001 0
8.25009e-14 1.00001 0
3.36499e-14 1.00001 0
5.05977e-14 1.00001 0
3.3832e-14 1.00001 0
3.9242e-14 1.00001 0
3.26748e-14 1.00001 0
3.3832e-14 1.00001 0
-7.32557e-15 1.00001 0
3.26748e-14 1.00001 0
3.84974e-14 1.00001 0
-5.49948e-15 1.00001 0
4.8927e-15 1.00001 0
-8.19383e-15 1.00001 0
-5.17988e-15 1.00001 0
4.8927e-15 1.00001 0
3.04543e-15 1.00001 0
-5.17988e-15 1.00001 0
2.61533e-14 1.00001 0
-7.32557e-15 1.00001 0
-3.8995e-16 1.00001 0
3.84974e-14 1.00001 0
7.88715e-15 1.00001 0
-3.8995e-16 1.00001 0
5.68065e-14 1.00001 0
7.88715e-15 1.00001 0
4.98649e-14 1.00001 0
3.04543e-15 1.00001 0
5.88949e-14 1.00001 0
2.61533e-14 1.00001 0
9.16365e-14 1.00001 0
5.88949e-14 1.00001 0
1.34538e-14 1.00001 0
9.16365e-14 1.00001 0
1.86121e-14 1.00001 0
1.07315e-14 1.00001 0
5.86175e-15 1.00001 0
2.82362e-14 1.00001 0
2.29403e-14 1.00001 0
5.86175e-15 1.00001 0
-7.36077e-15 1.00001 0
2.29403e-14 1.00001 0
5.96975e-15 1.00001 0
-5.20363e-15 1.00001 0
-2.88666e-15 1.00001 0
9.76003e-15 1.00001 0
2.04908e-14 1.00001 0
-2.88666e-15 1.00001 0
-7.29805e-15 1.00001 0
2.04908e-14 1.00001 0
2.06178e-14 1.00001 0
-7.36077e-15 1.00001 0
-1.51712e-14 1.00001 0
5.96975e-15 1.00001 0
1.36199e-14 1.00001 0
-1.51712e-14 1.00001 0
4.7529e-14 1.00001 0
1.36199e-14 1.00001 0
4.72102e-14 1.00001 0
-7.29805e-15 1.00001 0
1.76737e-14 1.00001 0
2.06178e-14 1.00001 0
2.30181e-14 1.00001 0
1.76737e-14 1.00001 0
-3.16799e-16 1.00001 0
2.30181e-14 1.00001 0
-2.30256e-15 1.00001 0
5.68065e-14 1.00001 0
5.33666e-14 1.00001 0
4.98649e-14 1.00001 0
1.71476e-14 1.00001 0
5.33666e-14 1.00001 0
5.25889e-14 1.00001 0
1.71476e-14 1.00001 0
4.40405e-14 1.00001 0
1.34538e-14 1.00001 0
8.30077e-14 1.00001 0
1.86121e-14 1.00001 0
5.96039e-14 1.00001 0
8.30077e-14 1.00001 0
2.60321e-14 1.00001 0
5.96039e-14 1.00001 0
3.55567e-14 1.00001 0
5.25889e-14 1.00001 0
2.68464e-14 1.00001 0
4.40405e-14 1.00001 0
4.95733e-14 1.00001 0
2.68464e-14 1.00001 0
6.97101e-14 1.00001 0
4.95733e-14 1.00001 0
7.85306e-14 1.00001 0
2.60321e-14 1.00001 0
3.39006e-15 1.00001 0
3.55567e-14 1.00001 0
1.78299e-14 1.00001 0
3.39006e-15 1.00001 0
2.19878e-14 1.00001 0
1.78299e-14 1.00001 0
1.05616e-14 1.00001 0
4.7529e-14 1.00001 0
-1.38569e-14 1.00001 0
4.72102e-14 1.00001 0
-1.80068e-14 1.00001 0
-1.38569e-14 1.00001 0
3.09505e-15 1.00001 0
-1.80068e-14 1.00001 0
2.28946e-14 1.00001 0
-3.16799e-16 1.00001 0
3.75705e-14 1.00001 0
-2.30256e-15 1.00001 0
4.57045e-14 1.00001 0
3.75705e-14 1.00001 0
2.19121e-15 1.00001 0
4.57045e-14 1.00001 0
2.05571e-14 1.00001 0
3.09505e-15 1.00001 0
7.95926e-15 1.00001 0
2.28946e-14 1.00001 0
2.87712e-14 1.00001 0
7.95926e-15 1.00001 0
2.49342e-16 1.00001 0
2.87712e-14 1.00001 0
2.80106e-15 1.00001 0
2.19121e-15 1.00001 0
1.39351e-14 1.00001 0
2.05571e-14 1.00001 0
1.35442e-14 1.00001 0
1.39351e-14 1.00001 0
2.88312e-14 1.00001 0
1.35442e-14 1.00001 0
3.20115e-14 1.00001 0
0 1.00001 0
1.10898e-14 1.00001 0
0 1.00001 0
3.43522e-14 1.00001 0
1.10898e-14 1.00001 0
-3.90403e-14 1.00001 0
3.43522e-14 1.00001 0
-7.26353e-15 1.00001 0
0 1.00001 0
1.68821e-14 1.00001 0
0 1.00001 0
3.65555e-14 1.00001 0
1.68821e-14 1.00001 0
-7.09165e-15 1.00001 0
3.65555e-14 1.00001 0
1.63509e-14 1.00001 0
-3.90403e-14 1.00001 0
1.28903e-14 1.00001 0
-7.26353e-15 1.00001 0
1.39084e-14 1.00001 0
1.28903e-14 1.00001 0
-1.83666e-14 1.00001 0
1.39084e-14 1.00001 0
5.29412e-15 1.00001 0
-7.09165e-15 1.00001 0
-3.1785e-14 1.00001 0
1.63509e-14 1.00001 0
-3.4926e-14 1.00001 0
-3.1785e-14 1.00001 0
-6.18065e-15 1.00001 0
-3.4926e-14 1.00001 0
1.46731e-15 1.00001 0
0 1.00001 0
-9.47603e-14 1.00001 0
0 1.00001 0
-9.22645e-14 1.00001 0
-9.47603e-14 1.00001 0
-1.05949e-14 1.00001 0
-9.22645e-14 1.00001 0
-1.38139e-15 1.00001 0
0 1.00001 0
8.18585e-14 1.00001 0
0 1.00001 0
9.90526e-14 1.00001 0
8.18585e-14 1.00001 0
-2.5006e-15 1.00001 0
9.90526e-14 1.00001 0
1.22388e-14 1.00001 0
-1.05949e-14 1.00001 0
1.28447e-14 1.00001 0
-1.38139e-15 1.00001 0
1.11813e-14 1.00001 0
1.28447e-14 1.00001 0
-2.42826e-14 1.00001 0
1.11813e-14 1.00001 0
-3.76455e-14 1.00001 0
-2.5006e-15 1.00001 0
-1.13504e-16 1.00001 0
1.22388e-14 1.00001 0
3.60226e-15 1.00001 0
-1.13504e-16 1.00001 0
3.60937e-14 1.00001 0
3.60226e-15 1.00001 0
4.04387e-14 1.00001 0
-1.83666e-14 1.00001 0
-1.74457e-14 1.00001 0
5.29412e-15 1.00001 0
1.21514e-14 1.00001 0
-1.74457e-14 1.00001 0
1.74062e-15 1.00001 0
1.21514e-14 1.00001 0
1.16567e-14 1.00001 0
-6.18065e-15 1.00001 0
9.64173e-16 1.00001 0
1.46731e-15 1.00001 0
2.01676e-14 1.00001 0
9.64173e-16 1.00001 0
-7.33298e-15 1.00001 0
2.01676e-14 1.00001 0
2.27636e-15 1.00001 0
1.74062e-15 1.00001 0
-8.90908e-15 1.00001 0
1.16567e-14 1.00001 0
8.36181e-15 1.00001 0
-8.90908e-15 1.00001 0
-6.38292e-16 1.00001 0
8.36181e-15 1.00001 0
1.40207e-14 1.00001 0
-7.33298e-15 1.00001 0
3.96814e-15 1.00001 0
2.27636e-15 1.00001 0
-8.57725e-15 1.00001 0
3.96814e-15 1.00001 0
1.21501e-15 1.00001 0
-8.57725e-15 1.00001 0
-3.15813e-15 1.00001 0
-2.42826e-14 1.00001 0
-2.35061e-14 1.00001 0
-3.76455e-14 1.00001 0
2.87307e-15 1.00001 0
-2.35061e-14 1.00001 0
-6.07876e-15 1.00001 0
2.87307e-15 1.00001 0
1.54957e-14 1.00001 0
3.60937e-14 1.00001 0
4.26511e-15 1.00001 0
4.04387e-14 1.00001 0
2.35411e-14 1.00001 0
4.26511e-15 1.00001 0
-1.49914e-15 1.00001 0
2.35411e-14 1.00001 0
-6.68132e-15 1.00001 0
-6.07876e-15 1.00001 0
2.1676e-14 1.00001 0
1.54957e-14 1.00001 0
-1.06874e-15 1.00001 0
2.1676e-14 1.00001 0
-6.4123e-16 1.00001 0
-1.06874e-15 1.00001 0
8.56864e-15 1.00001 0
-1.49914e-15 1.00001 0
-1.05799e-14 1.00001 0
-6.68132e-15 1.00001 0
5.68495e-15 1.00001 0
-1.05799e-14 1.00001 0
-7.06848e-15 1.00001 0
5.68495e-15 1.00001 0
1.75163e-14 1.00001 0
0 1.00001 0
-5.90441e-14 1.00001 0
0 1.00001 0
-4.40113e-14 1.00001 0
-5.90441e-14 1.00001 0
-2.72924e-14 1.00001 0
-4.40113e-14 1.00001 0
-7.71905e-17 1.00001 0
0 1.00001 0
4.69093e-14 1.00001 0
0 1.00001 0
4.66713e-14 1.00001 0
4.69093e-14 1.00001 0
-6.82681e-15 1.00001 0
4.66713e-14 1.00001 0
-2.56948e-15 1.00001 0
-2.72924e-14 1.00001 0
-8.08429e-15 1.00001 0
-7.71905e-17 1.00001 0
-9.96873e-15 1.00001 0
-8.08429e-15 1.00001 0
-4.20066e-15 1.00001 0
-9.96873e-15 1.00001 0
6.70291e-15 1.00001 0
-6.82681e-15 1.00001 0
7.29674e-15 1.00001 0
-2.56948e-15 1.00001 0
1.18881e-14 1.00001 0
7.29674e-15 1.00001 0
1.20223e-15 1.00001 0
1.18881e-14 1.00001 0
-1.17974e-15 1.00001 0
0 1.00001 0
-4.30925e-14 1.00001 0
0 1.00001 0
-4.11124e-14 1.00001 0
-4.30925e-14 1.00001 0
-3.33219e-15 1.00001 0
-4.11124e-14 1.00001 0
-3.31793e-15 1.00001 0
0 1.00001 0
2.84208e-14 1.00001 0
0 1.00001 0
1.85963e-14 1.00001 0
2.84208e-14 1.00001 0
-4.20191e-16 1.00001 0
1.85963e-14 1.00001 0
-6.71435e-15 1.00001 0
-3.33219e-15 1.00001 0
-3.96416e-14 1.00001 0
-3.31793e-15 1.00001 0
-2.7542e-14 1.00001 0
-3.96416e-14 1.00001 0
-2.85593e-14 1.00001 0
-2.7542e-14 1.00001 0
-3.45521e-14 1.00001 0
-4.20191e-16 1.00001 0
2.57799e-14 1.00001 0
-6.71435e-15 1.00001 0
4.09638e-14 1.00001 0
2.57799e-14 1.00001 0
4.58297e-15 1.00001 0
4.09638e-14 1.00001 0
-8.25681e-15 1.00001 0
-4.20066e-15 1.00001 0
-9.21518e-14 1.00001 0
6.70291e-15 1.00001 0
-6.88492e-14 1.00001 0
-9.21518e-14 1.00001 0
9.85534e-15 1.00001 0
-6.88492e-14 1.00001 0
1.40903e-14 1.00001 0
1.20223e-15 1.00001 0
5.53814e-14 1.00001 0
-1.17974e-15 1.00001 0
6.19802e-14 1.00001 0
5.53814e-14 1.00001 0
-1.18897e-16 1.00001 0
6.19802e-14 1.00001 0
5.66671e-15 1.00001 0
9.85534e-15 1.00001 0
7.09009e-15 1.00001 0
1.40903e-14 1.00001 0
2.17049e-14 1.00001 0
7.09009e-15 1.00001 0
-2.48143e-14 1.00001 0
2.17049e-14 1.00001 0
-3.58973e-15 1.00001 0
-1.18897e-16 1.00001 0
-1.73927e-14 1.00001 0
5.66671e-15 1.00001 0
-1.72649e-14 1.00001 0
-1.73927e-14 1.00001 0
8.02039e-16 1.00001 0
-1.72649e-14 1.00001 0
1.37045e-14 1.00001 0
-2.85593e-14 1.00001 0
-1.20635e-14 1.00001 0
-3.45521e-14 1.00001 0
-3.79081e-16 1.00001 0
-1.20635e-14 1.00001 0
-1.20555e-14 1.00001 0
-3.79081e-16 1.00001 0
-1.40846e-14 1.00001 0
4.58297e-15 1.00001 0
-2.5332e-14 1.00001 0
-8.25681e-15 1.00001 0
-2.81007e-14 1.00001 0
-2.5332e-14 1.00001 0
-3.51334e-15 1.00001 0
-2.81007e-14 1.00001 0
-9.97118e-15 1.00001 0
-1.20555e-14 1.00001 0
4.39817e-15 1.00001 0
-1.40846e-14 1.00001 0
5.86386e-15 1.00001 0
4.39817e-15 1.00001 0
2.94743e-15 1.00001 0
5.86386e-15 1.00001 0
8.31894e-15 1.00001 0
-3.51334e-15 1.00001 0
-1.5043e-14 1.00001 0
-9.97118e-15 1.00001 0
-1.2178e-14 1.00001 0
-1.5043e-14 1.00001 0
-1.50982e-14 1.00001 0
-1.2178e-14 1.00001 0
8.87963e-16 1.00001 0
-6.38292e-16 1.00001 0
-1.4534e-14 1.00001 0
1.40207e-14 1.00001 0
2.22268e-15 1.00001 0
-1.4534e-14 1.00001 0
-1.71153e-14 1.00001 0
2.22268e-15 1.00001 0
1.89191e-14 1.00001 0
1.21501e-15 1.00001 0
1.22323e-15 1.00001 0
-3.15813e-15 1.00001 0
2.0618e-15 1.00001 0
1.22323e-15 1.00001 0
-2.63391e-15 1.00001 0
2.0618e-15 1.00001 0
-5.40341e-17 1.00001 0
-1.71153e-14 1.00001 0
5.23928e-15 1.00001 0
1.89191e-14 1.00001 0
1.43349e-14 1.00001 0
5.23928e-15 1.00001 0
3.10865e-14 1.00001 0
1.43349e-14 1.00001 0
2.8041e-14 1.00001 0
-2.63391e-15 1.00001 0
1.96865e-14 1.00001 0
-5.40341e-17 1.00001 0
3.3484e-14 1.00001 0
1.96865e-14 1.00001 0
-1.01826e-14 1.00001 0
3.3484e-14 1.00001 0
1.92939e-15 1.00001 0
-6.4123e-16 1.00001 0
1.96325e-15 1.00001 0
8.56864e-15 1.00001 0
-1.60799e-15 1.00001 0
1.96325e-15 1.00001 0
7.02968e-15 1.00001 0
-1.60799e-15 1.00001 0
-9.83518e-15 1.00001 0
-7.06848e-15 1.00001 0
-9.78192e-15 1.00001 0
1.75163e-14 1.00001 0
2.3384e-14 1.00001 0
-9.78192e-15 1.00001 0
4.2507e-16 1.00001 0
2.3384e-14 1.00001 0
9.23655e-15 1.00001 0
7.02968e-15 1.00001 0
-3.18265e-15 1.00001 0
-9.83518e-15 1.00001 0
1.97788e-14 1.00001 0
-3.18265e-15 1.00001 0
-5.6787e-15 1.00001 0
1.97788e-14 1.00001 0
2.29229e-14 1.00001 0
4.2507e-16 1.00001 0
-5.74287e-14 1.00001 0
9.23655e-15 1.00001 0
-3.94509e-14 1.00001 0
-5.74287e-14 1.00001 0
-2.009e-14 1.00001 0
-3.94509e-14 1.00001 0
-4.76098e-15 1.00001 0
3.10865e-14 1.00001 0
1.3902e-14 1.00001 0
2.8041e-14 1.00001 0
2.63491e-14 1.00001 0
1.3902e-14 1.00001 0
5.87269e-15 1.00001 0
2.63491e-14 1.00001 0
4.45278e-15 1.00001 0
-1.01826e-14 1.00001 0
-1.60639e-14 1.00001 0
1.92939e-15 1.00001 0
3.87442e-15 1.00001 0
-1.60639e-14 1.00001 0
2.25314e-14 1.00001 0
3.87442e-15 1.00001 0
5.75882e-15 1.00001 0
5.87269e-15 1.00001 0
5.90227e-15 1.00001 0
4.45278e-15 1.00001 0
4.92763e-15 1.00001 0
5.90227e-15 1.00001 0
-1.02129e-14 1.00001 0
4.92763e-15 1.00001 0
-7.89183e-16 1.00001 0
2.25314e-14 1.00001 0
4.42662e-15 1.00001 0
5.75882e-15 1.00001 0
1.46025e-14 1.00001 0
4.42662e-15 1.00001 0
8.00782e-15 1.00001 0
1.46025e-14 1.00001 0
-4.78691e-15 1.00001 0
-5.6787e-15 1.00001 0
2.58763e-15 1.00001 0
2.29229e-14 1.00001 0
1.04718e-14 1.00001 0
2.58763e-15 1.00001 0
1.00221e-15 1.00001 0
1.04718e-14 1.00001 0
-1.82073e-14 1.00001 0
-2.009e-14 1.00001 0
-1.25613e-14 1.00001 0
-4.76098e-15 1.00001 0
-2.71189e-15 1.00001 0
-1.25613e-14 1.00001 0
4.29906e-15 1.00001 0
-2.71189e-15 1.00001 0
6.74851e-15 1.00001 0
1.00221e-15 1.00001 0
-9.63606e-15 1.00001 0
-1.82073e-14 1.00001 0
3.68686e-15 1.00001 0
-9.63606e-15 1.00001 0
1.96749e-14 1.00001 0
3.68686e-15 1.00001 0
9.84416e-15 1.00001 0
4.29906e-15 1.00001 0
-2.62445e-15 1.00001 0
6.74851e-15 1.00001 0
1.4355e-14 1.00001 0
-2.62445e-15 1.00001 0
-6.28432e-15 1.00001 0
1.4355e-14 1.00001 0
7.20386e-15 1.00001 0
-2.48143e-14 1.00001 0
-2.11671e-14 1.00001 0
-3.58973e-15 1.00001 0
3.05263e-15 1.00001 0
-2.11671e-14 1.00001 0
-5.41204e-15 1.00001 0
3.05263e-15 1.00001 0
7.27592e-16 1.00001 0
8.02039e-16 1.00001 0
9.17369e-15 1.00001 0
1.37045e-14 1.00001 0
1.29976e-14 1.00001 0
9.17369e-15 1.00001 0
-2.40702e-15 1.00001 0
1.29976e-14 1.00001 0
6.26574e-15 1.00001 0
-5.41204e-15 1.00001 0
4.69192e-14 1.00001 0
7.27592e-16 1.00001 0
5.66041e-14 1.00001 0
4.69192e-14 1.00001 0
1.26948e-14 1.00001 0