# vtk DataFile Version 3.0
#This file was generated by the deal.II library on 2018/10/16 at 7:05:50
ASCII
DATASET UNSTRUCTURED_GRID

POINTS 20480 double
0 0 0
0.19635 0 0
0 0.282833 0
0.19635 0.282833 0
0.19635 0 0
0.392699 0 0
0.19635 0.282833 0
0.392699 0.282833 0
0 0.282833 0
0.19635 0.282833 0
0 0.595252 0
0.19635 0.595252 0
0.19635 0.282833 0
0.392699 0.282833 0
0.19635 0.595252 0
0.392699 0.595252 0
0.392699 0 0
0.589049 0 0
0.392699 0.282833 0
0.589049 0.282833 0
0.589049 0 0
0.785398 0 0
0.589049 0.282833 0
0.785398 0.282833 0
0.392699 0.282833 0
0.589049 0.282833 0
0.392699 0.595252 0
0.589049 0.595252 0
0.589049 0.282833 0
0.785398 0.282833 0
0.589049 0.595252 0
0.785398 0.595252 0
0 0.595252 0
0.19635 0.595252 0
0 0.907652 0
0.19635 0.907652 0
0.19635 0.595252 0
0.392699 0.595252 0
0.19635 0.907652 0
0.392699 0.907652 0
0 0.907652 0
0.19635 0.907652 0
0 1.22167 0
0.19635 1.22167 0
0.19635 0.907652 0
0.392699 0.907652 0
0.19635 1.22167 0
0.392699 1.22167 0
0.392699 0.595252 0
0.589049 0.595252 0
0.392699 0.907652 0
0.589049 0.907652 0
0.589049 0.595252 0
0.785398 0.595252 0
0.589049 0.907652 0
0.785398 0.907652 0
0.392699 0.907652 0
0.589049 0.907652 0
0.392699 1.22167 0
0.589049 1.22167 0
0.589049 0.907652 0
0.785398 0.907652 0
0.589049 1.22167 0
0.785398 1.22167 0
0.785398 0 0
0.981748 0 0
0.785398 0.282833 0
0.981748 0.282833 0
0.981748 0 0
1.1781 0 0
0.981748 0.282833 0
1.1781 0.282833 0
0.785398 0.282833 0
0.981748 0.282833 0
0.785398 0.595252 0
0.981748 0.595252 0
0.981748 0.282833 0
1.1781 0.282833 0
0.981748 0.595252 0
1.1781 0.595252 0
1.1781 0 0
1.37445 0 0
1.1781 0.282833 0
1.37445 0.282833 0
1.37445 0 0
1.5708 0 0
1.37445 0.282833 0
1.5708 0.282833 0
1.1781 0.282833 0
1.37445 0.282833 0
1.1781 0.595252 0
1.37445 0.595252 0
1.37445 0.282833 0
1.5708 0.282833 0
1.37445 0.595252 0
1.5708 0.595252 0
0.785398 0.595252 0
0.981748 0.595252 0
0.785398 0.907652 0
0.981748 0.907652 0
0.981748 0.595252 0
1.1781 0.595252 0
0.981748 0.907652 0
1.1781 0.907652 0
0.785398 0.907652 0
0.981748 0.907652 0
0.785398 1.22167 0
0.981748 1.22167 0
0.981748 0.907652 0
1.1781 0.907652 0
0.981748 1.22167 0
1.1781 1.22167 0
1.1781 0.595252 0
1.37445 0.595252 0
1.1781 0.907652 0
1.37445 0.907652 0
1.37445 0.595252 0
1.5708 0.595252 0
1.37445 0.907652 0
1.5708 0.907652 0
1.1781 0.907652 0
1.37445 0.907652 0
1.1781 1.22167 0
1.37445 1.22167 0
1.37445 0.907652 0
1.5708 0.907652 0
1.37445 1.22167 0
1.5708 1.22167 0
0 1.22167 0
0.19635 1.22167 0
0 1.53527 0
0.19635 1.53527 0
0.19635 1.22167 0
0.392699 1.22167 0
0.19635 1.53527 0
0.392699 1.53527 0
0 1.53527 0
0.19635 1.53527 0
0 1.84902 0
0.19635 1.84902 0
0.19635 1.53527 0
0.392699 1.53527 0
0.19635 1.84902 0
0.392699 1.84902 0
0.392699 1.22167 0
0.589049 1.22167 0
0.392699 1.53527 0
0.589049 1.53527 0
0.589049 1.22167 0
0.785398 1.22167 0
0.589049 1.53527 0
0.785398 1.53527 0
0.392699 1.53527 0
0.589049 1.53527 0
0.392699 1.84902 0
0.589049 1.84902 0
0.589049 1.53527 0
0.785398 1.53527 0
0.589049 1.84902 0
0.785398 1.84902 0
0 1.84902 0
0.19635 1.84902 0
0 2.16268 0
0.19635 2.16268 0
0.19635 1.84902 0
0.392699 1.84902 0
0.19635 2.16268 0
0.392699 2.16268 0
0 2.16268 0
0.19635 2.16268 0
0 2.47634 0
0.19635 2.47634 0
0.19635 2.16268 0
0.392699 2.16268 0
0.19635 2.47634 0
0.392699 2.47634 0
0.392699 1.84902 0
0.589049 1.84902 0
0.392699 2.16268 0
0.589049 2.16268 0
0.589049 1.84902 0
0.785398 1.84902 0
0.589049 2.16268 0
0.785398 2.16268 0
0.392699 2.16268 0
0.589049 2.16268 0
0.392699 2.47634 0
0.589049 2.47634 0
0.589049 2.16268 0
0.785398 2.16268 0
0.589049 2.47634 0
0.785398 2.47634 0
0.785398 1.22167 0
0.981748 1.22167 0
0.785398 1.53527 0
0.981748 1.53527 0
0.981748 1.22167 0
1.1781 1.22167 0
0.981748 1.53527 0
1.1781 1.53527 0
0.785398 1.53527 0
0.981748 1.53527 0
0.785398 1.84902 0
0.981748 1.84902 0
0.981748 1.53527 0
1.1781 1.53527 0
0.981748 1.84902 0
1.1781 1.84902 0
1.1781 1.22167 0
1.37445 1.22167 0
1.1781 1.53527 0
1.37445 1.53527 0
1.37445 1.22167 0
1.5708 1.22167 0
1.37445 1.53527 0
1.5708 1.53527 0
1.1781 1.53527 0
1.37445 1.53527 0
1.1781 1.84902 0
1.37445 1.84902 0
1.37445 1.53527 0
1.5708 1.53527 0
1.37445 1.84902 0
1.5708 1.84902 0
0.785398 1.84902 0
0.981748 1.84902 0
0.785398 2.16268 0
0.981748 2.16268 0
0.981748 1.84902 0
1.1781 1.84902 0
0.981748 2.16268 0
1.1781 2.16268 0
0.785398 2.16268 0
0.981748 2.16268 0
0.785398 2.47634 0
0.981748 2.47634 0
0.981748 2.16268 0
1.1781 2.16268 0
0.981748 2.47634 0
1.1781 2.47634 0
1.1781 1.84902 0
1.37445 1.84902 0
1.1781 2.16268 0
1.37445 2.16268 0
1.37445 1.84902 0
1.5708 1.84902 0
1.37445 2.16268 0
1.5708 2.16268 0
1.1781 2.16268 0
1.37445 2.16268 0
1.1781 2.47634 0
1.37445 2.47634 0
1.37445 2.16268 0
1.5708 2.16268 0
1.37445 2.47634 0
1.5708 2.47634 0
1.5708 0 0
1.76715 0 0
1.5708 0.282833 0
1.76715 0.282833 0
1.76715 0 0
1.9635 0 0
1.76715 0.282833 0
1.9635 0.282833 0
1.5708 0.282833 0
1.76715 0.282833 0
1.5708 0.595252 0
1.76715 0.595252 0
1.76715 0.282833 0
1.9635 0.282833 0
1.76715 0.595252 0
1.9635 0.595252 0
1.9635 0 0
2.15984 0 0
1.9635 0.282833 0
2.15984 0.282833 0
2.15984 0 0
2.35619 0 0
2.15984 0.282833 0
2.35619 0.282833 0
1.9635 0.282833 0
2.15984 0.282833 0
1.9635 0.595252 0
2.15984 0.595252 0
2.15984 0.282833 0
2.35619 0.282833 0
2.15984 0.595252 0
2.35619 0.595252 0
1.5708 0.595252 0
1.76715 0.595252 0
1.5708 0.907652 0
1.76715 0.907652 0
1.76715 0.595252 0
1.9635 0.595252 0
1.76715 0.907652 0
1.9635 0.907652 0
1.5708 0.907652 0
1.76715 0.907652 0
1.5708 1.22167 0
1.76715 1.22167 0
1.76715 0.907652 0
1.9635 0.907652 0
1.76715 1.22167 0
1.9635 1.22167 0
1.9635 0.595252 0
2.15984 0.595252 0
1.9635 0.907652 0
2.15984 0.907652 0
2.15984 0.595252 0
2.35619 0.595252 0
2.15984 0.907652 0
2.35619 0.907652 0
1.9635 0.907652 0
2.15984 0.907652 0
1.9635 1.22167 0
2.15984 1.22167 0
2.15984 0.907652 0
2.35619 0.907652 0
2.15984 1.22167 0
2.35619 1.22167 0
2.35619 0 0
2.55254 0 0
2.35619 0.282833 0
2.55254 0.282833 0
2.55254 0 0
2.74889 0 0
2.55254 0.282833 0
2.74889 0.282833 0
2.35619 0.282833 0
2.55254 0.282833 0
2.35619 0.595252 0
2.55254 0.595252 0
2.55254 0.282833 0
2.74889 0.282833 0
2.55254 0.595252 0
2.74889 0.595252 0
2.74889 0 0
2.94524 0 0
2.74889 0.282833 0
2.94524 0.282833 0
2.94524 0 0
3.14159 0 0
2.94524 0.282833 0
3.14159 0.282833 0
2.74889 0.282833 0
2.94524 0.282833 0
2.74889 0.595252 0
2.94524 0.595252 0
2.94524 0.282833 0
3.14159 0.282833 0
2.94524 0.595252 0
3.14159 0.595252 0
2.35619 0.595252 0
2.55254 0.595252 0
2.35619 0.907652 0
2.55254 0.907652 0
2.55254 0.595252 0
2.74889 0.595252 0
2.55254 0.907652 0
2.74889 0.907652 0
2.35619 0.907652 0
2.55254 0.907652 0
2.35619 1.22167 0
2.55254 1.22167 0
2.55254 0.907652 0
2.74889 0.907652 0
2.55254 1.22167 0
2.74889 1.22167 0
2.74889 0.595252 0
2.94524 0.595252 0
2.74889 0.907652 0
2.94524 0.907652 0
2.94524 0.595252 0
3.14159 0.595252 0
2.94524 0.907652 0
3.14159 0.907652 0
2.74889 0.907652 0
2.94524 0.907652 0
2.74889 1.22167 0
2.94524 1.22167 0
2.94524 0.907652 0
3.14159 0.907652 0
2.94524 1.22167 0
3.14159 1.22167 0
1.5708 1.22167 0
1.76715 1.22167 0
1.5708 1.53527 0
1.76715 1.53527 0
1.76715 1.22167 0
1.9635 1.22167 0
1.76715 1.53527 0
1.9635 1.53527 0
1.5708 1.53527 0
1.76715 1.53527 0
1.5708 1.84902 0
1.76715 1.84902 0
1.76715 1.53527 0
1.9635 1.53527 0
1.76715 1.84902 0
1.9635 1.84902 0
1.9635 1.22167 0
2.15984 1.22167 0
1.9635 1.53527 0
2.15984 1.53527 0
2.15984 1.22167 0
2.35619 1.22167 0
2.15984 1.53527 0
2.35619 1.53527 0
1.9635 1.53527 0
2.15984 1.53527 0
1.9635 1.84902 0
2.15984 1.84902 0
2.15984 1.53527 0
2.35619 1.53527 0
2.15984 1.84902 0
2.35619 1.84902 0
1.5708 1.84902 0
1.76715 1.84902 0
1.5708 2.16268 0
1.76715 2.16268 0
1.76715 1.84902 0
1.9635 1.84902 0
1.76715 2.16268 0
1.9635 2.16268 0
1.5708 2.16268 0
1.76715 2.16268 0
1.5708 2.47634 0
1.76715 2.47634 0
1.76715 2.16268 0
1.9635 2.16268 0
1.76715 2.47634 0
1.9635 2.47634 0
1.9635 1.84902 0
2.15984 1.84902 0
1.9635 2.16268 0
2.15984 2.16268 0
2.15984 1.84902 0
2.35619 1.84902 0
2.15984 2.16268 0
2.35619 2.16268 0
1.9635 2.16268 0
2.15984 2.16268 0
1.9635 2.47634 0
2.15984 2.47634 0
2.15984 2.16268 0
2.35619 2.16268 0
2.15984 2.47634 0
2.35619 2.47634 0
2.35619 1.22167 0
2.55254 1.22167 0
2.35619 1.53527 0
2.55254 1.53527 0
2.55254 1.22167 0
2.74889 1.22167 0
2.55254 1.53527 0
2.74889 1.53527 0
2.35619 1.53527 0
2.55254 1.53527 0
2.35619 1.84902 0
2.55254 1.84902 0
2.55254 1.53527 0
2.74889 1.53527 0
2.55254 1.84902 0
2.74889 1.84902 0
2.74889 1.22167 0
2.94524 1.22167 0
2.74889 1.53527 0
2.94524 1.53527 0
2.94524 1.22167 0
3.14159 1.22167 0
2.94524 1.53527 0
3.14159 1.53527 0
2.74889 1.53527 0
2.94524 1.53527 0
2.74889 1.84902 0
2.94524 1.84902 0
2.94524 1.53527 0
3.14159 1.53527 0
2.94524 1.84902 0
3.14159 1.84902 0
2.35619 1.84902 0
2.55254 1.84902 0
2.35619 2.16268 0
2.55254 2.16268 0
2.55254 1.84902 0
2.74889 1.84902 0
2.55254 2.16268 0
2.74889 2.16268 0
2.35619 2.16268 0
2.55254 2.16268 0
2.35619 2.47634 0
2.55254 2.47634 0
2.55254 2.16268 0
2.74889 2.16268 0
2.55254 2.47634 0
2.74889 2.47634 0
2.74889 1.84902 0
2.94524 1.84902 0
2.74889 2.16268 0
2.94524 2.16268 0
2.94524 1.84902 0
3.14159 1.84902 0
2.94524 2.16268 0
3.14159 2.16268 0
2.74889 2.16268 0
2.94524 2.16268 0
2.74889 2.47634 0
2.94524 2.47634 0
2.94524 2.16268 0
3.14159 2.16268 0
2.94524 2.47634 0
3.14159 2.47634 0
0 2.47634 0
0.19635 2.47634 0
0 2.78997 0
0.19635 2.78997 0
0.19635 2.47634 0
0.392699 2.47634 0
0.19635 2.78997 0
0.392699 2.78997 0
0 2.78997 0
0.19635 2.78997 0
0 3.10357 0
0.19635 3.10357 0
0.19635 2.78997 0
0.392699 2.78997 0
0.19635 3.10357 0
0.392699 3.10357 0
0.392699 2.47634 0
0.589049 2.47634 0
0.392699 2.78997 0
0.589049 2.78997 0
0.589049 2.47634 0
0.785398 2.47634 0
0.589049 2.78997 0
0.785398 2.78997 0
0.392699 2.78997 0
0.589049 2.78997 0
0.392699 3.10357 0
0.589049 3.10357 0
0.589049 2.78997 0
0.785398 2.78997 0
0.589049 3.10357 0
0.785398 3.10357 0
0 3.10357 0
0.19635 3.10357 0
0 3.41715 0
0.19635 3.41715 0
0.19635 3.10357 0
0.392699 3.10357 0
0.19635 3.41715 0
[...]
POINT_DATA 20480
VECTORS uf double
0 1 0
3.06502e-15 1 0
0 1.00001 0
1.09167e-15 1.00001 0
3.06502e-15 1 0
3.11385e-15 1 0
1.09167e-15 1.00001 0
5.686e-16 1.00001 0
0 1.00001 0
-1.19315e-14 1.00001 0
0 1.00001 0
-2.19987e-14 1.00001 0
-1.19315e-14 1.00001 0
-2.16466e-15 1.00001 0
-2.19987e-14 1.00001 0
6.03102e-15 1.00001 0
3.11385e-15 1 0
1.18408e-14 1 0
5.686e-16 1.00001 0
-1.14798e-15 1.00001 0
1.18408e-14 1 0
5.91008e-15 1 0
-1.14798e-15 1.00001 0
4.08105e-15 1.00001 0
-2.16466e-15 1.00001 0
-1.48485e-14 1.00001 0
6.03102e-15 1.00001 0
4.08196e-15 1.00001 0
-1.48485e-14 1.00001 0
-1.40503e-14 1.00001 0
4.08196e-15 1.00001 0
2.54843e-15 1.00001 0
0 1.00001 0
4.50624e-14 1.00001 0
0 1.00001 0
3.20141e-14 1.00001 0
4.50624e-14 1.00001 0
-6.67208e-15 1.00001 0
3.20141e-14 1.00001 0
-4.79771e-15 1.00001 0
0 1.00001 0
-1.83792e-14 1.00001 0
0 1.00001 0
-2.25992e-14 1.00001 0
-1.83792e-14 1.00001 0
-7.88784e-15 1.00001 0
-2.25992e-14 1.00001 0
2.72958e-14 1.00001 0
-6.67208e-15 1.00001 0
3.57312e-15 1.00001 0
-4.79771e-15 1.00001 0
-6.24096e-15 1.00001 0
3.57312e-15 1.00001 0
-2.33055e-15 1.00001 0
-6.24096e-15 1.00001 0
4.39672e-15 1.00001 0
-7.88784e-15 1.00001 0
1.10761e-14 1.00001 0
2.72958e-14 1.00001 0
-1.15308e-15 1.00001 0
1.10761e-14 1.00001 0
5.71855e-15 1.00001 0
-1.15308e-15 1.00001 0
3.81119e-15 1.00001 0
5.91008e-15 1 0
7.02221e-15 1 0
4.08105e-15 1.00001 0
-1.15177e-14 1.00001 0
7.02221e-15 1 0
-1.28448e-14 1 0
-1.15177e-14 1.00001 0
3.01287e-14 1.00001 0
-1.40503e-14 1.00001 0
-1.43435e-15 1.00001 0
2.54843e-15 1.00001 0
4.94373e-15 1.00001 0
-1.43435e-15 1.00001 0
-2.21511e-14 1.00001 0
4.94373e-15 1.00001 0
1.46842e-14 1.00001 0
-1.28448e-14 1 0
9.06926e-16 1 0
3.01287e-14 1.00001 0
-1.22331e-15 1.00001 0
9.06926e-16 1 0
3.33659e-15 1 0
-1.22331e-15 1.00001 0
1.04735e-15 1.00001 0
-2.21511e-14 1.00001 0
-4.42441e-15 1.00001 0
1.46842e-14 1.00001 0
3.07848e-15 1.00001 0
-4.42441e-15 1.00001 0
-1.5108e-15 1.00001 0
3.07848e-15 1.00001 0
1.04306e-14 1.00001 0
-2.33055e-15 1.00001 0
-8.93373e-15 1.00001 0
4.39672e-15 1.00001 0
2.33833e-14 1.00001 0
-8.93373e-15 1.00001 0
-6.79907e-15 1.00001 0
2.33833e-14 1.00001 0
8.32502e-15 1.00001 0
5.71855e-15 1.00001 0
-2.31241e-14 1.00001 0
3.81119e-15 1.00001 0
2.28495e-14 1.00001 0
-2.31241e-14 1.00001 0
-2.08742e-14 1.00001 0
2.28495e-14 1.00001 0
2.24712e-14 1.00001 0
-6.79907e-15 1.00001 0
1.16414e-14 1.00001 0
8.32502e-15 1.00001 0
-1.27896e-14 1.00001 0
1.16414e-14 1.00001 0
-1.8224e-14 1.00001 0
-1.27896e-14 1.00001 0
1.12431e-14 1.00001 0
-2.08742e-14 1.00001 0
3.48549e-15 1.00001 0
2.24712e-14 1.00001 0
2.49676e-15 1.00001 0
3.48549e-15 1.00001 0
1.12642e-15 1.00001 0
2.49676e-15 1.00001 0
-5.46051e-15 1.00001 0
0 1.00001 0
-1.3768e-15 1.00001 0
0 1.00001 0
1.52484e-14 1.00001 0
-1.3768e-15 1.00001 0
-8.32037e-15 1.00001 0
1.52484e-14 1.00001 0
8.68891e-15 1.00001 0
0 1.00001 0
-3.30326e-14 1.00001 0
0 1.00001 0
-2.84174e-14 1.00001 0
-3.30326e-14 1.00001 0
-1.97507e-14 1.00001 0
-2.84174e-14 1.00001 0
1.48434e-14 1.00001 0
-8.32037e-15 1.00001 0
5.31559e-15 1.00001 0
8.68891e-15 1.00001 0
-9.52729e-15 1.00001 0
5.31559e-15 1.00001 0
-8.45617e-15 1.00001 0
-9.52729e-15 1.00001 0
1.06994e-14 1.00001 0
-1.97507e-14 1.00001 0
-2.67257e-15 1.00001 0
1.48434e-14 1.00001 0
-3.43932e-15 1.00001 0
-2.67257e-15 1.00001 0
-1.10384e-14 1.00001 0
-3.43932e-15 1.00001 0
4.30034e-15 1.00001 0
0 1.00001 0
2.70444e-14 1.00001 0
0 1.00001 0
5.53935e-14 1.00001 0
2.70444e-14 1.00001 0
-2.14276e-14 1.00001 0
5.53935e-14 1.00001 0
-1.56083e-15 1.00001 0
0 1.00001 0
-4.70815e-14 1.00001 0
0 1.00001 0
-3.32585e-14 1.00001 0
-4.70815e-14 1.00001 0
2.19728e-14 1.00001 0
-3.32585e-14 1.00001 0
3.23146e-14 1.00001 0
-2.14276e-14 1.00001 0
9.48079e-15 1.00001 0
-1.56083e-15 1.00001 0
5.33682e-15 1.00001 0
9.48079e-15 1.00001 0
-1.29846e-15 1.00001 0
5.33682e-15 1.00001 0
-7.62805e-16 1.00001 0
2.19728e-14 1.00001 0
-9.34134e-15 1.00001 0
3.23146e-14 1.00001 0
3.70337e-15 1.00001 0
-9.34134e-15 1.00001 0
2.87415e-15 1.00001 0
3.70337e-15 1.00001 0
2.03846e-14 1.00001 0
-8.45617e-15 1.00001 0
-1.27932e-14 1.00001 0
1.06994e-14 1.00001 0
1.24646e-14 1.00001 0
-1.27932e-14 1.00001 0
-4.67297e-15 1.00001 0
1.24646e-14 1.00001 0
2.84064e-15 1.00001 0
-1.10384e-14 1.00001 0
3.89676e-15 1.00001 0
4.30034e-15 1.00001 0
1.27544e-14 1.00001 0
3.89676e-15 1.00001 0
-1.01944e-14 1.00001 0
1.27544e-14 1.00001 0
1.71123e-14 1.00001 0
-4.67297e-15 1.00001 0
-1.23694e-15 1.00001 0
2.84064e-15 1.00001 0
3.46038e-15 1.00001 0
-1.23694e-15 1.00001 0
1.18185e-15 1.00001 0
3.46038e-15 1.00001 0
4.72149e-15 1.00001 0
-1.01944e-14 1.00001 0
5.04359e-15 1.00001 0
1.71123e-14 1.00001 0
1.14491e-15 1.00001 0
5.04359e-15 1.00001 0
-5.47368e-15 1.00001 0
1.14491e-15 1.00001 0
2.26534e-15 1.00001 0
-1.29846e-15 1.00001 0
-1.0226e-14 1.00001 0
-7.62805e-16 1.00001 0
-5.69333e-15 1.00001 0
-1.0226e-14 1.00001 0
-1.4211e-15 1.00001 0
-5.69333e-15 1.00001 0
1.91151e-15 1.00001 0
2.87415e-15 1.00001 0
-3.24031e-15 1.00001 0
2.03846e-14 1.00001 0
1.35356e-14 1.00001 0
-3.24031e-15 1.00001 0
5.50779e-15 1.00001 0
1.35356e-14 1.00001 0
-4.72071e-15 1.00001 0
-1.4211e-15 1.00001 0
2.35585e-15 1.00001 0
1.91151e-15 1.00001 0
1.12164e-14 1.00001 0
2.35585e-15 1.00001 0
6.33512e-15 1.00001 0
1.12164e-14 1.00001 0
1.17927e-14 1.00001 0
5.50779e-15 1.00001 0
-1.24942e-14 1.00001 0
-4.72071e-15 1.00001 0
1.64918e-14 1.00001 0
-1.24942e-14 1.00001 0
4.03591e-18 1.00001 0
1.64918e-14 1.00001 0
1.24381e-15 1.00001 0
3.33659e-15 1 0
8.17469e-15 1 0
1.04735e-15 1.00001 0
-3.11062e-15 1.00001 0
8.17469e-15 1 0
-8.63155e-15 1 0
-3.11062e-15 1.00001 0
2.29731e-14 1.00001 0
-1.5108e-15 1.00001 0
4.74233e-15 1.00001 0
1.04306e-14 1.00001 0
-2.36483e-15 1.00001 0
4.74233e-15 1.00001 0
-1.014e-14 1.00001 0
-2.36483e-15 1.00001 0
9.25475e-16 1.00001 0
-8.63155e-15 1 0
4.73555e-15 1 0
2.29731e-14 1.00001 0
4.31696e-15 1.00001 0
4.73555e-15 1 0
1.45027e-14 1 0
4.31696e-15 1.00001 0
-2.40968e-15 1.00001 0
-1.014e-14 1.00001 0
-1.58411e-14 1.00001 0
9.25475e-16 1.00001 0
2.45392e-14 1.00001 0
-1.58411e-14 1.00001 0
-1.59827e-14 1.00001 0
2.45392e-14 1.00001 0
1.76317e-14 1.00001 0
-1.8224e-14 1.00001 0
-1.07446e-14 1.00001 0
1.12431e-14 1.00001 0
-9.5268e-16 1.00001 0
-1.07446e-14 1.00001 0
-5.39955e-16 1.00001 0
-9.5268e-16 1.00001 0
4.84232e-15 1.00001 0
1.12642e-15 1.00001 0
1.25409e-16 1.00001 0
-5.46051e-15 1.00001 0
6.93925e-15 1.00001 0
1.25409e-16 1.00001 0
-2.60917e-14 1.00001 0
6.93925e-15 1.00001 0
2.13749e-14 1.00001 0
-5.39955e-16 1.00001 0
-1.88121e-14 1.00001 0
4.84232e-15 1.00001 0
1.30176e-15 1.00001 0
-1.88121e-14 1.00001 0
8.18245e-15 1.00001 0
1.30176e-15 1.00001 0
-1.51765e-14 1.00001 0
-2.60917e-14 1.00001 0
1.23088e-15 1.00001 0
2.13749e-14 1.00001 0
2.33897e-16 1.00001 0
1.23088e-15 1.00001 0
1.94125e-15 1.00001 0
2.33897e-16 1.00001 0
-1.69081e-14 1.00001 0
1.45027e-14 1 0
3.43093e-15 1 0
-2.40968e-15 1.00001 0
8.39246e-15 1.00001 0
3.43093e-15 1 0
4.20614e-15 1 0
8.39246e-15 1.00001 0
7.08216e-15 1.00001 0
-1.59827e-14 1.00001 0
3.17306e-16 1.00001 0
1.76317e-14 1.00001 0
3.24845e-15 1.00001 0
3.17306e-16 1.00001 0
9.20104e-15 1.00001 0
3.24845e-15 1.00001 0
-1.08676e-14 1.00001 0
4.20614e-15 1 0
7.1725e-15 1 0
7.08216e-15 1.00001 0
1.23283e-14 1.00001 0
7.1725e-15 1 0
1.4016e-14 1 0
1.23283e-14 1.00001 0
-1.68998e-16 1.00001 0
9.20104e-15 1.00001 0
-1.40564e-14 1.00001 0
-1.08676e-14 1.00001 0
1.26634e-14 1.00001 0
-1.40564e-14 1.00001 0
-1.8158e-14 1.00001 0
1.26634e-14 1.00001 0
2.02749e-14 1.00001 0
8.18245e-15 1.00001 0
-2.79005e-15 1.00001 0
-1.51765e-14 1.00001 0
5.62684e-15 1.00001 0
-2.79005e-15 1.00001 0
-5.39166e-15 1.00001 0
5.62684e-15 1.00001 0
6.82569e-15 1.00001 0
1.94125e-15 1.00001 0
-9.32944e-15 1.00001 0
-1.69081e-14 1.00001 0
-6.42758e-16 1.00001 0
-9.32944e-15 1.00001 0
-6.73851e-15 1.00001 0
-6.42758e-16 1.00001 0
8.01394e-15 1.00001 0
-5.39166e-15 1.00001 0
-9.19766e-15 1.00001 0
6.82569e-15 1.00001 0
2.63311e-15 1.00001 0
-9.19766e-15 1.00001 0
-1.35468e-14 1.00001 0
2.63311e-15 1.00001 0
1.44346e-14 1.00001 0
-6.73851e-15 1.00001 0
-1.49256e-14 1.00001 0
8.01394e-15 1.00001 0
2.61364e-14 1.00001 0
-1.49256e-14 1.00001 0
-7.88923e-15 1.00001 0
2.61364e-14 1.00001 0
9.53118e-15 1.00001 0
1.18185e-15 1.00001 0
-5.99433e-15 1.00001 0
4.72149e-15 1.00001 0
7.27849e-15 1.00001 0
-5.99433e-15 1.00001 0
-2.80888e-15 1.00001 0
7.27849e-15 1.00001 0
-2.5067e-15 1.00001 0
-5.47368e-15 1.00001 0
-2.64639e-16 1.00001 0
2.26534e-15 1.00001 0
3.54157e-15 1.00001 0
-2.64639e-16 1.00001 0
8.28557e-15 1.00001 0
3.54157e-15 1.00001 0
1.95905e-14 1.00001 0
-2.80888e-15 1.00001 0
-8.70233e-15 1.00001 0
-2.5067e-15 1.00001 0
2.11554e-14 1.00001 0
-8.70233e-15 1.00001 0
2.79351e-14 1.00001 0
2.11554e-14 1.00001 0
-2.55284e-14 1.00001 0
8.28557e-15 1.00001 0
-2.13476e-14 1.00001 0
1.95905e-14 1.00001 0
1.87252e-14 1.00001 0
-2.13476e-14 1.00001 0
1.05624e-14 1.00001 0
1.87252e-14 1.00001 0
-1.43042e-15 1.00001 0
6.33512e-15 1.00001 0
1.2314e-14 1.00001 0
1.17927e-14 1.00001 0
1.47822e-14 1.00001 0
1.2314e-14 1.00001 0
-8.70607e-15 1.00001 0
1.47822e-14 1.00001 0
1.5597e-14 1.00001 0
4.03591e-18 1.00001 0
-4.5032e-15 1.00001 0
1.24381e-15 1.00001 0
2.0831e-14 1.00001 0
-4.5032e-15 1.00001 0
-1.18531e-14 1.00001 0
2.0831e-14 1.00001 0
2.0174e-14 1.00001 0
-8.70607e-15 1.00001 0
-1.27023e-14 1.00001 0
1.5597e-14 1.00001 0
1.82336e-14 1.00001 0
-1.27023e-14 1.00001 0
7.42445e-15 1.00001 0
1.82336e-14 1.00001 0
1.80161e-15 1.00001 0
-1.18531e-14 1.00001 0
-3.69174e-15 1.00001 0
2.0174e-14 1.00001 0
4.30297e-15 1.00001 0
-3.69174e-15 1.00001 0
-2.71224e-15 1.00001 0
4.30297e-15 1.00001 0
6.87662e-16 1.00001 0
2.79351e-14 1.00001 0
-4.69263e-15 1.00001 0
-2.55284e-14 1.00001 0
6.67903e-15 1.00001 0
-4.69263e-15 1.00001 0
-9.78053e-15 1.00001 0
6.67903e-15 1.00001 0
1.03301e-14 1.00001 0
1.05624e-14 1.00001 0
-7.77447e-15 1.00001 0
-1.43042e-15 1.00001 0
-6.71831e-15 1.00001 0
-7.77447e-15 1.00001 0
-1.67613e-14 1.00001 0
-6.71831e-15 1.00001 0
8.73244e-15 1.00001 0
-9.78053e-15 1.00001 0
-2.40697e-14 1.00001 0
1.03301e-14 1.00001 0
2.80307e-15 1.00001 0
-2.40697e-14 1.00001 0
-4.28308e-15 1.00001 0
2.80307e-15 1.00001 0
-3.47769e-15 1.00001 0
-1.67613e-14 1.00001 0
7.99046e-15 1.00001 0
8.73244e-15 1.00001 0
-2.83567e-15 1.00001 0
7.99046e-15 1.00001 0
-1.23373e-15 1.00001 0
-2.83567e-15 1.00001 0
4.45011e-15 1.00001 0
7.42445e-15 1.00001 0
5.83947e-15 1.00001 0
1.80161e-15 1.00001 0
1.00765e-14 1.00001 0
5.83947e-15 1.00001 0
1.36348e-14 1.00001 0
1.00765e-14 1.00001 0
-6.84362e-15 1.00001 0
-2.71224e-15 1.00001 0
3.79741e-15 1.00001 0
6.87662e-16 1.00001 0
9.71012e-15 1.00001 0
3.79741e-15 1.00001 0
5.18051e-15 1.00001 0
9.71012e-15 1.00001 0
1.51076e-14 1.00001 0
1.36348e-14 1.00001 0
6.04934e-15 1.00001 0
-6.84362e-15 1.00001 0
1.56432e-14 1.00001 0
6.04934e-15 1.00001 0
-8.26237e-15 1.00001 0
1.56432e-14 1.00001 0
2.48318e-14 1.00001 0
5.18051e-15 1.00001 0
9.72859e-16 1.00001 0
1.51076e-14 1.00001 0
1.0959e-14 1.00001 0
9.72859e-16 1.00001 0
7.06837e-15 1.00001 0
1.0959e-14 1.00001 0
1.41684e-14 1.00001 0
0 1.00001 0
1.60347e-14 1.00001 0
0 1.00001 0
1.93865e-14 1.00001 0
1.60347e-14 1.00001 0
-3.66039e-14 1.00001 0
1.93865e-14 1.00001 0
-1.03288e-14 1.00001 0
0 1.00001 0
2.526e-14 1.00001 0
0 1.00001 0
3.68959e-14 1.00001 0
2.526e-14 1.00001 0
-8.87555e-15 1.00001 0
3.68959e-14 1.00001 0
1.23036e-14 1.00001 0
-3.66039e-14 1.00001 0
-1.47994e-15 1.00001 0
-1.03288e-14 1.00001 0
1.48509e-15 1.00001 0
-1.47994e-15 1.00001 0
-1.94069e-14 1.00001 0
1.48509e-15 1.00001 0
9.49419e-16 1.00001 0
-8.87555e-15 1.00001 0
-1.86258e-14 1.00001 0
1.23036e-14 1.00001 0
-2.24942e-14 1.00001 0
-1.86258e-14 1.00001 0
-6.2985e-16 1.00001 0
-2.24942e-14 1.00001 0
1.65813e-15 1.00001 0
0 1.00001 0
-9.87647e-14 1.00001 0
0 1.00001 0
-7.78181e-14 1.00001 0
-9.87647e-14 1.00001 0
4.74129e-15 1.00001 0
-7.78181e-14 1.00001 0
6.09173e-16 1.00001 0
0 1.00001 0
8.28825e-14 1.00001 0
0 1.00001 0
7.98331e-14 1.00001 0
8.28825e-14 1.00001 0
6.82132e-16 1.00001 0
7.98331e-14 1.00001 0
4.85443e-15 1.00001 0
4.74129e-15 1.00001 0
1.31431e-14 1.00001 0
6.09173e-16 1.00001 0
1.74685e-14 1.00001 0
1.31431e-14 1.00001 0
-3.13555e-14 1.00001 0
1.74685e-14 1.00001 0
-2.66356e-14 1.00001 0
6.82132e-16 1.00001 0
2.59989e-15 1.00001 0
4.85443e-15 1.00001 0
1.75646e-15 1.00001 0
2.59989e-15 1.00001 0
2.97709e-14 1.00001 0
1.75646e-15 1.00001 0
3.07159e-14 1.00001 0
-1.94069e-14 1.00001 0
-2.37654e-14 1.00001 0
9.49419e-16 1.00001 0
1.50724e-14 1.00001 0
-2.37654e-14 1.00001 0
-8.89896e-15 1.00001 0
1.50724e-14 1.00001 0
1.0825e-14 1.00001 0
-6.2985e-16 1.00001 0
-5.86631e-15 1.00001 0
1.65813e-15 1.00001 0
2.61437e-14 1.00001 0
-5.86631e-15 1.00001 0
-3.54218e-15 1.00001 0
2.61437e-14 1.00001 0
7.43002e-15 1.00001 0
-8.89896e-15 1.00001 0
-1.74351e-14 1.00001 0
1.0825e-14 1.00001 0
1.05297e-14 1.00001 0
-1.74351e-14 1.00001 0
-5.38148e-15 1.00001 0
1.05297e-14 1.00001 0
2.20147e-14 1.00001 0
-3.54218e-15 1.00001 0
2.02535e-15 1.00001 0
7.43002e-15 1.00001 0
-5.17291e-15 1.00001 0
2.02535e-15 1.00001 0
-4.87813e-15 1.00001 0
-5.17291e-15 1.00001 0
-1.66339e-15 1.00001 0
-3.13555e-14 1.00001 0
-2.79927e-14 1.00001 0
-2.66356e-14 1.00001 0
9.16474e-15 1.00001 0
-2.79927e-14 1.00001 0
-1.01867e-14 1.00001 0
9.16474e-15 1.00001 0
1.02754e-14 1.00001 0
2.97709e-14 1.00001 0
1.34535e-15 1.00001 0
3.07159e-14 1.00001 0
1.50853e-14 1.00001 0
1.34535e-15 1.00001 0
5.20687e-15 1.00001 0
1.50853e-14 1.00001 0
-1.80902e-15 1.00001 0
-1.01867e-14 1.00001 0
4.29679e-15 1.00001 0
1.02754e-14 1.00001 0
1.15713e-14 1.00001 0
4.29679e-15 1.00001 0
-1.71797e-15 1.00001 0
1.15713e-14 1.00001 0
-8.31679e-16 1.00001 0
5.20687e-15 1.00001 0
-8.06875e-15 1.00001 0
-1.80902e-15 1.00001 0
6.3128e-15 1.00001 0
-8.06875e-15 1.00001 0
6.28625e-15 1.00001 0
6.3128e-15 1.00001 0
4.49581e-15 1.00001 0
0 1.00001 0
-4.50377e-14 1.00001 0
0 1.00001 0
-4.25218e-14 1.00001 0
-4.50377e-14 1.00001 0
-2.15237e-14 1.00001 0
-4.25218e-14 1.00001 0
-5.55336e-15 1.00001 0
0 1.00001 0
4.00759e-14 1.00001 0
0 1.00001 0
3.09415e-14 1.00001 0
4.00759e-14 1.00001 0
-1.73254e-14 1.00001 0
3.09415e-14 1.00001 0
-1.62745e-14 1.00001 0
-2.15237e-14 1.00001 0
-2.37375e-14 1.00001 0
-5.55336e-15 1.00001 0
-1.85237e-14 1.00001 0
-2.37375e-14 1.00001 0
1.55562e-15 1.00001 0
-1.85237e-14 1.00001 0
-1.78857e-15 1.00001 0
-1.73254e-14 1.00001 0
6.26054e-16 1.00001 0
-1.62745e-14 1.00001 0
9.76069e-15 1.00001 0
6.26054e-16 1.00001 0
-2.12796e-15 1.00001 0
9.76069e-15 1.00001 0
5.68223e-15 1.00001 0
0 1.00001 0
-3.22173e-14 1.00001 0
0 1.00001 0
-3.24895e-14 1.00001 0
-3.22173e-14 1.00001 0
1.37811e-14 1.00001 0
-3.24895e-14 1.00001 0
9.39925e-16 1.00001 0
0 1.00001 0
1.9079e-14 1.00001 0
0 1.00001 0
2.38918e-14 1.00001 0
1.9079e-14 1.00001 0
2.51494e-15 1.00001 0
2.38918e-14 1.00001 0
-5.58415e-15 1.00001 0
1.37811e-14 1.00001 0
-2.93562e-14 1.00001 0
9.39925e-16 1.00001 0
-2.15741e-14 1.00001 0
-2.93562e-14 1.00001 0
-3.30121e-14 1.00001 0
-2.15741e-14 1.00001 0
-2.84927e-14 1.00001 0
2.51494e-15 1.00001 0
2.65223e-14 1.00001 0
-5.58415e-15 1.00001 0
3.30844e-14 1.00001 0
2.65223e-14 1.00001 0
5.2791e-15 1.00001 0
3.30844e-14 1.00001 0
1.90934e-15 1.00001 0
1.55562e-15 1.00001 0
-9.11524e-14 1.00001 0
-1.78857e-15 1.00001 0
-7.13292e-14 1.00001 0
-9.11524e-14 1.00001 0
1.06095e-15 1.00001 0
-7.13292e-14 1.00001 0
-5.65931e-16 1.00001 0
-2.12796e-15 1.00001 0
4.56139e-14 1.00001 0
5.68223e-15 1.00001 0
5.18722e-14 1.00001 0
4.56139e-14 1.00001 0
4.01456e-15 1.00001 0
5.18722e-14 1.00001 0
-1.8547e-15 1.00001 0
1.06095e-15 1.00001 0
2.07457e-15 1.00001 0
-5.65931e-16 1.00001 0
1.44297e-14 1.00001 0
2.07457e-15 1.00001 0
-1.63708e-14 1.00001 0
1.44297e-14 1.00001 0
-8.63142e-15 1.00001 0
4.01456e-15 1.00001 0
-1.03856e-14 1.00001 0
-1.8547e-15 1.00001 0
-5.75634e-15 1.00001 0
-1.03856e-14 1.00001 0
-7.29741e-16 1.00001 0
-5.75634e-15 1.00001 0
1.67819e-14 1.00001 0
-3.30121e-14 1.00001 0
-1.96839e-15 1.00001 0
-2.84927e-14 1.00001 0
6.28769e-15 1.00001 0
-1.96839e-15 1.00001 0
-5.91844e-15 1.00001 0
6.28769e-15 1.00001 0
-6.11877e-15 1.00001 0
5.2791e-15 1.00001 0
-2.05574e-14 1.00001 0
1.90934e-15 1.00001 0
-2.43883e-14 1.00001 0
-2.05574e-14 1.00001 0
3.93286e-15 1.00001 0
-2.43883e-14 1.00001 0
-1.03163e-14 1.00001 0
-5.91844e-15 1.00001 0
-2.66957e-15 1.00001 0
-6.11877e-15 1.00001 0
-5.15374e-15 1.00001 0
-2.66957e-15 1.00001 0
-6.96195e-15 1.00001 0
-5.15374e-15 1.00001 0
1.71131e-14 1.00001 0
3.93286e-15 1.00001 0
-1.06357e-14 1.00001 0
-1.03163e-14 1.00001 0
3.26262e-15 1.00001 0
-1.06357e-14 1.00001 0
-1.59879e-14 1.00001 0
3.26262e-15 1.00001 0
4.13008e-15 1.00001 0
-5.38148e-15 1.00001 0
-1.36048e-14 1.00001 0
2.20147e-14 1.00001 0
2.68687e-15 1.00001 0
-1.36048e-14 1.00001 0
-1.56336e-14 1.00001 0
2.68687e-15 1.00001 0
2.56136e-14 1.00001 0
-4.87813e-15 1.00001 0
-5.4452e-15 1.00001 0
-1.66339e-15 1.00001 0
9.12089e-15 1.00001 0
-5.4452e-15 1.00001 0
-7.37946e-15 1.00001 0
9.12089e-15 1.00001 0
9.68635e-16 1.00001 0
-1.56336e-14 1.00001 0
-1.43909e-14 1.00001 0
2.56136e-14 1.00001 0
1.41494e-14 1.00001 0
-1.43909e-14 1.00001 0
-8.35802e-17 1.00001 0
1.41494e-14 1.00001 0
2.51571e-14 1.00001 0
-7.37946e-15 1.00001 0
8.06012e-16 1.00001 0
9.68635e-16 1.00001 0
1.40764e-14 1.00001 0
8.06012e-16 1.00001 0
-1.29861e-14 1.00001 0
1.40764e-14 1.00001 0
1.06462e-15 1.00001 0
-1.71797e-15 1.00001 0
-7.9374e-15 1.00001 0
-8.31679e-16 1.00001 0
9.89419e-15 1.00001 0
-7.9374e-15 1.00001 0
-4.81025e-15 1.00001 0
9.89419e-15 1.00001 0
1.01767e-15 1.00001 0
6.28625e-15 1.00001 0
-1.33885e-14 1.00001 0
4.49581e-15 1.00001 0
1.47527e-14 1.00001 0
-1.33885e-14 1.00001 0
-1.07735e-15 1.00001 0
1.47527e-14 1.00001 0
7.252e-17 1.00001 0
-4.81025e-15 1.00001 0
-1.51705e-14 1.00001 0
1.01767e-15 1.00001 0
1.92723e-14 1.00001 0
-1.51705e-14 1.00001 0
-1.94664e-15 1.00001 0
1.92723e-14 1.00001 0
1.15905e-14 1.00001 0
-1.07735e-15 1.00001 0
-1.76748e-14 1.00001 0
7.252e-17 1.00001 0
-4.12997e-15 1.00001 0
-1.76748e-14 1.00001 0
-1.31409e-15 1.00001 0
-4.12997e-15 1.00001 0
-4.65692e-15 1.00001 0
-8.35802e-17 1.00001 0
5.29919e-15 1.00001 0
2.51571e-14 1.00001 0
7.34405e-15 1.00001 0
5.29919e-15 1.00001 0
-3.99483e-15 1.00001 0
7.34405e-15 1.00001 0
6.73731e-15 1.00001 0
-1.29861e-14 1.00001 0
-8.96696e-15 1.00001 0
1.06462e-15 1.00001 0
-2.12173e-15 1.00001 0
-8.96696e-15 1.00001 0
1.07769e-14 1.00001 0
-2.12173e-15 1.00001 0
1.84714e-14 1.00001 0
-3.99483e-15 1.00001 0
-4.86864e-16 1.00001 0
6.73731e-15 1.00001 0
7.47775e-15 1.00001 0
-4.86864e-16 1.00001 0
-5.66274e-15 1.00001 0
7.47775e-15 1.00001 0
-2.64486e-15 1.00001 0
1.07769e-14 1.00001 0
8.40671e-15 1.00001 0
1.84714e-14 1.00001 0
3.63515e-15 1.00001 0
8.40671e-15 1.00001 0
2.65853e-15 1.00001 0
3.63515e-15 1.00001 0
1.28888e-15 1.00001 0
-1.94664e-15 1.00001 0
6.389e-15 1.00001 0
1.15905e-14 1.00001 0
8.73111e-15 1.00001 0
6.389e-15 1.00001 0
-1.46266e-14 1.00001 0
8.73111e-15 1.00001 0
-1.02708e-14 1.00001 0
-1.31409e-15 1.00001 0
-1.2533e-14 1.00001 0
-4.65692e-15 1.00001 0
6.8035e-15 1.00001 0
-1.2533e-14 1.00001 0
6.70587e-15 1.00001 0
6.8035e-15 1.00001 0
5.76992e-15 1.00001 0
-1.46266e-14 1.00001 0
-5.4975e-15 1.00001 0
-1.02708e-14 1.00001 0
2.42121e-15 1.00001 0
-5.4975e-15 1.00001 0
1.18799e-14 1.00001 0
2.42121e-15 1.00001 0
1.09709e-14 1.00001 0
6.70587e-15 1.00001 0
3.2043e-16 1.00001 0
5.76992e-15 1.00001 0
1.94649e-14 1.00001 0
3.2043e-16 1.00001 0
1.14285e-15 1.00001 0
1.94649e-14 1.00001 0
6.6442e-15 1.00001 0
-1.63708e-14 1.00001 0
-1.55086e-14 1.00001 0
-8.63142e-15 1.00001 0
-2.90804e-16 1.00001 0
-1.55086e-14 1.00001 0
-2.38022e-15 1.00001 0
-2.90804e-16 1.00001 0
-1.988e-15 1.00001 0
-7.29741e-16 1.00001 0
6.57544e-15 1.00001 0
1.67819e-14 1.00001 0
2.13544e-14 1.00001 0
6.57544e-15 1.00001 0
-5.6157e-15 1.00001 0
2.13544e-14 1.00001 0
4.69091e-15 1.00001 0
-2.38022e-15 1.00001 0
1.25438e-14 1.00001 0
-1.988e-15 1.00001 0
1.25465e-14 1.00001 0