# vtk DataFile Version 3.0
#This file was generated by the deal.II library on 2018/10/15 at 21:33:30
ASCII
DATASET UNSTRUCTURED_GRID

POINTS 20480 double
0 0 0
0.19635 0 0
0 0.291972 0
0.19635 0.291972 0
0.19635 0 0
0.392699 0 0
0.19635 0.291972 0
0.392699 0.291972 0
0 0.291972 0
0.19635 0.291972 0
0 0.604756 0
0.19635 0.604756 0
0.19635 0.291972 0
0.392699 0.291972 0
0.19635 0.604756 0
0.392699 0.604756 0
0.392699 0 0
0.589049 0 0
0.392699 0.291972 0
0.589049 0.291972 0
0.589049 0 0
0.785398 0 0
0.589049 0.291972 0
0.785398 0.291972 0
0.392699 0.291972 0
0.589049 0.291972 0
0.392699 0.604756 0
0.589049 0.604756 0
0.589049 0.291972 0
0.785398 0.291972 0
0.589049 0.604756 0
0.785398 0.604756 0
0 0.604756 0
0.19635 0.604756 0
0 0.917277 0
0.19635 0.917277 0
0.19635 0.604756 0
0.392699 0.604756 0
0.19635 0.917277 0
0.392699 0.917277 0
0 0.917277 0
0.19635 0.917277 0
0 1.23078 0
0.19635 1.23078 0
0.19635 0.917277 0
0.392699 0.917277 0
0.19635 1.23078 0
0.392699 1.23078 0
0.392699 0.604756 0
0.589049 0.604756 0
0.392699 0.917277 0
0.589049 0.917277 0
0.589049 0.604756 0
0.785398 0.604756 0
0.589049 0.917277 0
0.785398 0.917277 0
0.392699 0.917277 0
0.589049 0.917277 0
0.392699 1.23078 0
0.589049 1.23078 0
0.589049 0.917277 0
0.785398 0.917277 0
0.589049 1.23078 0
0.785398 1.23078 0
0.785398 0 0
0.981748 0 0
0.785398 0.291972 0
0.981748 0.291972 0
0.981748 0 0
1.1781 0 0
0.981748 0.291972 0
1.1781 0.291972 0
0.785398 0.291972 0
0.981748 0.291972 0
0.785398 0.604756 0
0.981748 0.604756 0
0.981748 0.291972 0
1.1781 0.291972 0
0.981748 0.604756 0
1.1781 0.604756 0
1.1781 0 0
1.37445 0 0
1.1781 0.291972 0
1.37445 0.291972 0
1.37445 0 0
1.5708 0 0
1.37445 0.291972 0
1.5708 0.291972 0
1.1781 0.291972 0
1.37445 0.291972 0
1.1781 0.604756 0
1.37445 0.604756 0
1.37445 0.291972 0
1.5708 0.291972 0
1.37445 0.604756 0
1.5708 0.604756 0
0.785398 0.604756 0
0.981748 0.604756 0
0.785398 0.917277 0
0.981748 0.917277 0
0.981748 0.604756 0
1.1781 0.604756 0
0.981748 0.917277 0
1.1781 0.917277 0
0.785398 0.917277 0
0.981748 0.917277 0
0.785398 1.23078 0
0.981748 1.23078 0
0.981748 0.917277 0
1.1781 0.917277 0
0.981748 1.23078 0
1.1781 1.23078 0
1.1781 0.604756 0
1.37445 0.604756 0
1.1781 0.917277 0
1.37445 0.917277 0
1.37445 0.604756 0
1.5708 0.604756 0
1.37445 0.917277 0
1.5708 0.917277 0
1.1781 0.917277 0
1.37445 0.917277 0
1.1781 1.23078 0
1.37445 1.23078 0
1.37445 0.917277 0
1.5708 0.917277 0
1.37445 1.23078 0
1.5708 1.23078 0
0 1.23078 0
0.19635 1.23078 0
0 1.54404 0
0.19635 1.54404 0
0.19635 1.23078 0
0.392699 1.23078 0
0.19635 1.54404 0
0.392699 1.54404 0
0 1.54404 0
0.19635 1.54404 0
0 1.85737 0
0.19635 1.85737 0
0.19635 1.54404 0
0.392699 1.54404 0
0.19635 1.85737 0
0.392699 1.85737 0
0.392699 1.23078 0
0.589049 1.23078 0
0.392699 1.54404 0
0.589049 1.54404 0
0.589049 1.23078 0
0.785398 1.23078 0
0.589049 1.54404 0
0.785398 1.54404 0
0.392699 1.54404 0
0.589049 1.54404 0
0.392699 1.85737 0
0.589049 1.85737 0
0.589049 1.54404 0
0.785398 1.54404 0
0.589049 1.85737 0
0.785398 1.85737 0
0 1.85737 0
0.19635 1.85737 0
0 2.17066 0
0.19635 2.17066 0
0.19635 1.85737 0
0.392699 1.85737 0
0.19635 2.17066 0
0.392699 2.17066 0
0 2.17066 0
0.19635 2.17066 0
0 2.48394 0
0.19635 2.48394 0
0.19635 2.17066 0
0.392699 2.17066 0
0.19635 2.48394 0
0.392699 2.48394 0
0.392699 1.85737 0
0.589049 1.85737 0
0.392699 2.17066 0
0.589049 2.17066 0
0.589049 1.85737 0
0.785398 1.85737 0
0.589049 2.17066 0
0.785398 2.17066 0
0.392699 2.17066 0
0.589049 2.17066 0
0.392699 2.48394 0
0.589049 2.48394 0
0.589049 2.17066 0
0.785398 2.17066 0
0.589049 2.48394 0
0.785398 2.48394 0
0.785398 1.23078 0
0.981748 1.23078 0
0.785398 1.54404 0
0.981748 1.54404 0
0.981748 1.23078 0
1.1781 1.23078 0
0.981748 1.54404 0
1.1781 1.54404 0
0.785398 1.54404 0
0.981748 1.54404 0
0.785398 1.85737 0
0.981748 1.85737 0
0.981748 1.54404 0
1.1781 1.54404 0
0.981748 1.85737 0
1.1781 1.85737 0
1.1781 1.23078 0
1.37445 1.23078 0
1.1781 1.54404 0
1.37445 1.54404 0
1.37445 1.23078 0
1.5708 1.23078 0
1.37445 1.54404 0
1.5708 1.54404 0
1.1781 1.54404 0
1.37445 1.54404 0
1.1781 1.85737 0
1.37445 1.85737 0
1.37445 1.54404 0
1.5708 1.54404 0
1.37445 1.85737 0
1.5708 1.85737 0
0.785398 1.85737 0
0.981748 1.85737 0
0.785398 2.17066 0
0.981748 2.17066 0
0.981748 1.85737 0
1.1781 1.85737 0
0.981748 2.17066 0
1.1781 2.17066 0
0.785398 2.17066 0
0.981748 2.17066 0
0.785398 2.48394 0
0.981748 2.48394 0
0.981748 2.17066 0
1.1781 2.17066 0
0.981748 2.48394 0
1.1781 2.48394 0
1.1781 1.85737 0
1.37445 1.85737 0
1.1781 2.17066 0
1.37445 2.17066 0
1.37445 1.85737 0
1.5708 1.85737 0
1.37445 2.17066 0
1.5708 2.17066 0
1.1781 2.17066 0
1.37445 2.17066 0
1.1781 2.48394 0
1.37445 2.48394 0
1.37445 2.17066 0
1.5708 2.17066 0
1.37445 2.48394 0
1.5708 2.48394 0
1.5708 0 0
1.76715 0 0
1.5708 0.291972 0
1.76715 0.291972 0
1.76715 0 0
1.9635 0 0
1.76715 0.291972 0
1.9635 0.291972 0
1.5708 0.291972 0
1.76715 0.291972 0
1.5708 0.604756 0
1.76715 0.604756 0
1.76715 0.291972 0
1.9635 0.291972 0
1.76715 0.604756 0
1.9635 0.604756 0
1.9635 0 0
2.15984 0 0
1.9635 0.291972 0
2.15984 0.291972 0
2.15984 0 0
2.35619 0 0
2.15984 0.291972 0
2.35619 0.291972 0
1.9635 0.291972 0
2.15984 0.291972 0
1.9635 0.604756 0
2.15984 0.604756 0
2.15984 0.291972 0
2.35619 0.291972 0
2.15984 0.604756 0
2.35619 0.604756 0
1.5708 0.604756 0
1.76715 0.604756 0
1.5708 0.917277 0
1.76715 0.917277 0
1.76715 0.604756 0
1.9635 0.604756 0
1.76715 0.917277 0
1.9635 0.917277 0
1.5708 0.917277 0
1.76715 0.917277 0
1.5708 1.23078 0
1.76715 1.23078 0
1.76715 0.917277 0
1.9635 0.917277 0
1.76715 1.23078 0
1.9635 1.23078 0
1.9635 0.604756 0
2.15984 0.604756 0
1.9635 0.917277 0
2.15984 0.917277 0
2.15984 0.604756 0
2.35619 0.604756 0
2.15984 0.917277 0
2.35619 0.917277 0
1.9635 0.917277 0
2.15984 0.917277 0
1.9635 1.23078 0
2.15984 1.23078 0
2.15984 0.917277 0
2.35619 0.917277 0
2.15984 1.23078 0
2.35619 1.23078 0
2.35619 0 0
2.55254 0 0
2.35619 0.291972 0
2.55254 0.291972 0
2.55254 0 0
2.74889 0 0
2.55254 0.291972 0
2.74889 0.291972 0
2.35619 0.291972 0
2.55254 0.291972 0
2.35619 0.604756 0
2.55254 0.604756 0
2.55254 0.291972 0
2.74889 0.291972 0
2.55254 0.604756 0
2.74889 0.604756 0
2.74889 0 0
2.94524 0 0
2.74889 0.291972 0
2.94524 0.291972 0
2.94524 0 0
3.14159 0 0
2.94524 0.291972 0
3.14159 0.291972 0
2.74889 0.291972 0
2.94524 0.291972 0
2.74889 0.604756 0
2.94524 0.604756 0
2.94524 0.291972 0
3.14159 0.291972 0
2.94524 0.604756 0
3.14159 0.604756 0
2.35619 0.604756 0
2.55254 0.604756 0
2.35619 0.917277 0
2.55254 0.917277 0
2.55254 0.604756 0
2.74889 0.604756 0
2.55254 0.917277 0
2.74889 0.917277 0
2.35619 0.917277 0
2.55254 0.917277 0
2.35619 1.23078 0
2.55254 1.23078 0
2.55254 0.917277 0
2.74889 0.917277 0
2.55254 1.23078 0
2.74889 1.23078 0
2.74889 0.604756 0
2.94524 0.604756 0
2.74889 0.917277 0
2.94524 0.917277 0
2.94524 0.604756 0
3.14159 0.604756 0
2.94524 0.917277 0
3.14159 0.917277 0
2.74889 0.917277 0
2.94524 0.917277 0
2.74889 1.23078 0
2.94524 1.23078 0
2.94524 0.917277 0
3.14159 0.917277 0
2.94524 1.23078 0
3.14159 1.23078 0
1.5708 1.23078 0
1.76715 1.23078 0
1.5708 1.54404 0
1.76715 1.54404 0
1.76715 1.23078 0
1.9635 1.23078 0
1.76715 1.54404 0
1.9635 1.54404 0
1.5708 1.54404 0
1.76715 1.54404 0
1.5708 1.85737 0
1.76715 1.85737 0
1.76715 1.54404 0
1.9635 1.54404 0
1.76715 1.85737 0
1.9635 1.85737 0
1.9635 1.23078 0
2.15984 1.23078 0
1.9635 1.54404 0
2.15984 1.54404 0
2.15984 1.23078 0
2.35619 1.23078 0
2.15984 1.54404 0
2.35619 1.54404 0
1.9635 1.54404 0
2.15984 1.54404 0
1.9635 1.85737 0
2.15984 1.85737 0
2.15984 1.54404 0
2.35619 1.54404 0
2.15984 1.85737 0
2.35619 1.85737 0
1.5708 1.85737 0
1.76715 1.85737 0
1.5708 2.17066 0
1.76715 2.17066 0
1.76715 1.85737 0
1.9635 1.85737 0
1.76715 2.17066 0
1.9635 2.17066 0
1.5708 2.17066 0
1.76715 2.17066 0
1.5708 2.48394 0
1.76715 2.48394 0
1.76715 2.17066 0
1.9635 2.17066 0
1.76715 2.48394 0
1.9635 2.48394 0
1.9635 1.85737 0
2.15984 1.85737 0
1.9635 2.17066 0
2.15984 2.17066 0
2.15984 1.85737 0
2.35619 1.85737 0
2.15984 2.17066 0
2.35619 2.17066 0
1.9635 2.17066 0
2.15984 2.17066 0
1.9635 2.48394 0
2.15984 2.48394 0
2.15984 2.17066 0
2.35619 2.17066 0
2.15984 2.48394 0
2.35619 2.48394 0
2.35619 1.23078 0
2.55254 1.23078 0
2.35619 1.54404 0
2.55254 1.54404 0
2.55254 1.23078 0
2.74889 1.23078 0
2.55254 1.54404 0
2.74889 1.54404 0
2.35619 1.54404 0
2.55254 1.54404 0
2.35619 1.85737 0
2.55254 1.85737 0
2.55254 1.54404 0
2.74889 1.54404 0
2.55254 1.85737 0
2.74889 1.85737 0
2.74889 1.23078 0
2.94524 1.23078 0
2.74889 1.54404 0
2.94524 1.54404 0
2.94524 1.23078 0
3.14159 1.23078 0
2.94524 1.54404 0
3.14159 1.54404 0
2.74889 1.54404 0
2.94524 1.54404 0
2.74889 1.85737 0
2.94524 1.85737 0
2.94524 1.54404 0
3.14159 1.54404 0
2.94524 1.85737 0
3.14159 1.85737 0
2.35619 1.85737 0
2.55254 1.85737 0
2.35619 2.17066 0
2.55254 2.17066 0
2.55254 1.85737 0
2.74889 1.85737 0
2.55254 2.17066 0
2.74889 2.17066 0
2.35619 2.17066 0
2.55254 2.17066 0
2.35619 2.48394 0
2.55254 2.48394 0
2.55254 2.17066 0
2.74889 2.17066 0
2.55254 2.48394 0
2.74889 2.48394 0
2.74889 1.85737 0
2.94524 1.85737 0
2.74889 2.17066 0
2.94524 2.17066 0
2.94524 1.85737 0
3.14159 1.85737 0
2.94524 2.17066 0
3.14159 2.17066 0
2.74889 2.17066 0
2.94524 2.17066 0
2.74889 2.48394 0
2.94524 2.48394 0
2.94524 2.17066 0
3.14159 2.17066 0
2.94524 2.48394 0
3.14159 2.48394 0
0 2.48394 0
0.19635 2.48394 0
0 2.7972 0
0.19635 2.7972 0
0.19635 2.48394 0
0.392699 2.48394 0
0.19635 2.7972 0
0.392699 2.7972 0
0 2.7972 0
0.19635 2.7972 0
0 3.11044 0
0.19635 3.11044 0
0.19635 2.7972 0
0.392699 2.7972 0
0.19635 3.11044 0
0.392699 3.11044 0
0.392699 2.48394 0
0.589049 2.48394 0
0.392699 2.7972 0
0.589049 2.7972 0
0.589049 2.48394 0
0.785398 2.48394 0
0.589049 2.7972 0
0.785398 2.7972 0
0.392699 2.7972 0
0.589049 2.7972 0
0.392699 3.11044 0
0.589049 3.11044 0
0.589049 2.7972 0
0.785398 2.7972 0
0.589049 3.11044 0
0.785398 3.11044 0
0 3.11044 0
0.19635 3.11044 0
0 3.42367 0
0.19635 3.42367 0
0.19635 3.11044 0
0.392699 3.11044 0
0.19635 3.42367 0
0.392699 3.42367 0
[...]
POINT_DATA 20480
VECTORS uf double
0 1 0
-1.47737e-14 1 0
0 1.00001 0
8.21964e-15 1.00001 0
-1.47737e-14 1 0
-2.17429e-16 1 0
8.21964e-15 1.00001 0
-6.5204e-15 1.00001 0
0 1.00001 0
3.12646e-15 1.00001 0
0 1.00001 0
-2.29475e-14 1.00001 0
3.12646e-15 1.00001 0
4.01357e-15 1.00001 0
-2.29475e-14 1.00001 0
1.08765e-14 1.00001 0
-2.17429e-16 1 0
-1.0366e-14 1 0
-6.5204e-15 1.00001 0
1.96753e-14 1.00001 0
-1.0366e-14 1 0
-1.02366e-14 1 0
1.96753e-14 1.00001 0
9.30343e-15 1.00001 0
4.01357e-15 1.00001 0
-1.19088e-14 1.00001 0
1.08765e-14 1.00001 0
3.35538e-15 1.00001 0
-1.19088e-14 1.00001 0
4.44816e-15 1.00001 0
3.35538e-15 1.00001 0
-1.69674e-14 1.00001 0
0 1.00001 0
3.04506e-14 1.00001 0
0 1.00001 0
1.88077e-14 1.00001 0
3.04506e-14 1.00001 0
-6.73951e-15 1.00001 0
1.88077e-14 1.00001 0
-6.37262e-15 1.00001 0
0 1.00001 0
-1.03467e-14 1.00001 0
0 1.00001 0
-1.21715e-14 1.00001 0
-1.03467e-14 1.00001 0
4.40872e-16 1.00001 0
-1.21715e-14 1.00001 0
-3.44754e-15 1.00001 0
-6.73951e-15 1.00001 0
-6.814e-16 1.00001 0
-6.37262e-15 1.00001 0
-2.0882e-15 1.00001 0
-6.814e-16 1.00001 0
1.42935e-14 1.00001 0
-2.0882e-15 1.00001 0
-4.87399e-15 1.00001 0
4.40872e-16 1.00001 0
5.01625e-15 1.00001 0
-3.44754e-15 1.00001 0
-7.63797e-15 1.00001 0
5.01625e-15 1.00001 0
4.06889e-15 1.00001 0
-7.63797e-15 1.00001 0
-2.20293e-15 1.00001 0
-1.02366e-14 1 0
-8.26091e-15 1 0
9.30343e-15 1.00001 0
1.03925e-14 1.00001 0
-8.26091e-15 1 0
-9.42939e-15 1 0
1.03925e-14 1.00001 0
1.88903e-14 1.00001 0
4.44816e-15 1.00001 0
-9.37385e-15 1.00001 0
-1.69674e-14 1.00001 0
9.65702e-15 1.00001 0
-9.37385e-15 1.00001 0
-5.53897e-15 1.00001 0
9.65702e-15 1.00001 0
-4.13539e-15 1.00001 0
-9.42939e-15 1 0
-1.62934e-14 1 0
1.88903e-14 1.00001 0
1.64351e-14 1.00001 0
-1.62934e-14 1 0
-1.58385e-15 1 0
1.64351e-14 1.00001 0
-9.64274e-15 1.00001 0
-5.53897e-15 1.00001 0
-5.85403e-15 1.00001 0
-4.13539e-15 1.00001 0
4.64794e-16 1.00001 0
-5.85403e-15 1.00001 0
1.11956e-14 1.00001 0
4.64794e-16 1.00001 0
2.78156e-15 1.00001 0
1.42935e-14 1.00001 0
-1.46197e-14 1.00001 0
-4.87399e-15 1.00001 0
1.70176e-14 1.00001 0
-1.46197e-14 1.00001 0
5.19486e-15 1.00001 0
1.70176e-14 1.00001 0
-4.72294e-15 1.00001 0
4.06889e-15 1.00001 0
-1.95909e-14 1.00001 0
-2.20293e-15 1.00001 0
2.07863e-14 1.00001 0
-1.95909e-14 1.00001 0
-7.89747e-15 1.00001 0
2.07863e-14 1.00001 0
4.3257e-15 1.00001 0
5.19486e-15 1.00001 0
-1.39707e-15 1.00001 0
-4.72294e-15 1.00001 0
6.64186e-15 1.00001 0
-1.39707e-15 1.00001 0
-3.43029e-15 1.00001 0
6.64186e-15 1.00001 0
-5.54447e-15 1.00001 0
-7.89747e-15 1.00001 0
-2.92765e-15 1.00001 0
4.3257e-15 1.00001 0
1.80983e-15 1.00001 0
-2.92765e-15 1.00001 0
1.08395e-14 1.00001 0
1.80983e-15 1.00001 0
-9.30572e-15 1.00001 0
0 1.00001 0
-2.22127e-15 1.00001 0
0 1.00001 0
6.56183e-15 1.00001 0
-2.22127e-15 1.00001 0
1.35955e-14 1.00001 0
6.56183e-15 1.00001 0
-9.00903e-15 1.00001 0
0 1.00001 0
-2.32259e-14 1.00001 0
0 1.00001 0
-2.23777e-14 1.00001 0
-2.32259e-14 1.00001 0
7.27784e-15 1.00001 0
-2.23777e-14 1.00001 0
-1.75331e-15 1.00001 0
1.35955e-14 1.00001 0
3.08063e-16 1.00001 0
-9.00903e-15 1.00001 0
1.61742e-15 1.00001 0
3.08063e-16 1.00001 0
-4.5916e-15 1.00001 0
1.61742e-15 1.00001 0
4.86606e-15 1.00001 0
7.27784e-15 1.00001 0
-8.15492e-15 1.00001 0
-1.75331e-15 1.00001 0
8.7537e-15 1.00001 0
-8.15492e-15 1.00001 0
-1.80229e-15 1.00001 0
8.7537e-15 1.00001 0
-9.48331e-16 1.00001 0
0 1.00001 0
2.89981e-14 1.00001 0
0 1.00001 0
2.34403e-14 1.00001 0
2.89981e-14 1.00001 0
-3.66597e-15 1.00001 0
2.34403e-14 1.00001 0
-8.09654e-15 1.00001 0
0 1.00001 0
-1.8164e-14 1.00001 0
0 1.00001 0
-2.57189e-14 1.00001 0
-1.8164e-14 1.00001 0
1.11905e-14 1.00001 0
-2.57189e-14 1.00001 0
9.8485e-15 1.00001 0
-3.66597e-15 1.00001 0
7.2293e-16 1.00001 0
-8.09654e-15 1.00001 0
2.30961e-15 1.00001 0
7.2293e-16 1.00001 0
-4.76206e-15 1.00001 0
2.30961e-15 1.00001 0
-6.65709e-16 1.00001 0
1.11905e-14 1.00001 0
-6.12445e-15 1.00001 0
9.8485e-15 1.00001 0
-1.1704e-14 1.00001 0
-6.12445e-15 1.00001 0
4.53109e-15 1.00001 0
-1.1704e-14 1.00001 0
1.87678e-15 1.00001 0
-4.5916e-15 1.00001 0
-1.18835e-14 1.00001 0
4.86606e-15 1.00001 0
7.95298e-15 1.00001 0
-1.18835e-14 1.00001 0
6.7679e-15 1.00001 0
7.95298e-15 1.00001 0
-4.19675e-15 1.00001 0
-1.80229e-15 1.00001 0
-9.2179e-15 1.00001 0
-9.48331e-16 1.00001 0
9.51868e-15 1.00001 0
-9.2179e-15 1.00001 0
-5.12822e-15 1.00001 0
9.51868e-15 1.00001 0
1.14359e-14 1.00001 0
6.7679e-15 1.00001 0
-1.8073e-15 1.00001 0
-4.19675e-15 1.00001 0
1.97314e-15 1.00001 0
-1.8073e-15 1.00001 0
8.0851e-15 1.00001 0
1.97314e-15 1.00001 0
-1.01379e-14 1.00001 0
-5.12822e-15 1.00001 0
5.59066e-15 1.00001 0
1.14359e-14 1.00001 0
-3.71092e-15 1.00001 0
5.59066e-15 1.00001 0
8.32247e-15 1.00001 0
-3.71092e-15 1.00001 0
3.59976e-15 1.00001 0
-4.76206e-15 1.00001 0
5.5004e-15 1.00001 0
-6.65709e-16 1.00001 0
-6.28256e-15 1.00001 0
5.5004e-15 1.00001 0
-3.07548e-15 1.00001 0
-6.28256e-15 1.00001 0
2.91497e-15 1.00001 0
4.53109e-15 1.00001 0
-4.69222e-15 1.00001 0
1.87678e-15 1.00001 0
4.06316e-15 1.00001 0
-4.69222e-15 1.00001 0
-8.00053e-15 1.00001 0
4.06316e-15 1.00001 0
4.57681e-15 1.00001 0
-3.07548e-15 1.00001 0
6.54324e-15 1.00001 0
2.91497e-15 1.00001 0
-3.45351e-15 1.00001 0
6.54324e-15 1.00001 0
-1.58541e-15 1.00001 0
-3.45351e-15 1.00001 0
1.14082e-16 1.00001 0
-8.00053e-15 1.00001 0
-1.5833e-15 1.00001 0
4.57681e-15 1.00001 0
2.13804e-15 1.00001 0
-1.5833e-15 1.00001 0
6.18876e-16 1.00001 0
2.13804e-15 1.00001 0
2.88705e-15 1.00001 0
-1.58385e-15 1 0
-2.84154e-14 1 0
-9.64274e-15 1.00001 0
3.08847e-14 1.00001 0
-2.84154e-14 1 0
-1.15125e-14 1 0
3.08847e-14 1.00001 0
1.0173e-14 1.00001 0
1.11956e-14 1.00001 0
-1.89331e-15 1.00001 0
2.78156e-15 1.00001 0
7.19078e-15 1.00001 0
-1.89331e-15 1.00001 0
3.65198e-15 1.00001 0
7.19078e-15 1.00001 0
-6.03896e-15 1.00001 0
-1.15125e-14 1 0
1.00088e-14 1 0
1.0173e-14 1.00001 0
-1.46768e-14 1.00001 0
1.00088e-14 1 0
-4.74441e-16 1 0
-1.46768e-14 1.00001 0
3.30714e-15 1.00001 0
3.65198e-15 1.00001 0
6.23641e-15 1.00001 0
-6.03896e-15 1.00001 0
-2.31154e-15 1.00001 0
6.23641e-15 1.00001 0
-9.07667e-15 1.00001 0
-2.31154e-15 1.00001 0
4.3028e-15 1.00001 0
-3.43029e-15 1.00001 0
-1.37294e-14 1.00001 0
-5.54447e-15 1.00001 0
9.07035e-15 1.00001 0
-1.37294e-14 1.00001 0
3.87613e-15 1.00001 0
9.07035e-15 1.00001 0
9.35076e-15 1.00001 0
1.08395e-14 1.00001 0
-1.08049e-14 1.00001 0
-9.30572e-15 1.00001 0
7.97576e-15 1.00001 0
-1.08049e-14 1.00001 0
-2.22451e-14 1.00001 0
7.97576e-15 1.00001 0
7.64658e-15 1.00001 0
3.87613e-15 1.00001 0
6.8259e-15 1.00001 0
9.35076e-15 1.00001 0
-3.75868e-15 1.00001 0
6.8259e-15 1.00001 0
1.07845e-14 1.00001 0
-3.75868e-15 1.00001 0
-4.84852e-15 1.00001 0
-2.22451e-14 1.00001 0
2.33898e-15 1.00001 0
7.64658e-15 1.00001 0
-5.23324e-15 1.00001 0
2.33898e-15 1.00001 0
1.77685e-15 1.00001 0
-5.23324e-15 1.00001 0
-7.03567e-15 1.00001 0
-4.74441e-16 1 0
-8.98159e-15 1 0
3.30714e-15 1.00001 0
1.55617e-14 1.00001 0
-8.98159e-15 1 0
-9.5115e-15 1 0
1.55617e-14 1.00001 0
1.82237e-14 1.00001 0
-9.07667e-15 1.00001 0
-5.69397e-15 1.00001 0
4.3028e-15 1.00001 0
1.82875e-14 1.00001 0
-5.69397e-15 1.00001 0
1.56357e-15 1.00001 0
1.82875e-14 1.00001 0
3.67091e-16 1.00001 0
-9.5115e-15 1 0
-2.99339e-15 1 0
1.82237e-14 1.00001 0
1.05602e-14 1.00001 0
-2.99339e-15 1 0
3.41371e-15 1 0
1.05602e-14 1.00001 0
2.58247e-15 1.00001 0
1.56357e-15 1.00001 0
2.19113e-15 1.00001 0
3.67091e-16 1.00001 0
-2.9747e-15 1.00001 0
2.19113e-15 1.00001 0
-2.94381e-15 1.00001 0
-2.9747e-15 1.00001 0
3.27334e-15 1.00001 0
1.07845e-14 1.00001 0
-1.71905e-14 1.00001 0
-4.84852e-15 1.00001 0
-1.057e-16 1.00001 0
-1.71905e-14 1.00001 0
-2.13102e-15 1.00001 0
-1.057e-16 1.00001 0
-1.13704e-15 1.00001 0
1.77685e-15 1.00001 0
2.33742e-15 1.00001 0
-7.03567e-15 1.00001 0
-3.03042e-15 1.00001 0
2.33742e-15 1.00001 0
-1.05996e-14 1.00001 0
-3.03042e-15 1.00001 0
1.14159e-14 1.00001 0
-2.13102e-15 1.00001 0
-5.87537e-15 1.00001 0
-1.13704e-15 1.00001 0
7.9633e-15 1.00001 0
-5.87537e-15 1.00001 0
-2.67719e-15 1.00001 0
7.9633e-15 1.00001 0
1.31468e-14 1.00001 0
-1.05996e-14 1.00001 0
-1.37651e-14 1.00001 0
1.14159e-14 1.00001 0
1.36614e-14 1.00001 0
-1.37651e-14 1.00001 0
-9.79882e-15 1.00001 0
1.36614e-14 1.00001 0
1.98581e-15 1.00001 0
8.0851e-15 1.00001 0
-3.41676e-15 1.00001 0
-1.01379e-14 1.00001 0
5.42221e-15 1.00001 0
-3.41676e-15 1.00001 0
3.4014e-15 1.00001 0
5.42221e-15 1.00001 0
1.8598e-15 1.00001 0
8.32247e-15 1.00001 0
-2.97191e-15 1.00001 0
3.59976e-15 1.00001 0
9.25901e-15 1.00001 0
-2.97191e-15 1.00001 0
2.39112e-15 1.00001 0
9.25901e-15 1.00001 0
5.33678e-15 1.00001 0
3.4014e-15 1.00001 0
2.03806e-16 1.00001 0
1.8598e-15 1.00001 0
1.00828e-14 1.00001 0
2.03806e-16 1.00001 0
7.53372e-15 1.00001 0
1.00828e-14 1.00001 0
-7.52414e-15 1.00001 0
2.39112e-15 1.00001 0
-1.57581e-14 1.00001 0
5.33678e-15 1.00001 0
5.5804e-15 1.00001 0
-1.57581e-14 1.00001 0
-4.39907e-15 1.00001 0
5.5804e-15 1.00001 0
1.51979e-14 1.00001 0
-1.58541e-15 1.00001 0
4.63477e-15 1.00001 0
1.14082e-16 1.00001 0
6.09171e-15 1.00001 0
4.63477e-15 1.00001 0
-4.25621e-16 1.00001 0
6.09171e-15 1.00001 0
7.38297e-15 1.00001 0
6.18876e-16 1.00001 0
-1.96513e-14 1.00001 0
2.88705e-15 1.00001 0
9.64615e-15 1.00001 0
-1.96513e-14 1.00001 0
-6.75563e-15 1.00001 0
9.64615e-15 1.00001 0
1.88983e-15 1.00001 0
-4.25621e-16 1.00001 0
2.60102e-15 1.00001 0
7.38297e-15 1.00001 0
9.93334e-15 1.00001 0
2.60102e-15 1.00001 0
-2.7807e-15 1.00001 0
9.93334e-15 1.00001 0
1.5772e-15 1.00001 0
-6.75563e-15 1.00001 0
-1.33622e-15 1.00001 0
1.88983e-15 1.00001 0
-2.51586e-15 1.00001 0
-1.33622e-15 1.00001 0
-3.95102e-16 1.00001 0
-2.51586e-15 1.00001 0
-5.28366e-15 1.00001 0
7.53372e-15 1.00001 0
7.10978e-15 1.00001 0
-7.52414e-15 1.00001 0
-5.82809e-15 1.00001 0
7.10978e-15 1.00001 0
2.69883e-15 1.00001 0
-5.82809e-15 1.00001 0
-6.92562e-15 1.00001 0
-4.39907e-15 1.00001 0
4.96384e-15 1.00001 0
1.51979e-14 1.00001 0
-8.04662e-15 1.00001 0
4.96384e-15 1.00001 0
2.80194e-15 1.00001 0
-8.04662e-15 1.00001 0
-2.44615e-15 1.00001 0
2.69883e-15 1.00001 0
-2.08346e-15 1.00001 0
-6.92562e-15 1.00001 0
-9.27394e-16 1.00001 0
-2.08346e-15 1.00001 0
-1.26951e-15 1.00001 0
-9.27394e-16 1.00001 0
5.54145e-15 1.00001 0
2.80194e-15 1.00001 0
1.0419e-15 1.00001 0
-2.44615e-15 1.00001 0
-3.4024e-15 1.00001 0
1.0419e-15 1.00001 0
-1.08806e-14 1.00001 0
-3.4024e-15 1.00001 0
1.26706e-14 1.00001 0
-2.7807e-15 1.00001 0
1.09872e-14 1.00001 0
1.5772e-15 1.00001 0
-9.55601e-15 1.00001 0
1.09872e-14 1.00001 0
5.81525e-15 1.00001 0
-9.55601e-15 1.00001 0
-1.47826e-15 1.00001 0
-3.95102e-16 1.00001 0
4.81827e-15 1.00001 0
-5.28366e-15 1.00001 0
7.41804e-15 1.00001 0
4.81827e-15 1.00001 0
6.29687e-16 1.00001 0
7.41804e-15 1.00001 0
-4.09065e-15 1.00001 0
5.81525e-15 1.00001 0
2.30299e-15 1.00001 0
-1.47826e-15 1.00001 0
9.29497e-16 1.00001 0
2.30299e-15 1.00001 0
-1.08769e-14 1.00001 0
9.29497e-16 1.00001 0
9.43076e-15 1.00001 0
6.29687e-16 1.00001 0
8.08373e-15 1.00001 0
-4.09065e-15 1.00001 0
3.40019e-16 1.00001 0
8.08373e-15 1.00001 0
-9.02473e-15 1.00001 0
3.40019e-16 1.00001 0
1.57626e-15 1.00001 0
0 1.00001 0
1.3439e-14 1.00001 0
0 1.00001 0
2.45276e-14 1.00001 0
1.3439e-14 1.00001 0
-2.45233e-14 1.00001 0
2.45276e-14 1.00001 0
-1.50511e-14 1.00001 0
0 1.00001 0
1.00878e-14 1.00001 0
0 1.00001 0
6.91819e-15 1.00001 0
1.00878e-14 1.00001 0
-1.57185e-15 1.00001 0
6.91819e-15 1.00001 0
-2.0296e-15 1.00001 0
-2.45233e-14 1.00001 0
1.25426e-14 1.00001 0
-1.50511e-14 1.00001 0
-6.27728e-15 1.00001 0
1.25426e-14 1.00001 0
-7.66134e-15 1.00001 0
-6.27728e-15 1.00001 0
-5.19992e-15 1.00001 0
-1.57185e-15 1.00001 0
-1.1372e-14 1.00001 0
-2.0296e-15 1.00001 0
-7.10835e-15 1.00001 0
-1.1372e-14 1.00001 0
5.18842e-15 1.00001 0
-7.10835e-15 1.00001 0
8.93704e-16 1.00001 0
0 1.00001 0
-4.47666e-14 1.00001 0
0 1.00001 0
-6.03289e-14 1.00001 0
-4.47666e-14 1.00001 0
2.01859e-14 1.00001 0
-6.03289e-14 1.00001 0
1.31912e-14 1.00001 0
0 1.00001 0
6.16733e-14 1.00001 0
0 1.00001 0
5.22472e-14 1.00001 0
6.16733e-14 1.00001 0
-5.2201e-15 1.00001 0
5.22472e-14 1.00001 0
-3.02601e-15 1.00001 0
2.01859e-14 1.00001 0
1.21499e-14 1.00001 0
1.31912e-14 1.00001 0
7.46501e-15 1.00001 0
1.21499e-14 1.00001 0
-3.22581e-14 1.00001 0
7.46501e-15 1.00001 0
-1.67114e-14 1.00001 0
-5.2201e-15 1.00001 0
6.53714e-15 1.00001 0
-3.02601e-15 1.00001 0
-6.17139e-15 1.00001 0
6.53714e-15 1.00001 0
2.18142e-14 1.00001 0
-6.17139e-15 1.00001 0
3.762e-14 1.00001 0
-7.66134e-15 1.00001 0
-1.34118e-14 1.00001 0
-5.19992e-15 1.00001 0
-9.09368e-15 1.00001 0
-1.34118e-14 1.00001 0
-5.23346e-16 1.00001 0
-9.09368e-15 1.00001 0
1.75469e-15 1.00001 0
5.18842e-15 1.00001 0
5.00293e-15 1.00001 0
8.93704e-16 1.00001 0
6.06513e-15 1.00001 0
5.00293e-15 1.00001 0
3.33483e-15 1.00001 0
6.06513e-15 1.00001 0
2.31095e-15 1.00001 0
-5.23346e-16 1.00001 0
-5.06458e-15 1.00001 0
1.75469e-15 1.00001 0
-4.97709e-16 1.00001 0
-5.06458e-15 1.00001 0
-1.26925e-14 1.00001 0
-4.97709e-16 1.00001 0
7.97556e-15 1.00001 0
3.33483e-15 1.00001 0
3.16646e-15 1.00001 0
2.31095e-15 1.00001 0
-9.74157e-16 1.00001 0
3.16646e-15 1.00001 0
-4.84752e-15 1.00001 0
-9.74157e-16 1.00001 0
2.5025e-15 1.00001 0
-3.22581e-14 1.00001 0
2.6583e-15 1.00001 0
-1.67114e-14 1.00001 0
-3.55495e-15 1.00001 0
2.6583e-15 1.00001 0
-7.16444e-15 1.00001 0
-3.55495e-15 1.00001 0
-3.36155e-15 1.00001 0
2.18142e-14 1.00001 0
9.16747e-15 1.00001 0
3.762e-14 1.00001 0
1.70101e-15 1.00001 0
9.16747e-15 1.00001 0
1.28966e-14 1.00001 0
1.70101e-15 1.00001 0
-1.53658e-14 1.00001 0
-7.16444e-15 1.00001 0
-2.39375e-15 1.00001 0
-3.36155e-15 1.00001 0
1.26238e-14 1.00001 0
-2.39375e-15 1.00001 0
4.68675e-15 1.00001 0
1.26238e-14 1.00001 0
-1.5607e-15 1.00001 0
1.28966e-14 1.00001 0
-1.72897e-14 1.00001 0
-1.53658e-14 1.00001 0
9.2014e-15 1.00001 0
-1.72897e-14 1.00001 0
-6.08771e-15 1.00001 0
9.2014e-15 1.00001 0
1.08881e-14 1.00001 0
0 1.00001 0
-2.14427e-14 1.00001 0
0 1.00001 0
-2.15197e-14 1.00001 0
-2.14427e-14 1.00001 0
5.96014e-15 1.00001 0
-2.15197e-14 1.00001 0
-6.72792e-15 1.00001 0
0 1.00001 0
1.30212e-14 1.00001 0
0 1.00001 0
3.2319e-14 1.00001 0
1.30212e-14 1.00001 0
-1.2958e-14 1.00001 0
3.2319e-14 1.00001 0
-2.35537e-14 1.00001 0
5.96014e-15 1.00001 0
-1.15369e-14 1.00001 0
-6.72792e-15 1.00001 0
-8.90278e-16 1.00001 0
-1.15369e-14 1.00001 0
-1.00855e-14 1.00001 0
-8.90278e-16 1.00001 0
2.84283e-15 1.00001 0
-1.2958e-14 1.00001 0
-1.92417e-15 1.00001 0
-2.35537e-14 1.00001 0
1.04076e-14 1.00001 0
-1.92417e-15 1.00001 0
-2.89076e-15 1.00001 0
1.04076e-14 1.00001 0
1.19799e-14 1.00001 0
0 1.00001 0
-4.30191e-14 1.00001 0
0 1.00001 0
-3.05584e-14 1.00001 0
-4.30191e-14 1.00001 0
-1.81507e-15 1.00001 0
-3.05584e-14 1.00001 0
-5.27561e-16 1.00001 0
0 1.00001 0
9.24242e-15 1.00001 0
0 1 0
2.37446e-14 1 0
9.24242e-15 1.00001 0
-8.97105e-15 1.00001 0
2.37446e-14 1 0
1.05504e-15 1 0
-1.81507e-15 1.00001 0
-3.00297e-14 1.00001 0
-5.27561e-16 1.00001 0
-1.29367e-14 1.00001 0
-3.00297e-14 1.00001 0
-1.75743e-14 1.00001 0
-1.29367e-14 1.00001 0
-2.35677e-14 1.00001 0
-8.97105e-15 1.00001 0
4.32463e-15 1.00001 0
1.05504e-15 1 0
4.20169e-15 1 0
4.32463e-15 1.00001 0
-1.14146e-14 1.00001 0
4.20169e-15 1 0
-5.28797e-15 1 0
-1.00855e-14 1.00001 0
-6.01345e-14 1.00001 0
2.84283e-15 1.00001 0
-3.97731e-14 1.00001 0
-6.01345e-14 1.00001 0
7.83835e-15 1.00001 0
-3.97731e-14 1.00001 0
1.78356e-15 1.00001 0
-2.89076e-15 1.00001 0
2.8982e-14 1.00001 0
1.19799e-14 1.00001 0
4.20828e-14 1.00001 0
2.8982e-14 1.00001 0
-3.52901e-15 1.00001 0
4.20828e-14 1.00001 0
2.18655e-16 1.00001 0
7.83835e-15 1.00001 0
-8.17396e-15 1.00001 0
1.78356e-15 1.00001 0
1.40168e-14 1.00001 0
-8.17396e-15 1.00001 0
-1.60635e-14 1.00001 0
1.40168e-14 1.00001 0
2.46573e-15 1.00001 0
-3.52901e-15 1.00001 0
-7.22595e-15 1.00001 0
2.18655e-16 1.00001 0
-1.34212e-14 1.00001 0
-7.22595e-15 1.00001 0
-9.82652e-15 1.00001 0
-1.34212e-14 1.00001 0
1.97904e-14 1.00001 0
-1.75743e-14 1.00001 0
-1.27199e-14 1.00001 0
-2.35677e-14 1.00001 0
-8.66724e-15 1.00001 0
-1.27199e-14 1.00001 0
-2.20012e-15 1.00001 0
-8.66724e-15 1.00001 0
2.74336e-15 1.00001 0
-1.14146e-14 1.00001 0
-9.44545e-15 1.00001 0
-5.28797e-15 1 0
-1.44642e-14 1 0
-9.44545e-15 1.00001 0
-1.40929e-15 1.00001 0
-1.44642e-14 1 0
-1.12859e-15 1 0
-2.20012e-15 1.00001 0
1.11601e-14 1.00001 0
2.74336e-15 1.00001 0
-7.58788e-16 1.00001 0
1.11601e-14 1.00001 0
-1.1492e-14 1.00001 0
-7.58788e-16 1.00001 0
1.12801e-14 1.00001 0
-1.40929e-15 1.00001 0
-8.98039e-15 1.00001 0
-1.12859e-15 1 0
-1.58204e-15 1 0
-8.98039e-15 1.00001 0
-1.6655e-14 1.00001 0
-1.58204e-15 1 0
8.07183e-15 1 0
-1.26925e-14 1.00001 0
-5.13115e-15 1.00001 0
7.97556e-15 1.00001 0
5.86848e-15 1.00001 0
-5.13115e-15 1.00001 0
-2.19289e-15 1.00001 0
5.86848e-15 1.00001 0
6.65354e-15 1.00001 0
-4.84752e-15 1.00001 0
-3.94089e-15 1.00001 0
2.5025e-15 1.00001 0
-6.52874e-15 1.00001 0
-3.94089e-15 1.00001 0
-1.40398e-14 1.00001 0
-6.52874e-15 1.00001 0
-4.27012e-16 1.00001 0
-2.19289e-15 1.00001 0
-1.76678e-15 1.00001 0
6.65354e-15 1.00001 0
2.72903e-15 1.00001 0
-1.76678e-15 1.00001 0
6.0093e-15 1.00001 0
2.72903e-15 1.00001 0
-5.89894e-15 1.00001 0
-1.40398e-14 1.00001 0
8.4769e-15 1.00001 0
-4.27012e-16 1.00001 0
-1.46414e-14 1.00001 0
8.4769e-15 1.00001 0
1.98654e-15 1.00001 0
-1.46414e-14 1.00001 0
5.75759e-16 1.00001 0
4.68675e-15 1.00001 0
9.08816e-15 1.00001 0
-1.5607e-15 1.00001 0
-8.34125e-15 1.00001 0
9.08816e-15 1.00001 0
1.50894e-15 1.00001 0
-8.34125e-15 1.00001 0
7.81706e-15 1.00001 0
-6.08771e-15 1.00001 0
7.19702e-15 1.00001 0
1.08881e-14 1.00001 0
6.1939e-15 1.00001 0
7.19702e-15 1.00001 0
-8.24793e-15 1.00001 0
6.1939e-15 1.00001 0
1.01387e-14 1.00001 0
1.50894e-15 1.00001 0
4.58026e-15 1.00001 0
7.81706e-15 1.00001 0
4.1943e-15 1.00001 0
4.58026e-15 1.00001 0
-1.90183e-15 1.00001 0
4.1943e-15 1.00001 0
2.77841e-15 1.00001 0
-8.24793e-15 1.00001 0
-8.09201e-15 1.00001 0
1.01387e-14 1.00001 0
3.55448e-15 1.00001 0
-8.09201e-15 1.00001 0
7.32281e-15 1.00001 0
3.55448e-15 1.00001 0
-5.91295e-15 1.00001 0
6.0093e-15 1.00001 0
-1.05887e-14 1.00001 0
-5.89894e-15 1.00001 0
8.77929e-15 1.00001 0
-1.05887e-14 1.00001 0
5.11603e-15 1.00001 0
8.77929e-15 1.00001 0
-2.94463e-15 1.00001 0
1.98654e-15 1.00001 0
-2.31688e-15 1.00001 0
5.75759e-16 1.00001 0
-2.0547e-15 1.00001 0
-2.31688e-15 1.00001 0
-2.65659e-15 1.00001 0
-2.0547e-15 1.00001 0
2.99233e-15 1.00001 0
5.11603e-15 1.00001 0
-5.13255e-15 1.00001 0
-2.94463e-15 1.00001 0
-6.28964e-15 1.00001 0
-5.13255e-15 1.00001 0
4.99716e-15 1.00001 0
-6.28964e-15 1.00001 0
5.6564e-15 1.00001 0
-2.65659e-15 1.00001 0
9.87322e-15 1.00001 0
2.99233e-15 1.00001 0
-5.43043e-15 1.00001 0
9.87322e-15 1.00001 0
5.55639e-15 1.00001 0
-5.43043e-15 1.00001 0
-1.40873e-14 1.00001 0
-1.90183e-15 1.00001 0
5.50862e-15 1.00001 0
2.77841e-15 1.00001 0
-7.94505e-15 1.00001 0
5.50862e-15 1.00001 0
-3.45716e-16 1.00001 0
-7.94505e-15 1.00001 0
1.76694e-15 1.00001 0
7.32281e-15 1.00001 0
4.01053e-15 1.00001 0
-5.91295e-15 1.00001 0
-7.28069e-15 1.00001 0
4.01053e-15 1.00001 0
-2.78609e-15 1.00001 0
-7.28069e-15 1.00001 0
4.49736e-15 1.00001 0
-3.45716e-16 1.00001 0
-2.72301e-15 1.00001 0
1.76694e-15 1.00001 0
3.65496e-15 1.00001 0
-2.72301e-15 1.00001 0
5.31488e-15 1.00001 0
3.65496e-15 1.00001 0
-2.60144e-15 1.00001 0
-2.78609e-15 1.00001 0
-1.5874e-15 1.00001 0
4.49736e-15 1.00001 0
1.07297e-14 1.00001 0
-1.5874e-15 1.00001 0
-1.46738e-15 1.00001 0
1.07297e-14 1.00001 0
1.2647e-14 1.00001 0
-1.60635e-14 1.00001 0
-1.11054e-14 1.00001 0
2.46573e-15 1.00001 0
-1.96435e-15 1.00001 0
-1.11054e-14 1.00001 0
-1.72111e-14 1.00001 0
-1.96435e-15 1.00001 0
4.43969e-15 1.00001 0
-9.82652e-15 1.00001 0
-6.63623e-15 1.00001 0
1.97904e-14 1.00001 0
9.02452e-15 1.00001 0
-6.63623e-15 1.00001 0
-1.38825e-14 1.00001 0
9.02452e-15 1.00001 0
1.09735e-14 1.00001 0
-1.72111e-14 1.00001 0
4.59076e-15 1.00001 0
4.43969e-15 1.00001 0
-7.99743e-15 1.00001 0
4.59076e-15 1.00001 0
-9.3731e-15 1.00001 0
-7.99743e-15 1.00001 0