# vtk DataFile Version 3.0
#This file was generated by the deal.II library on 2017/2/1 at 11:54:13
ASCII
DATASET UNSTRUCTURED_GRID

POINTS 4096 double
0 0 0
0.625 0 0
0 0.625 0
0.625 0.625 0
0.625 0 0
1.25 0 0
0.625 0.625 0
1.25 0.625 0
0 0.625 0
0.625 0.625 0
0 1.25 0
0.625 1.25 0
0.625 0.625 0
1.25 0.625 0
0.625 1.25 0
1.25 1.25 0
1.25 0 0
1.875 0 0
1.25 0.625 0
1.875 0.625 0
1.875 0 0
2.5 0 0
1.875 0.625 0
2.5 0.625 0
1.25 0.625 0
1.875 0.625 0
1.25 1.25 0
1.875 1.25 0
1.875 0.625 0
2.5 0.625 0
1.875 1.25 0
2.5 1.25 0
0 1.25 0
0.625 1.25 0
0 1.875 0
0.625 1.875 0
0.625 1.25 0
1.25 1.25 0
0.625 1.875 0
1.25 1.875 0
0 1.875 0
0.625 1.875 0
0 2.5 0
0.625 2.5 0
0.625 1.875 0
1.25 1.875 0
0.625 2.5 0
1.25 2.5 0
1.25 1.25 0
1.875 1.25 0
1.25 1.875 0
1.875 1.875 0
1.875 1.25 0
2.5 1.25 0
1.875 1.875 0
2.5 1.875 0
1.25 1.875 0
1.875 1.875 0
1.25 2.5 0
1.875 2.5 0
1.875 1.875 0
2.5 1.875 0
1.875 2.5 0
2.5 2.5 0
2.5 0 0
3.125 0 0
2.5 0.625 0
3.125 0.625 0
3.125 0 0
3.75 0 0
3.125 0.625 0
3.75 0.625 0
2.5 0.625 0
3.125 0.625 0
2.5 1.25 0
3.125 1.25 0
3.125 0.625 0
3.75 0.625 0
3.125 1.25 0
3.75 1.25 0
3.75 0 0
4.375 0 0
3.75 0.625 0
4.375 0.625 0
4.375 0 0
5 0 0
4.375 0.625 0
5 0.625 0
3.75 0.625 0
4.375 0.625 0
3.75 1.25 0
4.375 1.25 0
4.375 0.625 0
5 0.625 0
4.375 1.25 0
5 1.25 0
2.5 1.25 0
3.125 1.25 0
2.5 1.875 0
3.125 1.875 0
3.125 1.25 0
3.75 1.25 0
3.125 1.875 0
3.75 1.875 0
2.5 1.875 0
3.125 1.875 0
2.5 2.5 0
3.125 2.5 0
3.125 1.875 0
3.75 1.875 0
3.125 2.5 0
3.75 2.5 0
3.75 1.25 0
4.375 1.25 0
3.75 1.875 0
4.375 1.875 0
4.375 1.25 0
5 1.25 0
4.375 1.875 0
5 1.875 0
3.75 1.875 0
4.375 1.875 0
3.75 2.5 0
4.375 2.5 0
4.375 1.875 0
5 1.875 0
4.375 2.5 0
5 2.5 0
0 2.5 0
0.625 2.5 0
0 3.125 0
0.625 3.125 0
0.625 2.5 0
1.25 2.5 0
0.625 3.125 0
1.25 3.125 0
0 3.125 0
0.625 3.125 0
0 3.75 0
0.625 3.75 0
0.625 3.125 0
1.25 3.125 0
0.625 3.75 0
1.25 3.75 0
1.25 2.5 0
1.875 2.5 0
1.25 3.125 0
1.875 3.125 0
1.875 2.5 0
2.5 2.5 0
1.875 3.125 0
2.5 3.125 0
1.25 3.125 0
1.875 3.125 0
1.25 3.75 0
1.875 3.75 0
1.875 3.125 0
2.5 3.125 0
1.875 3.75 0
2.5 3.75 0
0 3.75 0
0.625 3.75 0
0 4.375 0
0.625 4.375 0
0.625 3.75 0
1.25 3.75 0
0.625 4.375 0
1.25 4.375 0
0 4.375 0
0.625 4.375 0
0 5 0
0.625 5 0
0.625 4.375 0
1.25 4.375 0
0.625 5 0
1.25 5 0
1.25 3.75 0
1.875 3.75 0
1.25 4.375 0
1.875 4.375 0
1.875 3.75 0
2.5 3.75 0
1.875 4.375 0
2.5 4.375 0
1.25 4.375 0
1.875 4.375 0
1.25 5 0
1.875 5 0
1.875 4.375 0
2.5 4.375 0
1.875 5 0
2.5 5 0
2.5 2.5 0
3.125 2.5 0
2.5 3.125 0
3.125 3.125 0
3.125 2.5 0
3.75 2.5 0
3.125 3.125 0
3.75 3.125 0
2.5 3.125 0
3.125 3.125 0
2.5 3.75 0
3.125 3.75 0
3.125 3.125 0
3.75 3.125 0
3.125 3.75 0
3.75 3.75 0
3.75 2.5 0
4.375 2.5 0
3.75 3.125 0
4.375 3.125 0
4.375 2.5 0
5 2.5 0
4.375 3.125 0
5 3.125 0
3.75 3.125 0
4.375 3.125 0
3.75 3.75 0
4.375 3.75 0
4.375 3.125 0
5 3.125 0
4.375 3.75 0
5 3.75 0
2.5 3.75 0
3.125 3.75 0
2.5 4.375 0
3.125 4.375 0
3.125 3.75 0
3.75 3.75 0
3.125 4.375 0
3.75 4.375 0
2.5 4.375 0
3.125 4.375 0
2.5 5 0
3.125 5 0
3.125 4.375 0
3.75 4.375 0
3.125 5 0
3.75 5 0
3.75 3.75 0
4.375 3.75 0
3.75 4.375 0
4.375 4.375 0
4.375 3.75 0
5 3.75 0
4.375 4.375 0
5 4.375 0
3.75 4.375 0
4.375 4.375 0
3.75 5 0
4.375 5 0
4.375 4.375 0
5 4.375 0
4.375 5 0
5 5 0
5 0 0
5.625 0 0
5 0.625 0
5.625 0.625 0
5.625 0 0
6.25 0 0
5.625 0.625 0
6.25 0.625 0
5 0.625 0
5.625 0.625 0
5 1.25 0
5.625 1.25 0
5.625 0.625 0
6.25 0.625 0
5.625 1.25 0
6.25 1.25 0
6.25 0 0
6.875 0 0
6.25 0.625 0
6.875 0.625 0
6.875 0 0
7.5 0 0
6.875 0.625 0
7.5 0.625 0
6.25 0.625 0
6.875 0.625 0
6.25 1.25 0
6.875 1.25 0
6.875 0.625 0
7.5 0.625 0
6.875 1.25 0
7.5 1.25 0
5 1.25 0
5.625 1.25 0
5 1.875 0
5.625 1.875 0
5.625 1.25 0
6.25 1.25 0
5.625 1.875 0
6.25 1.875 0
5 1.875 0
5.625 1.875 0
5 2.5 0
5.625 2.5 0
5.625 1.875 0
6.25 1.875 0
5.625 2.5 0
6.25 2.5 0
6.25 1.25 0
6.875 1.25 0
6.25 1.875 0
6.875 1.875 0
6.875 1.25 0
7.5 1.25 0
6.875 1.875 0
7.5 1.875 0
6.25 1.875 0
6.875 1.875 0
6.25 2.5 0
6.875 2.5 0
6.875 1.875 0
7.5 1.875 0
6.875 2.5 0
7.5 2.5 0
7.5 0 0
8.125 0 0
7.5 0.625 0
8.125 0.625 0
8.125 0 0
8.75 0 0
8.125 0.625 0
8.75 0.625 0
7.5 0.625 0
8.125 0.625 0
7.5 1.25 0
8.125 1.25 0
8.125 0.625 0
8.75 0.625 0
8.125 1.25 0
8.75 1.25 0
8.75 0 0
9.375 0 0
8.75 0.625 0
9.375 0.625 0
9.375 0 0
10 0 0
9.375 0.625 0
10 0.625 0
8.75 0.625 0
9.375 0.625 0
8.75 1.25 0
9.375 1.25 0
9.375 0.625 0
10 0.625 0
9.375 1.25 0
10 1.25 0
7.5 1.25 0
8.125 1.25 0
7.5 1.875 0
8.125 1.875 0
8.125 1.25 0
8.75 1.25 0
8.125 1.875 0
8.75 1.875 0
7.5 1.875 0
8.125 1.875 0
7.5 2.5 0
8.125 2.5 0
8.125 1.875 0
8.75 1.875 0
8.125 2.5 0
8.75 2.5 0
8.75 1.25 0
9.375 1.25 0
8.75 1.875 0
9.375 1.875 0
9.375 1.25 0
10 1.25 0
9.375 1.875 0
10 1.875 0
8.75 1.875 0
9.375 1.875 0
8.75 2.5 0
9.375 2.5 0
9.375 1.875 0
10 1.875 0
9.375 2.5 0
10 2.5 0
5 2.5 0
5.625 2.5 0
5 3.125 0
5.625 3.125 0
5.625 2.5 0
6.25 2.5 0
5.625 3.125 0
6.25 3.125 0
5 3.125 0
5.625 3.125 0
5 3.75 0
5.625 3.75 0
5.625 3.125 0
6.25 3.125 0
5.625 3.75 0
6.25 3.75 0
6.25 2.5 0
6.875 2.5 0
6.25 3.125 0
6.875 3.125 0
6.875 2.5 0
7.5 2.5 0
6.875 3.125 0
7.5 3.125 0
6.25 3.125 0
6.875 3.125 0
6.25 3.75 0
6.875 3.75 0
6.875 3.125 0
7.5 3.125 0
6.875 3.75 0
7.5 3.75 0
5 3.75 0
5.625 3.75 0
5 4.375 0
5.625 4.375 0
5.625 3.75 0
6.25 3.75 0
5.625 4.375 0
6.25 4.375 0
5 4.375 0
5.625 4.375 0
5 5 0
5.625 5 0
5.625 4.375 0
6.25 4.375 0
5.625 5 0
6.25 5 0
6.25 3.75 0
6.875 3.75 0
6.25 4.375 0
6.875 4.375 0
6.875 3.75 0
7.5 3.75 0
6.875 4.375 0
7.5 4.375 0
6.25 4.375 0
6.875 4.375 0
6.25 5 0
6.875 5 0
6.875 4.375 0
7.5 4.375 0
6.875 5 0
7.5 5 0
7.5 2.5 0
8.125 2.5 0
7.5 3.125 0
8.125 3.125 0
8.125 2.5 0
8.75 2.5 0
8.125 3.125 0
8.75 3.125 0
7.5 3.125 0
8.125 3.125 0
7.5 3.75 0
8.125 3.75 0
8.125 3.125 0
8.75 3.125 0
8.125 3.75 0
8.75 3.75 0
8.75 2.5 0
9.375 2.5 0
8.75 3.125 0
9.375 3.125 0
9.375 2.5 0
10 2.5 0
9.375 3.125 0
10 3.125 0
8.75 3.125 0
9.375 3.125 0
8.75 3.75 0
9.375 3.75 0
9.375 3.125 0
10 3.125 0
9.375 3.75 0
10 3.75 0
7.5 3.75 0
8.125 3.75 0
7.5 4.375 0
8.125 4.375 0
8.125 3.75 0
8.75 3.75 0
8.125 4.375 0
8.75 4.375 0
7.5 4.375 0
8.125 4.375 0
7.5 5 0
8.125 5 0
8.125 4.375 0
8.75 4.375 0
8.125 5 0
8.75 5 0
8.75 3.75 0
9.375 3.75 0
8.75 4.375 0
9.375 4.375 0
9.375 3.75 0
10 3.75 0
9.375 4.375 0
10 4.375 0
8.75 4.375 0
9.375 4.375 0
8.75 5 0
9.375 5 0
9.375 4.375 0
10 4.375 0
9.375 5 0
10 5 0
0 5 0
0.625 5 0
0 5.625 0
0.625 5.625 0
0.625 5 0
1.25 5 0
0.625 5.625 0
1.25 5.625 0
0 5.625 0
0.625 5.625 0
0 6.25 0
0.625 6.25 0
0.625 5.625 0
1.25 5.625 0
0.625 6.25 0
1.25 6.25 0
1.25 5 0
1.875 5 0
1.25 5.625 0
1.875 5.625 0
1.875 5 0
2.5 5 0
1.875 5.625 0
2.5 5.625 0
1.25 5.625 0
1.875 5.625 0
1.25 6.25 0
1.875 6.25 0
1.875 5.625 0
2.5 5.625 0
1.875 6.25 0
2.5 6.25 0
0 6.25 0
0.625 6.25 0
0 6.875 0
0.625 6.875 0
0.625 6.25 0
1.25 6.25 0
0.625 6.875 0
1.25 6.875 0
0 6.875 0
0.625 6.875 0
0 7.5 0
0.625 7.5 0
0.625 6.875 0
1.25 6.875 0
0.625 7.5 0
1.25 7.5 0
1.25 6.25 0
1.875 6.25 0
1.25 6.875 0
1.875 6.875 0
1.875 6.25 0
2.5 6.25 0
1.875 6.875 0
2.5 6.875 0
1.25 6.875 0
1.875 6.875 0
1.25 7.5 0
1.875 7.5 0
1.875 6.875 0
2.5 6.875 0
1.875 7.5 0
2.5 7.5 0
2.5 5 0
3.125 5 0
2.5 5.625 0
3.125 5.625 0
3.125 5 0
3.75 5 0
3.125 5.625 0
3.75 5.625 0
2.5 5.625 0
3.125 5.625 0
2.5 6.25 0
3.125 6.25 0
3.125 5.625 0
3.75 5.625 0
3.125 6.25 0
3.75 6.25 0
3.75 5 0
4.375 5 0
3.75 5.625 0
4.375 5.625 0
4.375 5 0
5 5 0
4.375 5.625 0
5 5.625 0
3.75 5.625 0
4.375 5.625 0
3.75 6.25 0
4.375 6.25 0
4.375 5.625 0
5 5.625 0
4.375 6.25 0
5 6.25 0
2.5 6.25 0
3.125 6.25 0
2.5 6.875 0
3.125 6.875 0
3.125 6.25 0
3.75 6.25 0
3.125 6.875 0
3.75 6.875 0
2.5 6.875 0
3.125 6.875 0
2.5 7.5 0
3.125 7.5 0
3.125 6.875 0
3.75 6.875 0
3.125 7.5 0
3.75 7.5 0
3.75 6.25 0
4.375 6.25 0
3.75 6.875 0
4.375 6.875 0
4.375 6.25 0
5 6.25 0
4.375 6.875 0
5 6.875 0
3.75 6.875 0
4.375 6.875 0
3.75 7.5 0
4.375 7.5 0
4.375 6.875 0
5 6.875 0
4.375 7.5 0
5 7.5 0
0 7.5 0
0.625 7.5 0
0 8.125 0
0.625 8.125 0
0.625 7.5 0
1.25 7.5 0
0.625 8.125 0
1.25 8.125 0
0 8.125 0
0.625 8.125 0
0 8.75 0
0.625 8.75 0
0.625 8.125 0
1.25 8.125 0
0.625 8.75 0
1.25 8.75 0
1.25 7.5 0
1.875 7.5 0
1.25 8.125 0
1.875 8.125 0
1.875 7.5 0
2.5 7.5 0
1.875 8.125 0
2.5 8.125 0
1.25 8.125 0
1.875 8.125 0
1.25 8.75 0
1.875 8.75 0
1.875 8.125 0
2.5 8.125 0
1.875 8.75 0
2.5 8.75 0
0 8.75 0
0.625 8.75 0
0 9.375 0
0.625 9.375 0
0.625 8.75 0
1.25 8.75 0
0.625 9.375 0
1.25 9.375 0
0 9.375 0
0.625 9.375 0
0 10 0
0.625 10 0
0.625 9.375 0
1.25 9.375 0
0.625 10 0
1.25 10 0
1.25 8.75 0
1.875 8.75 0
1.25 9.375 0
1.875 9.375 0
1.875 8.75 0
2.5 8.75 0
1.875 9.375 0
2.5 9.375 0
1.25 9.375 0
1.875 9.375 0
1.25 10 0
1.875 10 0
1.875 9.375 0
2.5 9.375 0
1.875 10 0
2.5 10 0
2.5 7.5 0
3.125 7.5 0
2.5 8.125 0
3.125 8.125 0
3.125 7.5 0
3.75 7.5 0
3.125 8.125 0
3.75 8.125 0
2.5 8.125 0
3.125 8.125 0
2.5 8.75 0
3.125 8.75 0
3.125 8.125 0
3.75 8.125 0
3.125 8.75 0
3.75 8.75 0
3.75 7.5 0
4.375 7.5 0
3.75 8.125 0
4.375 8.125 0
4.375 7.5 0
5 7.5 0
4.375 8.125 0
5 8.125 0
3.75 8.125 0
4.375 8.125 0
3.75 8.75 0
4.375 8.75 0
4.375 8.125 0
5 8.125 0
4.375 8.75 0
5 8.75 0
2.5 8.75 0
3.125 8.75 0
2.5 9.375 0
3.125 9.375 0
3.125 8.75 0
3.75 8.75 0
3.125 9.375 0
3.75 9.375 0
2.5 9.375 0
3.125 9.375 0
2.5 10 0
3.125 10 0
3.125 9.375 0
3.75 9.375 0
3.125 10 0
3.75 10 0
3.75 8.75 0
4.375 8.75 0
3.75 9.375 0
4.375 9.375 0
4.375 8.75 0
5 8.75 0
4.375 9.375 0
5 9.375 0
3.75 9.375 0
4.375 9.375 0
3.75 10 0
4.375 10 0
4.375 9.375 0
5 9.375 0
4.375 10 0
5 10 0
5 5 0
5.625 5 0
5 5.625 0
5.625 5.625 0
5.625 5 0
6.25 5 0
5.625 5.625 0
6.25 5.625 0
5 5.625 0
5.625 5.625 0
5 6.25 0
5.625 6.25 0
5.625 5.625 0
6.25 5.625 0
5.625 6.25 0
6.25 6.25 0
6.25 5 0
6.875 5 0
6.25 5.625 0
6.875 5.625 0
6.875 5 0
7.5 5 0
6.875 5.625 0
7.5 5.625 0
6.25 5.625 0
6.875 5.625 0
6.25 6.25 0
6.875 6.25 0
6.875 5.625 0
7.5 5.625 0
6.875 6.25 0
7.5 6.25 0
5 6.25 0
5.625 6.25 0
5 6.875 0
5.625 6.875 0
5.625 6.25 0
6.25 6.25 0
5.625 6.875 0
6.25 6.875 0
5 6.875 0
5.625 6.875 0
5 7.5 0
5.625 7.5 0
5.625 6.875 0
6.25 6.875 0
5.625 7.5 0
6.25 7.5 0
6.25 6.25 0
6.875 6.25 0
[...]
POINT_DATA 4096
VECTORS velocity double
0 0 0
0 0 0
0 0 0
7.23784e-06 3.55875e-06 0
0 0 0
0 0 0
7.23784e-06 3.55875e-06 0
1.69305e-05 2.71661e-05 0
0 0 0
7.23784e-06 3.55875e-06 0
0 0 0
-5.95818e-06 -2.9177e-06 0
7.23784e-06 3.55875e-06 0
1.69305e-05 2.71661e-05 0
-5.95818e-06 -2.9177e-06 0
4.69688e-06 1.88791e-05 0
0 0 0
0 0 0
1.69305e-05 2.71661e-05 0
-2.13624e-05 1.79206e-05 0
0 0 0
0 0 0
-2.13624e-05 1.79206e-05 0
1.32365e-07 -1.68431e-05 0
1.69305e-05 2.71661e-05 0
-2.13624e-05 1.79206e-05 0
4.69688e-06 1.88791e-05 0
-3.42051e-05 1.10906e-05 0
-2.13624e-05 1.79206e-05 0
1.32365e-07 -1.68431e-05 0
-3.42051e-05 1.10906e-05 0
-1.78697e-06 -2.94478e-05 0
0 0 0
-5.95818e-06 -2.9177e-06 0
0 0 0
1.64202e-06 5.69996e-06 0
-5.95818e-06 -2.9177e-06 0
4.69688e-06 1.88791e-05 0
1.64202e-06 5.69996e-06 0
3.90969e-06 2.62378e-05 0
0 0 0
1.64202e-06 5.69996e-06 0
0 0 0
2.4141e-06 7.20198e-06 0
1.64202e-06 5.69996e-06 0
3.90969e-06 2.62378e-05 0
2.4141e-06 7.20198e-06 0
1.43928e-05 3.07325e-05 0
4.69688e-06 1.88791e-05 0
-3.42051e-05 1.10906e-05 0
3.90969e-06 2.62378e-05 0
-5.4608e-06 -2.56521e-06 0
-3.42051e-05 1.10906e-05 0
-1.78697e-06 -2.94478e-05 0
-5.4608e-06 -2.56521e-06 0
9.01642e-06 -4.62796e-05 0
3.90969e-06 2.62378e-05 0
-5.4608e-06 -2.56521e-06 0
1.43928e-05 3.07325e-05 0
-3.67861e-07 6.78167e-06 0
-5.4608e-06 -2.56521e-06 0
9.01642e-06 -4.62796e-05 0
-3.67861e-07 6.78167e-06 0
2.67834e-05 -5.34486e-05 0
0 0 0
0 0 0
1.32365e-07 -1.68431e-05 0
1.0402e-05 -2.00903e-05 0
0 0 0
0 0 0
1.0402e-05 -2.00903e-05 0
5.01134e-05 -6.14166e-05 0
1.32365e-07 -1.68431e-05 0
1.0402e-05 -2.00903e-05 0
-1.78697e-06 -2.94478e-05 0
5.6767e-06 -4.33081e-05 0
1.0402e-05 -2.00903e-05 0
5.01134e-05 -6.14166e-05 0
5.6767e-06 -4.33081e-05 0
3.01497e-05 -9.07196e-05 0
0 0 0
0 0 0
5.01134e-05 -6.14166e-05 0
6.80432e-05 2.46207e-05 0
0 0 0
0 0 0
6.80432e-05 2.46207e-05 0
4.8989e-05 -3.54346e-05 0
5.01134e-05 -6.14166e-05 0
6.80432e-05 2.46207e-05 0
3.01497e-05 -9.07196e-05 0
5.04137e-05 3.05237e-05 0
6.80432e-05 2.46207e-05 0
4.8989e-05 -3.54346e-05 0
5.04137e-05 3.05237e-05 0
5.11108e-05 1.09343e-05 0
-1.78697e-06 -2.94478e-05 0
5.6767e-06 -4.33081e-05 0
9.01642e-06 -4.62796e-05 0
2.88333e-05 -8.24684e-05 0
5.6767e-06 -4.33081e-05 0
3.01497e-05 -9.07196e-05 0
2.88333e-05 -8.24684e-05 0
5.06092e-05 -0.000124266 0
9.01642e-06 -4.62796e-05 0
2.88333e-05 -8.24684e-05 0
2.67834e-05 -5.34486e-05 0
3.14491e-05 -7.83565e-05 0
2.88333e-05 -8.24684e-05 0
5.06092e-05 -0.000124266 0
3.14491e-05 -7.83565e-05 0
2.53874e-05 -0.000120562 0
3.01497e-05 -9.07196e-05 0
5.04137e-05 3.05237e-05 0
5.06092e-05 -0.000124266 0
5.58141e-05 1.36947e-05 0
5.04137e-05 3.05237e-05 0
5.11108e-05 1.09343e-05 0
5.58141e-05 1.36947e-05 0
6.37991e-05 2.18902e-05 0
5.06092e-05 -0.000124266 0
5.58141e-05 1.36947e-05 0
2.53874e-05 -0.000120562 0
4.71751e-05 6.30306e-06 0
5.58141e-05 1.36947e-05 0
6.37991e-05 2.18902e-05 0
4.71751e-05 6.30306e-06 0
7.96079e-05 2.32755e-05 0
0 0 0
2.4141e-06 7.20198e-06 0
0 0 0
8.9113e-07 1.26408e-05 0
2.4141e-06 7.20198e-06 0
1.43928e-05 3.07325e-05 0
8.9113e-07 1.26408e-05 0
2.03035e-05 2.29309e-05 0
0 0 0
8.9113e-07 1.26408e-05 0
0 0 0
1.21018e-05 1.31037e-06 0
8.9113e-07 1.26408e-05 0
2.03035e-05 2.29309e-05 0
1.21018e-05 1.31037e-06 0
8.51872e-06 8.41782e-06 0
1.43928e-05 3.07325e-05 0
-3.67861e-07 6.78167e-06 0
2.03035e-05 2.29309e-05 0
-1.80277e-06 5.79303e-06 0
-3.67861e-07 6.78167e-06 0
2.67834e-05 -5.34486e-05 0
-1.80277e-06 5.79303e-06 0
3.03019e-05 -4.84117e-05 0
2.03035e-05 2.29309e-05 0
-1.80277e-06 5.79303e-06 0
8.51872e-06 8.41782e-06 0
-1.5797e-06 -6.09036e-06 0
-1.80277e-06 5.79303e-06 0
3.03019e-05 -4.84117e-05 0
-1.5797e-06 -6.09036e-06 0
1.96442e-05 -8.42423e-05 0
0 0 0
1.21018e-05 1.31037e-06 0
0 0 0
1.10666e-05 1.24112e-05 0
1.21018e-05 1.31037e-06 0
8.51872e-06 8.41782e-06 0
1.10666e-05 1.24112e-05 0
5.30595e-06 1.71678e-05 0
0 0 0
1.10666e-05 1.24112e-05 0
0 0 0
1.50042e-05 9.74143e-06 0
1.10666e-05 1.24112e-05 0
5.30595e-06 1.71678e-05 0
1.50042e-05 9.74143e-06 0
1.01051e-05 1.72456e-05 0
8.51872e-06 8.41782e-06 0
-1.5797e-06 -6.09036e-06 0
5.30595e-06 1.71678e-05 0
3.827e-07 -1.33895e-05 0
-1.5797e-06 -6.09036e-06 0
1.96442e-05 -8.42423e-05 0
3.827e-07 -1.33895e-05 0
1.13055e-05 -6.67759e-05 0
5.30595e-06 1.71678e-05 0
3.827e-07 -1.33895e-05 0
1.01051e-05 1.72456e-05 0
-3.22307e-06 -3.64246e-06 0
3.827e-07 -1.33895e-05 0
1.13055e-05 -6.67759e-05 0
-3.22307e-06 -3.64246e-06 0
5.90144e-06 -6.58547e-05 0
2.67834e-05 -5.34486e-05 0
3.14491e-05 -7.83565e-05 0
3.03019e-05 -4.84117e-05 0
2.54508e-05 -8.15603e-05 0
3.14491e-05 -7.83565e-05 0
2.53874e-05 -0.000120562 0
2.54508e-05 -8.15603e-05 0
2.95477e-05 -0.000133002 0
3.03019e-05 -4.84117e-05 0
2.54508e-05 -8.15603e-05 0
1.96442e-05 -8.42423e-05 0
2.55988e-05 -9.49875e-05 0
2.54508e-05 -8.15603e-05 0
2.95477e-05 -0.000133002 0
2.55988e-05 -9.49875e-05 0
2.46245e-05 -0.00014083 0
2.53874e-05 -0.000120562 0
4.71751e-05 6.30306e-06 0
2.95477e-05 -0.000133002 0
3.97934e-05 -7.88985e-06 0
4.71751e-05 6.30306e-06 0
7.96079e-05 2.32755e-05 0
3.97934e-05 -7.88985e-06 0
5.8492e-05 1.9923e-05 0
2.95477e-05 -0.000133002 0
3.97934e-05 -7.88985e-06 0
2.46245e-05 -0.00014083 0
2.5189e-05 -2.09758e-05 0
3.97934e-05 -7.88985e-06 0
5.8492e-05 1.9923e-05 0
2.5189e-05 -2.09758e-05 0
3.55464e-05 -5.51693e-07 0
1.96442e-05 -8.42423e-05 0
2.55988e-05 -9.49875e-05 0
1.13055e-05 -6.67759e-05 0
1.27883e-05 -9.79275e-05 0
2.55988e-05 -9.49875e-05 0
2.46245e-05 -0.00014083 0
1.27883e-05 -9.79275e-05 0
-6.02711e-06 -0.000137275 0
1.13055e-05 -6.67759e-05 0
1.27883e-05 -9.79275e-05 0
5.90144e-06 -6.58547e-05 0
-1.36899e-05 -9.27987e-05 0
1.27883e-05 -9.79275e-05 0
-6.02711e-06 -0.000137275 0
-1.36899e-05 -9.27987e-05 0
-3.22334e-05 -0.000119098 0
2.46245e-05 -0.00014083 0
2.5189e-05 -2.09758e-05 0
-6.02711e-06 -0.000137275 0
-7.03743e-06 -2.61421e-05 0
2.5189e-05 -2.09758e-05 0
3.55464e-05 -5.51693e-07 0
-7.03743e-06 -2.61421e-05 0
-1.24786e-07 8.22184e-06 0
-6.02711e-06 -0.000137275 0
-7.03743e-06 -2.61421e-05 0
-3.22334e-05 -0.000119098 0
-2.74357e-05 -1.1847e-05 0
-7.03743e-06 -2.61421e-05 0
-1.24786e-07 8.22184e-06 0
-2.74357e-05 -1.1847e-05 0
-2.17328e-05 2.18334e-05 0
0 0 0
0 0 0
4.8989e-05 -3.54346e-05 0
1.60675e-05 -0.000135347 0
0 0 0
0 0 0
1.60675e-05 -0.000135347 0
2.95955e-05 -2.20639e-05 0
4.8989e-05 -3.54346e-05 0
1.60675e-05 -0.000135347 0
5.11108e-05 1.09343e-05 0
3.45932e-05 -0.000131039 0
1.60675e-05 -0.000135347 0
2.95955e-05 -2.20639e-05 0
3.45932e-05 -0.000131039 0
4.26005e-05 -3.13108e-05 0
0 0 0
0 0 0
2.95955e-05 -2.20639e-05 0
4.6016e-05 4.97908e-07 0
0 0 0
0 0 0
4.6016e-05 4.97908e-07 0
0.000110523 -8.99835e-05 0
2.95955e-05 -2.20639e-05 0
4.6016e-05 4.97908e-07 0
4.26005e-05 -3.13108e-05 0
5.99664e-05 -2.29794e-05 0
4.6016e-05 4.97908e-07 0
0.000110523 -8.99835e-05 0
5.99664e-05 -2.29794e-05 0
8.12394e-05 -0.000127199 0
5.11108e-05 1.09343e-05 0
3.45932e-05 -0.000131039 0
6.37991e-05 2.18902e-05 0
7.10535e-05 -0.000133128 0
3.45932e-05 -0.000131039 0
4.26005e-05 -3.13108e-05 0
7.10535e-05 -0.000133128 0
5.61699e-05 -5.54676e-05 0
6.37991e-05 2.18902e-05 0
7.10535e-05 -0.000133128 0
7.96079e-05 2.32755e-05 0
6.88273e-05 -0.000107522 0
7.10535e-05 -0.000133128 0
5.61699e-05 -5.54676e-05 0
6.88273e-05 -0.000107522 0
6.45757e-05 -4.16614e-05 0
4.26005e-05 -3.13108e-05 0
5.99664e-05 -2.29794e-05 0
5.61699e-05 -5.54676e-05 0
6.75921e-05 -5.52502e-05 0
5.99664e-05 -2.29794e-05 0
8.12394e-05 -0.000127199 0
6.75921e-05 -5.52502e-05 0
8.27295e-05 -0.000147612 0
5.61699e-05 -5.54676e-05 0
6.75921e-05 -5.52502e-05 0
6.45757e-05 -4.16614e-05 0
5.9401e-05 -5.94669e-05 0
6.75921e-05 -5.52502e-05 0
8.27295e-05 -0.000147612 0
5.9401e-05 -5.94669e-05 0
5.2345e-05 -0.000118995 0
0 0 0
0 0 0
0.000110523 -8.99835e-05 0
9.64566e-05 0.00010074 0
0 0 0
0 0 0
9.64566e-05 0.00010074 0
-4.06601e-05 9.72824e-06 0
0.000110523 -8.99835e-05 0
9.64566e-05 0.00010074 0
8.12394e-05 -0.000127199 0
8.08439e-05 0.000182272 0
9.64566e-05 0.00010074 0
-4.06601e-05 9.72824e-06 0
8.08439e-05 0.000182272 0
7.13457e-06 8.54659e-05 0
0 0 0
0 0 0
-4.06601e-05 9.72824e-06 0
-3.589e-05 0.000128908 0
0 0 0
0 0 0
-3.589e-05 0.000128908 0
2.6563e-05 7.60146e-05 0
-4.06601e-05 9.72824e-06 0
-3.589e-05 0.000128908 0
7.13457e-06 8.54659e-05 0
-3.1961e-06 6.51784e-05 0
-3.589e-05 0.000128908 0
2.6563e-05 7.60146e-05 0
-3.1961e-06 6.51784e-05 0
3.84621e-05 -2.53882e-05 0
8.12394e-05 -0.000127199 0
8.08439e-05 0.000182272 0
8.27295e-05 -0.000147612 0
6.96347e-05 0.000206945 0
8.08439e-05 0.000182272 0
7.13457e-06 8.54659e-05 0
6.96347e-05 0.000206945 0
3.05965e-05 0.000106775 0
8.27295e-05 -0.000147612 0
6.96347e-05 0.000206945 0
5.2345e-05 -0.000118995 0
5.15661e-05 0.000234662 0
6.96347e-05 0.000206945 0
3.05965e-05 0.000106775 0
5.15661e-05 0.000234662 0
5.39083e-05 0.000135543 0
7.13457e-06 8.54659e-05 0
-3.1961e-06 6.51784e-05 0
3.05965e-05 0.000106775 0
3.47946e-05 5.19841e-05 0
-3.1961e-06 6.51784e-05 0
3.84621e-05 -2.53882e-05 0
3.47946e-05 5.19841e-05 0
4.11934e-05 -6.13991e-05 0
3.05965e-05 0.000106775 0
3.47946e-05 5.19841e-05 0
5.39083e-05 0.000135543 0
4.83129e-05 5.64806e-05 0
3.47946e-05 5.19841e-05 0
4.11934e-05 -6.13991e-05 0
4.83129e-05 5.64806e-05 0
3.69323e-05 -6.96586e-05 0
7.96079e-05 2.32755e-05 0
6.88273e-05 -0.000107522 0
5.8492e-05 1.9923e-05 0
5.56206e-05 -9.9481e-05 0
6.88273e-05 -0.000107522 0
6.45757e-05 -4.16614e-05 0
5.56206e-05 -9.9481e-05 0
6.1025e-05 -4.33897e-05 0
5.8492e-05 1.9923e-05 0
5.56206e-05 -9.9481e-05 0
3.55464e-05 -5.51693e-07 0
3.82327e-05 -9.75357e-05 0
5.56206e-05 -9.9481e-05 0
6.1025e-05 -4.33897e-05 0
3.82327e-05 -9.75357e-05 0
3.08815e-05 -4.1165e-05 0
6.45757e-05 -4.16614e-05 0
5.9401e-05 -5.94669e-05 0
6.1025e-05 -4.33897e-05 0
4.52893e-05 -4.09082e-05 0
5.9401e-05 -5.94669e-05 0
5.2345e-05 -0.000118995 0
4.52893e-05 -4.09082e-05 0
2.70482e-05 -0.000104055 0
6.1025e-05 -4.33897e-05 0
4.52893e-05 -4.09082e-05 0
3.08815e-05 -4.1165e-05 0
1.48581e-05 -4.70481e-05 0
4.52893e-05 -4.09082e-05 0
2.70482e-05 -0.000104055 0
1.48581e-05 -4.70481e-05 0
4.04415e-08 -9.05051e-05 0
3.55464e-05 -5.51693e-07 0
3.82327e-05 -9.75357e-05 0
-1.24786e-07 8.22184e-06 0
6.75363e-06 -8.61637e-05 0
3.82327e-05 -9.75357e-05 0
3.08815e-05 -4.1165e-05 0
6.75363e-06 -8.61637e-05 0
-4.88818e-06 -2.99509e-05 0
-1.24786e-07 8.22184e-06 0
6.75363e-06 -8.61637e-05 0
-2.17328e-05 2.18334e-05 0
-2.5083e-05 -7.05725e-05 0
6.75363e-06 -8.61637e-05 0
-4.88818e-06 -2.99509e-05 0
-2.5083e-05 -7.05725e-05 0
-3.11122e-05 -2.01244e-05 0
3.08815e-05 -4.1165e-05 0
1.48581e-05 -4.70481e-05 0
-4.88818e-06 -2.99509e-05 0
-2.06716e-05 -3.37391e-05 0
1.48581e-05 -4.70481e-05 0
4.04415e-08 -9.05051e-05 0
-2.06716e-05 -3.37391e-05 0
-2.98784e-05 -6.90757e-05 0
-4.88818e-06 -2.99509e-05 0
-2.06716e-05 -3.37391e-05 0
-3.11122e-05 -2.01244e-05 0
-4.16118e-05 -1.41848e-05 0
-2.06716e-05 -3.37391e-05 0
-2.98784e-05 -6.90757e-05 0
-4.16118e-05 -1.41848e-05 0
-5.75279e-05 -6.34808e-05 0
5.2345e-05 -0.000118995 0
5.15661e-05 0.000234662 0
2.70482e-05 -0.000104055 0
2.23955e-05 0.000223587 0
5.15661e-05 0.000234662 0
5.39083e-05 0.000135543 0
2.23955e-05 0.000223587 0
2.36468e-05 0.000135141 0
2.70482e-05 -0.000104055 0
2.23955e-05 0.000223587 0
4.04415e-08 -9.05051e-05 0
3.35067e-06 0.000191392 0
2.23955e-05 0.000223587 0
2.36468e-05 0.000135141 0
3.35067e-06 0.000191392 0
7.05964e-06 0.000111982 0
5.39083e-05 0.000135543 0
4.83129e-05 5.64806e-05 0
2.36468e-05 0.000135141 0
4.3429e-05 5.637e-05 0
4.83129e-05 5.64806e-05 0
3.69323e-05 -6.96586e-05 0
4.3429e-05 5.637e-05 0
3.32741e-05 -6.35754e-05 0
2.36468e-05 0.000135141 0
4.3429e-05 5.637e-05 0
7.05964e-06 0.000111982 0
2.08603e-05 3.97037e-05 0
4.3429e-05 5.637e-05 0
3.32741e-05 -6.35754e-05 0
2.08603e-05 3.97037e-05 0
-1.44631e-05 -5.82073e-05 0
4.04415e-08 -9.05051e-05 0
3.35067e-06 0.000191392 0
-2.98784e-05 -6.90757e-05 0
-2.41752e-05 0.000189422 0
3.35067e-06 0.000191392 0
7.05964e-06 0.000111982 0
-2.41752e-05 0.000189422 0
-1.72873e-05 0.00011608 0
-2.98784e-05 -6.90757e-05 0
-2.41752e-05 0.000189422 0
-5.75279e-05 -6.34808e-05 0
-5.38223e-05 0.000170537 0
-2.41752e-05 0.000189422 0
-1.72873e-05 0.00011608 0
-5.38223e-05 0.000170537 0
-3.64658e-05 0.000111201 0
7.05964e-06 0.000111982 0
2.08603e-05 3.97037e-05 0
-1.72873e-05 0.00011608 0
-1.23896e-05 4.99554e-05 0
2.08603e-05 3.97037e-05 0
-1.44631e-05 -5.82073e-05 0
-1.23896e-05 4.99554e-05 0
-3.39784e-05 -4.54774e-05 0
-1.72873e-05 0.00011608 0
-1.23896e-05 4.99554e-05 0
-3.64658e-05 0.000111201 0
-3.00203e-05 5.63424e-05 0
-1.23896e-05 4.99554e-05 0
-3.39784e-05 -4.54774e-05 0
-3.00203e-05 5.63424e-05 0
-4.83825e-05 -2.93756e-05 0
0 0 0
1.50042e-05 9.74143e-06 0
0 0 0
1.55988e-05 1.05325e-05 0
1.50042e-05 9.74143e-06 0
1.01051e-05 1.72456e-05 0
1.55988e-05 1.05325e-05 0
5.34762e-06 2.7921e-05 0
0 0 0
1.55988e-05 1.05325e-05 0
0 0 0
5.57673e-07 1.388e-05 0
1.55988e-05 1.05325e-05 0
5.34762e-06 2.7921e-05 0
5.57673e-07 1.388e-05 0
4.12576e-06 2.30176e-05 0
1.01051e-05 1.72456e-05 0
-3.22307e-06 -3.64246e-06 0
5.34762e-06 2.7921e-05 0
-7.78374e-06 -1.36072e-07 0
-3.22307e-06 -3.64246e-06 0
5.90144e-06 -6.58547e-05 0
-7.78374e-06 -1.36072e-07 0
3.68982e-06 -5.75083e-05 0
5.34762e-06 2.7921e-05 0
-7.78374e-06 -1.36072e-07 0
4.12576e-06 2.30176e-05 0
-1.19301e-05 3.23349e-06 0
-7.78374e-06 -1.36072e-07 0
3.68982e-06 -5.75083e-05 0
-1.19301e-05 3.23349e-06 0
-1.08151e-05 -4.55611e-05 0
0 0 0
5.57673e-07 1.388e-05 0
0 0 0
7.61459e-07 1.67992e-05 0
5.57673e-07 1.388e-05 0
4.12576e-06 2.30176e-05 0
7.61459e-07 1.67992e-05 0
7.43339e-07 2.66285e-05 0
0 0 0
7.61459e-07 1.67992e-05 0
0 0 0
3.471e-06 1.55136e-05 0
7.61459e-07 1.67992e-05 0
7.43339e-07 2.66285e-05 0
3.471e-06 1.55136e-05 0
-2.92744e-07 2.97641e-05 0
4.12576e-06 2.30176e-05 0
-1.19301e-05 3.23349e-06 0
7.43339e-07 2.66285e-05 0
-1.56374e-05 6.91668e-06 0
-1.19301e-05 3.23349e-06 0
-1.08151e-05 -4.55611e-05 0
-1.56374e-05 6.91668e-06 0
-1.27459e-05 -3.15819e-05 0
7.43339e-07 2.66285e-05 0
-1.56374e-05 6.91668e-06 0
-2.92744e-07 2.97641e-05 0
-1.20038e-05 7.26389e-06 0
-1.56374e-05 6.91668e-06 0
-1.27459e-05 -3.15819e-05 0
-1.20038e-05 7.26389e-06 0
-1.74474e-05 -2.20631e-05 0
5.90144e-06 -6.58547e-05 0
-1.36899e-05 -9.27987e-05 0
3.68982e-06 -5.75083e-05 0
-1.50149e-05 -7.5448e-05 0
-1.36899e-05 -9.27987e-05 0
-3.22334e-05 -0.000119098 0
-1.50149e-05 -7.5448e-05 0
-3.94679e-05 -0.00010309 0
3.68982e-06 -5.75083e-05 0
-1.50149e-05 -7.5448e-05 0
-1.08151e-05 -4.55611e-05 0
-2.9048e-05 -6.50564e-05 0
-1.50149e-05 -7.5448e-05 0
-3.94679e-05 -0.00010309 0
-2.9048e-05 -6.50564e-05 0
-5.20939e-05 -8.45099e-05 0
-3.22334e-05 -0.000119098 0
-2.74357e-05 -1.1847e-05 0
-3.94679e-05 -0.00010309 0
-5.3171e-05 -6.54068e-06 0
-2.74357e-05 -1.1847e-05 0
-2.17328e-05 2.18334e-05 0
-5.3171e-05 -6.54068e-06 0
-4.03534e-05 1.07412e-05 0
-3.94679e-05 -0.00010309 0
-5.3171e-05 -6.54068e-06 0
-5.20939e-05 -8.45099e-05 0
-6.20996e-05 -7.21711e-06 0
-5.3171e-05 -6.54068e-06 0
-4.03534e-05 1.07412e-05 0
-6.20996e-05 -7.21711e-06 0
-5.62012e-05 1.5414e-05 0
-1.08151e-05 -4.55611e-05 0
-2.9048e-05 -6.50564e-05 0
-1.27459e-05 -3.15819e-05 0
-3.20795e-05 -4.63216e-05 0
-2.9048e-05 -6.50564e-05 0
-5.20939e-05 -8.45099e-05 0
-3.20795e-05 -4.63216e-05 0
-5.20444e-05 -6.6604e-05 0
-1.27459e-05 -3.15819e-05 0
-3.20795e-05 -4.63216e-05 0
-1.74474e-05 -2.20631e-05 0
-3.08396e-05 -3.75126e-05 0
-3.20795e-05 -4.63216e-05 0
-5.20444e-05 -6.6604e-05 0
-3.08396e-05 -3.75126e-05 0
-4.80352e-05 -5.27878e-05 0
-5.20939e-05 -8.45099e-05 0
-6.20996e-05 -7.21711e-06 0
-5.20444e-05 -6.6604e-05 0
-6.36909e-05 -1.39554e-06 0
-6.20996e-05 -7.21711e-06 0
-5.62012e-05 1.5414e-05 0
-6.36909e-05 -1.39554e-06 0
-6.22316e-05 1.75528e-05 0
-5.20444e-05 -6.6604e-05 0
-6.36909e-05 -1.39554e-06 0
-4.80352e-05 -5.27878e-05 0
-6.07442e-05 4.60827e-06 0
-6.36909e-05 -1.39554e-06 0
-6.22316e-05 1.75528e-05 0
-6.07442e-05 4.60827e-06 0
-6.08688e-05 1.94651e-05 0
0 0 0
3.471e-06 1.55136e-05 0
0 0 0
1.09939e-05 2.1976e-05 0
3.471e-06 1.55136e-05 0
-2.92744e-07 2.97641e-05 0
1.09939e-05 2.1976e-05 0
6.04834e-06 3.09738e-05 0
0 0 0
1.09939e-05 2.1976e-05 0
0 0 0
8.62822e-06 2.03517e-05 0
1.09939e-05 2.1976e-05 0
6.04834e-06 3.09738e-05 0
8.62822e-06 2.03517e-05 0
8.58693e-06 3.18478e-05 0
-2.92744e-07 2.97641e-05 0
-1.20038e-05 7.26389e-06 0
6.04834e-06 3.09738e-05 0
-3.60189e-06 2.07314e-05 0
-1.20038e-05 7.26389e-06 0
-1.74474e-05 -2.20631e-05 0
-3.60189e-06 2.07314e-05 0
-1.02787e-05 -6.81865e-06 0
6.04834e-06 3.09738e-05 0
-3.60189e-06 2.07314e-05 0
8.58693e-06 3.18478e-05 0
2.82545e-06 2.35421e-05 0
-3.60189e-06 2.07314e-05 0
-1.02787e-05 -6.81865e-06 0
2.82545e-06 2.35421e-05 0
-8.01344e-07 2.97881e-06 0
0 0 0
8.62822e-06 2.03517e-05 0
0 0 0
8.93836e-06 2.81013e-05 0
8.62822e-06 2.03517e-05 0
8.58693e-06 3.18478e-05 0
8.93836e-06 2.81013e-05 0
9.19977e-06 3.88187e-05 0
0 0 0
8.93836e-06 2.81013e-05 0
0 0 0
0 0 0
8.93836e-06 2.81013e-05 0
9.19977e-06 3.88187e-05 0
0 0 0
0 0 0
8.58693e-06 3.18478e-05 0
2.82545e-06 2.35421e-05 0
9.19977e-06 3.88187e-05 0
8.63366e-06 3.59042e-05 0
2.82545e-06 2.35421e-05 0
-8.01344e-07 2.97881e-06 0
8.63366e-06 3.59042e-05 0
8.91046e-06 2.06731e-05 0
9.19977e-06 3.88187e-05 0
8.63366e-06 3.59042e-05 0
0 0 0
0 0 0
8.63366e-06 3.59042e-05 0
8.91046e-06 2.06731e-05 0
0 0 0
0 0 0
-1.74474e-05 -2.20631e-05 0
-3.08396e-05 -3.75126e-05 0
-1.02787e-05 -6.81865e-06 0
-2.66236e-05 -1.65903e-05 0
-3.08396e-05 -3.75126e-05 0
-4.80352e-05 -5.27878e-05 0
-2.66236e-05 -1.65903e-05 0
-4.39354e-05 -3.16834e-05 0
-1.02787e-05 -6.81865e-06 0
-2.66236e-05 -1.65903e-05 0
-8.01344e-07 2.97881e-06 0
-1.40232e-05 -3.40213e-06 0
-2.66236e-05 -1.65903e-05 0
-4.39354e-05 -3.16834e-05 0
-1.40232e-05 -3.40213e-06 0
-2.9368e-05 -1.56271e-05 0
-4.80352e-05 -5.27878e-05 0
-6.07442e-05 4.60827e-06 0
-4.39354e-05 -3.16834e-05 0
-5.21756e-05 1.10927e-05 0
-6.07442e-05 4.60827e-06 0
-6.08688e-05 1.94651e-05 0
-5.21756e-05 1.10927e-05 0
-5.30174e-05 2.37659e-05 0
-4.39354e-05 -3.16834e-05 0
-5.21756e-05 1.10927e-05 0
-2.9368e-05 -1.56271e-05 0
-3.98777e-05 1.31948e-05 0
-5.21756e-05 1.10927e-05 0
-5.30174e-05 2.37659e-05 0
-3.98777e-05 1.31948e-05 0
-3.88321e-05 2.07301e-05 0
-8.01344e-07 2.97881e-06 0
-1.40232e-05 -3.40213e-06 0
8.91046e-06 2.06731e-05 0
9.3661e-07 1.55367e-05 0
-1.40232e-05 -3.40213e-06 0
-2.9368e-05 -1.56271e-05 0
9.3661e-07 1.55367e-05 0
-1.2636e-05 5.22597e-06 0
8.91046e-06 2.06731e-05 0
9.3661e-07 1.55367e-05 0
0 0 0
0 0 0
9.3661e-07 1.55367e-05 0
-1.2636e-05 5.22597e-06 0
0 0 0
0 0 0
-2.9368e-05 -1.56271e-05 0
-3.98777e-05 1.31948e-05 0
-1.2636e-05 5.22597e-06 0
-2.16329e-05 2.29631e-05 0
-3.98777e-05 1.31948e-05 0
-3.88321e-05 2.07301e-05 0
-2.16329e-05 2.29631e-05 0
-1.43987e-05 2.49077e-05 0
-1.2636e-05 5.22597e-06 0
-2.16329e-05 2.29631e-05 0
0 0 0
0 0 0
-2.16329e-05 2.29631e-05 0
-1.43987e-05 2.49077e-05 0
0 0 0
0 0 0
-2.17328e-05 2.18334e-05 0
-2.5083e-05 -7.05725e-05 0
-4.03534e-05 1.07412e-05 0
-4.17035e-05 -5.8265e-05 0
-2.5083e-05 -7.05725e-05 0
-3.11122e-05 -2.01244e-05 0
-4.17035e-05 -5.8265e-05 0
-4.51953e-05 -1.60272e-05 0
-4.03534e-05 1.07412e-05 0
-4.17035e-05 -5.8265e-05 0
-5.62012e-05 1.5414e-05 0
-5.7165e-05 -4.46998e-05 0
-4.17035e-05 -5.8265e-05 0
-4.51953e-05 -1.60272e-05 0
-5.7165e-05 -4.46998e-05 0
-6.30514e-05 -1.71898e-06 0
-3.11122e-05 -2.01244e-05 0
-4.16118e-05 -1.41848e-05 0
-4.51953e-05 -1.60272e-05 0
-5.49671e-05 -1.66205e-05 0
-4.16118e-05 -1.41848e-05 0
-5.75279e-05 -6.34808e-05 0
-5.49671e-05 -1.66205e-05 0
-6.39825e-05 -4.51771e-05 0
-4.51953e-05 -1.60272e-05 0
-5.49671e-05 -1.66205e-05 0
-6.30514e-05 -1.71898e-06 0
-7.43888e-05 -1.85437e-06 0
-5.49671e-05 -1.66205e-05 0
-6.39825e-05 -4.51771e-05 0
-7.43888e-05 -1.85437e-06 0
-8.2341e-05 -3.39698e-05 0
-5.62012e-05 1.5414e-05 0
-5.7165e-05 -4.46998e-05 0
-6.22316e-05 1.75528e-05 0
-6.41931e-05 -3.52097e-05 0
-5.7165e-05 -4.46998e-05 0
-6.30514e-05 -1.71898e-06 0
-6.41931e-05 -3.52097e-05 0
-7.16019e-05 1.72005e-06 0