# vtk DataFile Version 3.0
#This file was generated by the deal.II library on 2017/1/31 at 17:08:25
ASCII
DATASET UNSTRUCTURED_GRID

POINTS 16384 double
0 0 0
0.0078125 0 0
0 0.015625 0
0.0078125 0.015625 0
0.0078125 0 0
0.015625 0 0
0.0078125 0.015625 0
0.015625 0.015625 0
0 0.015625 0
0.0078125 0.015625 0
0 0.03125 0
0.0078125 0.03125 0
0.0078125 0.015625 0
0.015625 0.015625 0
0.0078125 0.03125 0
0.015625 0.03125 0
0.015625 0 0
0.0234375 0 0
0.015625 0.015625 0
0.0234375 0.015625 0
0.0234375 0 0
0.03125 0 0
0.0234375 0.015625 0
0.03125 0.015625 0
0.015625 0.015625 0
0.0234375 0.015625 0
0.015625 0.03125 0
0.0234375 0.03125 0
0.0234375 0.015625 0
0.03125 0.015625 0
0.0234375 0.03125 0
0.03125 0.03125 0
0 0.03125 0
0.0078125 0.03125 0
0 0.046875 0
0.0078125 0.046875 0
0.0078125 0.03125 0
0.015625 0.03125 0
0.0078125 0.046875 0
0.015625 0.046875 0
0 0.046875 0
0.0078125 0.046875 0
0 0.0625 0
0.0078125 0.0625 0
0.0078125 0.046875 0
0.015625 0.046875 0
0.0078125 0.0625 0
0.015625 0.0625 0
0.015625 0.03125 0
0.0234375 0.03125 0
0.015625 0.046875 0
0.0234375 0.046875 0
0.0234375 0.03125 0
0.03125 0.03125 0
0.0234375 0.046875 0
0.03125 0.046875 0
0.015625 0.046875 0
0.0234375 0.046875 0
0.015625 0.0625 0
0.0234375 0.0625 0
0.0234375 0.046875 0
0.03125 0.046875 0
0.0234375 0.0625 0
0.03125 0.0625 0
0.03125 0 0
0.0390625 0 0
0.03125 0.015625 0
0.0390625 0.015625 0
0.0390625 0 0
0.046875 0 0
0.0390625 0.015625 0
0.046875 0.015625 0
0.03125 0.015625 0
0.0390625 0.015625 0
0.03125 0.03125 0
0.0390625 0.03125 0
0.0390625 0.015625 0
0.046875 0.015625 0
0.0390625 0.03125 0
0.046875 0.03125 0
0.046875 0 0
0.0546875 0 0
0.046875 0.015625 0
0.0546875 0.015625 0
0.0546875 0 0
0.0625 0 0
0.0546875 0.015625 0
0.0625 0.015625 0
0.046875 0.015625 0
0.0546875 0.015625 0
0.046875 0.03125 0
0.0546875 0.03125 0
0.0546875 0.015625 0
0.0625 0.015625 0
0.0546875 0.03125 0
0.0625 0.03125 0
0.03125 0.03125 0
0.0390625 0.03125 0
0.03125 0.046875 0
0.0390625 0.046875 0
0.0390625 0.03125 0
0.046875 0.03125 0
0.0390625 0.046875 0
0.046875 0.046875 0
0.03125 0.046875 0
0.0390625 0.046875 0
0.03125 0.0625 0
0.0390625 0.0625 0
0.0390625 0.046875 0
0.046875 0.046875 0
0.0390625 0.0625 0
0.046875 0.0625 0
0.046875 0.03125 0
0.0546875 0.03125 0
0.046875 0.046875 0
0.0546875 0.046875 0
0.0546875 0.03125 0
0.0625 0.03125 0
0.0546875 0.046875 0
0.0625 0.046875 0
0.046875 0.046875 0
0.0546875 0.046875 0
0.046875 0.0625 0
0.0546875 0.0625 0
0.0546875 0.046875 0
0.0625 0.046875 0
0.0546875 0.0625 0
0.0625 0.0625 0
0 0.0625 0
0.0078125 0.0625 0
0 0.078125 0
0.0078125 0.078125 0
0.0078125 0.0625 0
0.015625 0.0625 0
0.0078125 0.078125 0
0.015625 0.078125 0
0 0.078125 0
0.0078125 0.078125 0
0 0.09375 0
0.0078125 0.09375 0
0.0078125 0.078125 0
0.015625 0.078125 0
0.0078125 0.09375 0
0.015625 0.09375 0
0.015625 0.0625 0
0.0234375 0.0625 0
0.015625 0.078125 0
0.0234375 0.078125 0
0.0234375 0.0625 0
0.03125 0.0625 0
0.0234375 0.078125 0
0.03125 0.078125 0
0.015625 0.078125 0
0.0234375 0.078125 0
0.015625 0.09375 0
0.0234375 0.09375 0
0.0234375 0.078125 0
0.03125 0.078125 0
0.0234375 0.09375 0
0.03125 0.09375 0
0 0.09375 0
0.0078125 0.09375 0
0 0.109375 0
0.0078125 0.109375 0
0.0078125 0.09375 0
0.015625 0.09375 0
0.0078125 0.109375 0
0.015625 0.109375 0
0 0.109375 0
0.0078125 0.109375 0
0 0.125 0
0.0078125 0.125 0
0.0078125 0.109375 0
0.015625 0.109375 0
0.0078125 0.125 0
0.015625 0.125 0
0.015625 0.09375 0
0.0234375 0.09375 0
0.015625 0.109375 0
0.0234375 0.109375 0
0.0234375 0.09375 0
0.03125 0.09375 0
0.0234375 0.109375 0
0.03125 0.109375 0
0.015625 0.109375 0
0.0234375 0.109375 0
0.015625 0.125 0
0.0234375 0.125 0
0.0234375 0.109375 0
0.03125 0.109375 0
0.0234375 0.125 0
0.03125 0.125 0
0.03125 0.0625 0
0.0390625 0.0625 0
0.03125 0.078125 0
0.0390625 0.078125 0
0.0390625 0.0625 0
0.046875 0.0625 0
0.0390625 0.078125 0
0.046875 0.078125 0
0.03125 0.078125 0
0.0390625 0.078125 0
0.03125 0.09375 0
0.0390625 0.09375 0
0.0390625 0.078125 0
0.046875 0.078125 0
0.0390625 0.09375 0
0.046875 0.09375 0
0.046875 0.0625 0
0.0546875 0.0625 0
0.046875 0.078125 0
0.0546875 0.078125 0
0.0546875 0.0625 0
0.0625 0.0625 0
0.0546875 0.078125 0
0.0625 0.078125 0
0.046875 0.078125 0
0.0546875 0.078125 0
0.046875 0.09375 0
0.0546875 0.09375 0
0.0546875 0.078125 0
0.0625 0.078125 0
0.0546875 0.09375 0
0.0625 0.09375 0
0.03125 0.09375 0
0.0390625 0.09375 0
0.03125 0.109375 0
0.0390625 0.109375 0
0.0390625 0.09375 0
0.046875 0.09375 0
0.0390625 0.109375 0
0.046875 0.109375 0
0.03125 0.109375 0
0.0390625 0.109375 0
0.03125 0.125 0
0.0390625 0.125 0
0.0390625 0.109375 0
0.046875 0.109375 0
0.0390625 0.125 0
0.046875 0.125 0
0.046875 0.09375 0
0.0546875 0.09375 0
0.046875 0.109375 0
0.0546875 0.109375 0
0.0546875 0.09375 0
0.0625 0.09375 0
0.0546875 0.109375 0
0.0625 0.109375 0
0.046875 0.109375 0
0.0546875 0.109375 0
0.046875 0.125 0
0.0546875 0.125 0
0.0546875 0.109375 0
0.0625 0.109375 0
0.0546875 0.125 0
0.0625 0.125 0
0.0625 0 0
0.0703125 0 0
0.0625 0.015625 0
0.0703125 0.015625 0
0.0703125 0 0
0.078125 0 0
0.0703125 0.015625 0
0.078125 0.015625 0
0.0625 0.015625 0
0.0703125 0.015625 0
0.0625 0.03125 0
0.0703125 0.03125 0
0.0703125 0.015625 0
0.078125 0.015625 0
0.0703125 0.03125 0
0.078125 0.03125 0
0.078125 0 0
0.0859375 0 0
0.078125 0.015625 0
0.0859375 0.015625 0
0.0859375 0 0
0.09375 0 0
0.0859375 0.015625 0
0.09375 0.015625 0
0.078125 0.015625 0
0.0859375 0.015625 0
0.078125 0.03125 0
0.0859375 0.03125 0
0.0859375 0.015625 0
0.09375 0.015625 0
0.0859375 0.03125 0
0.09375 0.03125 0
0.0625 0.03125 0
0.0703125 0.03125 0
0.0625 0.046875 0
0.0703125 0.046875 0
0.0703125 0.03125 0
0.078125 0.03125 0
0.0703125 0.046875 0
0.078125 0.046875 0
0.0625 0.046875 0
0.0703125 0.046875 0
0.0625 0.0625 0
0.0703125 0.0625 0
0.0703125 0.046875 0
0.078125 0.046875 0
0.0703125 0.0625 0
0.078125 0.0625 0
0.078125 0.03125 0
0.0859375 0.03125 0
0.078125 0.046875 0
0.0859375 0.046875 0
0.0859375 0.03125 0
0.09375 0.03125 0
0.0859375 0.046875 0
0.09375 0.046875 0
0.078125 0.046875 0
0.0859375 0.046875 0
0.078125 0.0625 0
0.0859375 0.0625 0
0.0859375 0.046875 0
0.09375 0.046875 0
0.0859375 0.0625 0
0.09375 0.0625 0
0.09375 0 0
0.101562 0 0
0.09375 0.015625 0
0.101562 0.015625 0
0.101562 0 0
0.109375 0 0
0.101562 0.015625 0
0.109375 0.015625 0
0.09375 0.015625 0
0.101562 0.015625 0
0.09375 0.03125 0
0.101562 0.03125 0
0.101562 0.015625 0
0.109375 0.015625 0
0.101562 0.03125 0
0.109375 0.03125 0
0.109375 0 0
0.117188 0 0
0.109375 0.015625 0
0.117188 0.015625 0
0.117188 0 0
0.125 0 0
0.117188 0.015625 0
0.125 0.015625 0
0.109375 0.015625 0
0.117188 0.015625 0
0.109375 0.03125 0
0.117188 0.03125 0
0.117188 0.015625 0
0.125 0.015625 0
0.117188 0.03125 0
0.125 0.03125 0
0.09375 0.03125 0
0.101562 0.03125 0
0.09375 0.046875 0
0.101562 0.046875 0
0.101562 0.03125 0
0.109375 0.03125 0
0.101562 0.046875 0
0.109375 0.046875 0
0.09375 0.046875 0
0.101562 0.046875 0
0.09375 0.0625 0
0.101562 0.0625 0
0.101562 0.046875 0
0.109375 0.046875 0
0.101562 0.0625 0
0.109375 0.0625 0
0.109375 0.03125 0
0.117188 0.03125 0
0.109375 0.046875 0
0.117188 0.046875 0
0.117188 0.03125 0
0.125 0.03125 0
0.117188 0.046875 0
0.125 0.046875 0
0.109375 0.046875 0
0.117188 0.046875 0
0.109375 0.0625 0
0.117188 0.0625 0
0.117188 0.046875 0
0.125 0.046875 0
0.117188 0.0625 0
0.125 0.0625 0
0.0625 0.0625 0
0.0703125 0.0625 0
0.0625 0.078125 0
0.0703125 0.078125 0
0.0703125 0.0625 0
0.078125 0.0625 0
0.0703125 0.078125 0
0.078125 0.078125 0
0.0625 0.078125 0
0.0703125 0.078125 0
0.0625 0.09375 0
0.0703125 0.09375 0
0.0703125 0.078125 0
0.078125 0.078125 0
0.0703125 0.09375 0
0.078125 0.09375 0
0.078125 0.0625 0
0.0859375 0.0625 0
0.078125 0.078125 0
0.0859375 0.078125 0
0.0859375 0.0625 0
0.09375 0.0625 0
0.0859375 0.078125 0
0.09375 0.078125 0
0.078125 0.078125 0
0.0859375 0.078125 0
0.078125 0.09375 0
0.0859375 0.09375 0
0.0859375 0.078125 0
0.09375 0.078125 0
0.0859375 0.09375 0
0.09375 0.09375 0
0.0625 0.09375 0
0.0703125 0.09375 0
0.0625 0.109375 0
0.0703125 0.109375 0
0.0703125 0.09375 0
0.078125 0.09375 0
0.0703125 0.109375 0
0.078125 0.109375 0
0.0625 0.109375 0
0.0703125 0.109375 0
0.0625 0.125 0
0.0703125 0.125 0
0.0703125 0.109375 0
0.078125 0.109375 0
0.0703125 0.125 0
0.078125 0.125 0
0.078125 0.09375 0
0.0859375 0.09375 0
0.078125 0.109375 0
0.0859375 0.109375 0
0.0859375 0.09375 0
0.09375 0.09375 0
0.0859375 0.109375 0
0.09375 0.109375 0
0.078125 0.109375 0
0.0859375 0.109375 0
0.078125 0.125 0
0.0859375 0.125 0
0.0859375 0.109375 0
0.09375 0.109375 0
0.0859375 0.125 0
0.09375 0.125 0
0.09375 0.0625 0
0.101562 0.0625 0
0.09375 0.078125 0
0.101562 0.078125 0
0.101562 0.0625 0
0.109375 0.0625 0
0.101562 0.078125 0
0.109375 0.078125 0
0.09375 0.078125 0
0.101562 0.078125 0
0.09375 0.09375 0
0.101562 0.09375 0
0.101562 0.078125 0
0.109375 0.078125 0
0.101562 0.09375 0
0.109375 0.09375 0
0.109375 0.0625 0
0.117188 0.0625 0
0.109375 0.078125 0
0.117188 0.078125 0
0.117188 0.0625 0
0.125 0.0625 0
0.117188 0.078125 0
0.125 0.078125 0
0.109375 0.078125 0
0.117188 0.078125 0
0.109375 0.09375 0
0.117188 0.09375 0
0.117188 0.078125 0
0.125 0.078125 0
0.117188 0.09375 0
0.125 0.09375 0
0.09375 0.09375 0
0.101562 0.09375 0
0.09375 0.109375 0
0.101562 0.109375 0
0.101562 0.09375 0
0.109375 0.09375 0
0.101562 0.109375 0
0.109375 0.109375 0
0.09375 0.109375 0
0.101562 0.109375 0
0.09375 0.125 0
0.101562 0.125 0
0.101562 0.109375 0
0.109375 0.109375 0
0.101562 0.125 0
0.109375 0.125 0
0.109375 0.09375 0
0.117188 0.09375 0
0.109375 0.109375 0
0.117188 0.109375 0
0.117188 0.09375 0
0.125 0.09375 0
0.117188 0.109375 0
0.125 0.109375 0
0.109375 0.109375 0
0.117188 0.109375 0
0.109375 0.125 0
0.117188 0.125 0
0.117188 0.109375 0
0.125 0.109375 0
0.117188 0.125 0
0.125 0.125 0
0 0.125 0
0.0078125 0.125 0
0 0.140625 0
0.0078125 0.140625 0
0.0078125 0.125 0
0.015625 0.125 0
0.0078125 0.140625 0
0.015625 0.140625 0
0 0.140625 0
0.0078125 0.140625 0
0 0.15625 0
0.0078125 0.15625 0
0.0078125 0.140625 0
0.015625 0.140625 0
0.0078125 0.15625 0
[...]
POINT_DATA 16384
VECTORS velocity double
0 0 0
0 0 0
0 0 0
-3.52188e-20 -1.32857e-19 0
0 0 0
0 0 0
-3.52188e-20 -1.32857e-19 0
-1.30028e-19 -6.72429e-20 0
0 0 0
-3.52188e-20 -1.32857e-19 0
0 0 0
-1.15902e-19 1.61917e-19 0
-3.52188e-20 -1.32857e-19 0
-1.30028e-19 -6.72429e-20 0
-1.15902e-19 1.61917e-19 0
-3.69611e-19 4.96681e-19 0
0 0 0
0 0 0
-1.30028e-19 -6.72429e-20 0
-3.35564e-19 -4.89088e-21 0
0 0 0
0 0 0
-3.35564e-19 -4.89088e-21 0
-5.72481e-19 1.0482e-19 0
-1.30028e-19 -6.72429e-20 0
-3.35564e-19 -4.89088e-21 0
-3.69611e-19 4.96681e-19 0
-8.09073e-19 8.65012e-19 0
-3.35564e-19 -4.89088e-21 0
-5.72481e-19 1.0482e-19 0
-8.09073e-19 8.65012e-19 0
-1.43063e-18 1.279e-18 0
0 0 0
-1.15902e-19 1.61917e-19 0
0 0 0
-1.53458e-19 6.1951e-19 0
-1.15902e-19 1.61917e-19 0
-3.69611e-19 4.96681e-19 0
-1.53458e-19 6.1951e-19 0
-5.75169e-19 1.39394e-18 0
0 0 0
-1.53458e-19 6.1951e-19 0
0 0 0
-1.93187e-19 1.28021e-18 0
-1.53458e-19 6.1951e-19 0
-5.75169e-19 1.39394e-18 0
-1.93187e-19 1.28021e-18 0
-7.5041e-19 2.66752e-18 0
-3.69611e-19 4.96681e-19 0
-8.09073e-19 8.65012e-19 0
-5.75169e-19 1.39394e-18 0
-1.27479e-18 2.21994e-18 0
-8.09073e-19 8.65012e-19 0
-1.43063e-18 1.279e-18 0
-1.27479e-18 2.21994e-18 0
-2.2337e-18 3.13793e-18 0
-5.75169e-19 1.39394e-18 0
-1.27479e-18 2.21994e-18 0
-7.5041e-19 2.66752e-18 0
-1.61866e-18 4.05219e-18 0
-1.27479e-18 2.21994e-18 0
-2.2337e-18 3.13793e-18 0
-1.61866e-18 4.05219e-18 0
-2.81811e-18 5.53154e-18 0
0 0 0
0 0 0
-5.72481e-19 1.0482e-19 0
-9.40489e-19 5.22222e-19 0
0 0 0
0 0 0
-9.40489e-19 5.22222e-19 0
-1.65168e-18 2.1451e-19 0
-5.72481e-19 1.0482e-19 0
-9.40489e-19 5.22222e-19 0
-1.43063e-18 1.279e-18 0
-2.17535e-18 1.85501e-18 0
-9.40489e-19 5.22222e-19 0
-1.65168e-18 2.1451e-19 0
-2.17535e-18 1.85501e-18 0
-3.25745e-18 1.92533e-18 0
0 0 0
0 0 0
-1.65168e-18 2.1451e-19 0
-2.15436e-18 4.86586e-19 0
0 0 0
0 0 0
-2.15436e-18 4.86586e-19 0
-2.64309e-18 7.40522e-19 0
-1.65168e-18 2.1451e-19 0
-2.15436e-18 4.86586e-19 0
-3.25745e-18 1.92533e-18 0
-4.35515e-18 2.29527e-18 0
-2.15436e-18 4.86586e-19 0
-2.64309e-18 7.40522e-19 0
-4.35515e-18 2.29527e-18 0
-5.52642e-18 2.6694e-18 0
-1.43063e-18 1.279e-18 0
-2.17535e-18 1.85501e-18 0
-2.2337e-18 3.13793e-18 0
-3.37879e-18 3.98082e-18 0
-2.17535e-18 1.85501e-18 0
-3.25745e-18 1.92533e-18 0
-3.37879e-18 3.98082e-18 0
-4.7845e-18 4.57155e-18 0
-2.2337e-18 3.13793e-18 0
-3.37879e-18 3.98082e-18 0
-2.81811e-18 5.53154e-18 0
-4.26941e-18 6.72925e-18 0
-3.37879e-18 3.98082e-18 0
-4.7845e-18 4.57155e-18 0
-4.26941e-18 6.72925e-18 0
-5.87928e-18 7.88751e-18 0
-3.25745e-18 1.92533e-18 0
-4.35515e-18 2.29527e-18 0
-4.7845e-18 4.57155e-18 0
-6.34378e-18 5.17938e-18 0
-4.35515e-18 2.29527e-18 0
-5.52642e-18 2.6694e-18 0
-6.34378e-18 5.17938e-18 0
-8.06839e-18 5.8836e-18 0
-4.7845e-18 4.57155e-18 0
-6.34378e-18 5.17938e-18 0
-5.87928e-18 7.88751e-18 0
-7.79413e-18 8.82008e-18 0
-6.34378e-18 5.17938e-18 0
-8.06839e-18 5.8836e-18 0
-7.79413e-18 8.82008e-18 0
-9.94105e-18 9.79168e-18 0
0 0 0
-1.93187e-19 1.28021e-18 0
0 0 0
-1.51307e-19 2.14413e-18 0
-1.93187e-19 1.28021e-18 0
-7.5041e-19 2.66752e-18 0
-1.51307e-19 2.14413e-18 0
-6.52215e-19 4.18824e-18 0
0 0 0
-1.51307e-19 2.14413e-18 0
0 0 0
-8.79433e-20 2.73701e-18 0
-1.51307e-19 2.14413e-18 0
-6.52215e-19 4.18824e-18 0
-8.79433e-20 2.73701e-18 0
-5.9432e-19 5.51191e-18 0
-7.5041e-19 2.66752e-18 0
-1.61866e-18 4.05219e-18 0
-6.52215e-19 4.18824e-18 0
-1.64984e-18 6.25241e-18 0
-1.61866e-18 4.05219e-18 0
-2.81811e-18 5.53154e-18 0
-1.64984e-18 6.25241e-18 0
-2.9525e-18 8.38268e-18 0
-6.52215e-19 4.18824e-18 0
-1.64984e-18 6.25241e-18 0
-5.9432e-19 5.51191e-18 0
-1.43582e-18 8.3237e-18 0
-1.64984e-18 6.25241e-18 0
-2.9525e-18 8.38268e-18 0
-1.43582e-18 8.3237e-18 0
-2.79642e-18 1.11745e-17 0
0 0 0
-8.79433e-20 2.73701e-18 0
0 0 0
1.23205e-19 3.51262e-18 0
-8.79433e-20 2.73701e-18 0
-5.9432e-19 5.51191e-18 0
1.23205e-19 3.51262e-18 0
-3.93892e-19 7.02843e-18 0
0 0 0
1.23205e-19 3.51262e-18 0
0 0 0
-3.80567e-19 4.07203e-18 0
1.23205e-19 3.51262e-18 0
-3.93892e-19 7.02843e-18 0
-3.80567e-19 4.07203e-18 0
-1.06918e-18 8.52882e-18 0
-5.9432e-19 5.51191e-18 0
-1.43582e-18 8.3237e-18 0
-3.93892e-19 7.02843e-18 0
-1.2607e-18 1.07312e-17 0
-1.43582e-18 8.3237e-18 0
-2.79642e-18 1.11745e-17 0
-1.2607e-18 1.07312e-17 0
-2.72219e-18 1.44207e-17 0
-3.93892e-19 7.02843e-18 0
-1.2607e-18 1.07312e-17 0
-1.06918e-18 8.52882e-18 0
-2.26386e-18 1.30722e-17 0
-1.2607e-18 1.07312e-17 0
-2.72219e-18 1.44207e-17 0
-2.26386e-18 1.30722e-17 0
-4.05608e-18 1.76397e-17 0
-2.81811e-18 5.53154e-18 0
-4.26941e-18 6.72925e-18 0
-2.9525e-18 8.38268e-18 0
-4.54842e-18 1.00144e-17 0
-4.26941e-18 6.72925e-18 0
-5.87928e-18 7.88751e-18 0
-4.54842e-18 1.00144e-17 0
-6.28346e-18 1.18984e-17 0
-2.9525e-18 8.38268e-18 0
-4.54842e-18 1.00144e-17 0
-2.79642e-18 1.11745e-17 0
-4.39102e-18 1.34468e-17 0
-4.54842e-18 1.00144e-17 0
-6.28346e-18 1.18984e-17 0
-4.39102e-18 1.34468e-17 0
-6.11242e-18 1.61946e-17 0
-5.87928e-18 7.88751e-18 0
-7.79413e-18 8.82008e-18 0
-6.28346e-18 1.18984e-17 0
-8.52202e-18 1.31915e-17 0
-7.79413e-18 8.82008e-18 0
-9.94105e-18 9.79168e-18 0
-8.52202e-18 1.31915e-17 0
-1.10483e-17 1.45282e-17 0
-6.28346e-18 1.18984e-17 0
-8.52202e-18 1.31915e-17 0
-6.11242e-18 1.61946e-17 0
-8.56149e-18 1.79578e-17 0
-8.52202e-18 1.31915e-17 0
-1.10483e-17 1.45282e-17 0
-8.56149e-18 1.79578e-17 0
-1.14393e-17 1.96955e-17 0
-2.79642e-18 1.11745e-17 0
-4.39102e-18 1.34468e-17 0
-2.72219e-18 1.44207e-17 0
-4.61218e-18 1.7253e-17 0
-4.39102e-18 1.34468e-17 0
-6.11242e-18 1.61946e-17 0
-4.61218e-18 1.7253e-17 0
-6.32991e-18 2.09639e-17 0
-2.72219e-18 1.44207e-17 0
-4.61218e-18 1.7253e-17 0
-4.05608e-18 1.76397e-17 0
-6.10011e-18 2.1072e-17 0
-4.61218e-18 1.7253e-17 0
-6.32991e-18 2.09639e-17 0
-6.10011e-18 2.1072e-17 0
-7.78052e-18 2.53057e-17 0
-6.11242e-18 1.61946e-17 0
-8.56149e-18 1.79578e-17 0
-6.32991e-18 2.09639e-17 0
-8.85239e-18 2.32615e-17 0
-8.56149e-18 1.79578e-17 0
-1.14393e-17 1.96955e-17 0
-8.85239e-18 2.32615e-17 0
-1.17722e-17 2.5297e-17 0
-6.32991e-18 2.09639e-17 0
-8.85239e-18 2.32615e-17 0
-7.78052e-18 2.53057e-17 0
-1.01676e-17 2.80167e-17 0
-8.85239e-18 2.32615e-17 0
-1.17722e-17 2.5297e-17 0
-1.01676e-17 2.80167e-17 0
-1.29322e-17 3.04036e-17 0
0 0 0
0 0 0
-2.64309e-18 7.40522e-19 0
-3.51775e-18 1.00843e-18 0
0 0 0
0 0 0
-3.51775e-18 1.00843e-18 0
-4.30599e-18 1.4751e-18 0
-2.64309e-18 7.40522e-19 0
-3.51775e-18 1.00843e-18 0
-5.52642e-18 2.6694e-18 0
-6.99053e-18 3.17123e-18 0
-3.51775e-18 1.00843e-18 0
-4.30599e-18 1.4751e-18 0
-6.99053e-18 3.17123e-18 0
-8.46324e-18 3.83682e-18 0
0 0 0
0 0 0
-4.30599e-18 1.4751e-18 0
-5.38236e-18 9.00983e-19 0
0 0 0
0 0 0
-5.38236e-18 9.00983e-19 0
-6.39555e-18 1.01568e-18 0
-4.30599e-18 1.4751e-18 0
-5.38236e-18 9.00983e-19 0
-8.46324e-18 3.83682e-18 0
-1.01486e-17 3.59202e-18 0
-5.38236e-18 9.00983e-19 0
-6.39555e-18 1.01568e-18 0
-1.01486e-17 3.59202e-18 0
-1.19231e-17 3.75694e-18 0
-5.52642e-18 2.6694e-18 0
-6.99053e-18 3.17123e-18 0
-8.06839e-18 5.8836e-18 0
-1.00025e-17 6.64205e-18 0
-6.99053e-18 3.17123e-18 0
-8.46324e-18 3.83682e-18 0
-1.00025e-17 6.64205e-18 0
-1.198e-17 7.30857e-18 0
-8.06839e-18 5.8836e-18 0
-1.00025e-17 6.64205e-18 0
-9.94105e-18 9.79168e-18 0
-1.22586e-17 1.07807e-17 0
-1.00025e-17 6.64205e-18 0
-1.198e-17 7.30857e-18 0
-1.22586e-17 1.07807e-17 0
-1.46406e-17 1.16205e-17 0
-8.46324e-18 3.83682e-18 0
-1.01486e-17 3.59202e-18 0
-1.198e-17 7.30857e-18 0
-1.41465e-17 7.67301e-18 0
-1.01486e-17 3.59202e-18 0
-1.19231e-17 3.75694e-18 0
-1.41465e-17 7.67301e-18 0
-1.65307e-17 8.01006e-18 0
-1.198e-17 7.30857e-18 0
-1.41465e-17 7.67301e-18 0
-1.46406e-17 1.16205e-17 0
-1.71356e-17 1.26234e-17 0
-1.41465e-17 7.67301e-18 0
-1.65307e-17 8.01006e-18 0
-1.71356e-17 1.26234e-17 0
-1.99716e-17 1.31663e-17 0
0 0 0
0 0 0
-6.39555e-18 1.01568e-18 0
-7.4441e-18 1.12365e-18 0
0 0 0
0 0 0
-7.4441e-18 1.12365e-18 0
-8.55621e-18 1.47343e-18 0
-6.39555e-18 1.01568e-18 0
-7.4441e-18 1.12365e-18 0
-1.19231e-17 3.75694e-18 0
-1.38068e-17 3.98621e-18 0
-7.4441e-18 1.12365e-18 0
-8.55621e-18 1.47343e-18 0
-1.38068e-17 3.98621e-18 0
-1.56694e-17 4.36771e-18 0
0 0 0
0 0 0
-8.55621e-18 1.47343e-18 0
-9.64173e-18 1.23901e-18 0
0 0 0
0 0 0
-9.64173e-18 1.23901e-18 0
-1.06142e-17 1.0687e-18 0
-8.55621e-18 1.47343e-18 0
-9.64173e-18 1.23901e-18 0
-1.56694e-17 4.36771e-18 0
-1.75644e-17 4.11134e-18 0
-9.64173e-18 1.23901e-18 0
-1.06142e-17 1.0687e-18 0
-1.75644e-17 4.11134e-18 0
-1.9454e-17 3.89636e-18 0
-1.19231e-17 3.75694e-18 0
-1.38068e-17 3.98621e-18 0
-1.65307e-17 8.01006e-18 0
-1.89772e-17 8.26817e-18 0
-1.38068e-17 3.98621e-18 0
-1.56694e-17 4.36771e-18 0
-1.89772e-17 8.26817e-18 0
-2.13897e-17 8.52228e-18 0
-1.65307e-17 8.01006e-18 0
-1.89772e-17 8.26817e-18 0
-1.99716e-17 1.31663e-17 0
-2.28464e-17 1.34703e-17 0
-1.89772e-17 8.26817e-18 0
-2.13897e-17 8.52228e-18 0
-2.28464e-17 1.34703e-17 0
-2.56613e-17 1.36169e-17 0
-1.56694e-17 4.36771e-18 0
-1.75644e-17 4.11134e-18 0
-2.13897e-17 8.52228e-18 0
-2.38733e-17 8.50885e-18 0
-1.75644e-17 4.11134e-18 0
-1.9454e-17 3.89636e-18 0
-2.38733e-17 8.50885e-18 0
-2.64332e-17 8.41699e-18 0
-2.13897e-17 8.52228e-18 0
-2.38733e-17 8.50885e-18 0
-2.56613e-17 1.36169e-17 0
-2.86392e-17 1.38485e-17 0
-2.38733e-17 8.50885e-18 0
-2.64332e-17 8.41699e-18 0
-2.86392e-17 1.38485e-17 0
-3.16368e-17 1.39286e-17 0
-9.94105e-18 9.79168e-18 0
-1.22586e-17 1.07807e-17 0
-1.10483e-17 1.45282e-17 0
-1.36232e-17 1.57317e-17 0
-1.22586e-17 1.07807e-17 0
-1.46406e-17 1.16205e-17 0
-1.36232e-17 1.57317e-17 0
-1.63947e-17 1.66776e-17 0
-1.10483e-17 1.45282e-17 0
-1.36232e-17 1.57317e-17 0
-1.14393e-17 1.96955e-17 0
-1.42064e-17 2.12604e-17 0
-1.36232e-17 1.57317e-17 0
-1.63947e-17 1.66776e-17 0
-1.42064e-17 2.12604e-17 0
-1.71241e-17 2.22856e-17 0
-1.46406e-17 1.16205e-17 0
-1.71356e-17 1.26234e-17 0
-1.63947e-17 1.66776e-17 0
-1.90832e-17 1.83573e-17 0
-1.71356e-17 1.26234e-17 0
-1.99716e-17 1.31663e-17 0
-1.90832e-17 1.83573e-17 0
-2.22858e-17 1.91452e-17 0
-1.63947e-17 1.66776e-17 0
-1.90832e-17 1.83573e-17 0
-1.71241e-17 2.22856e-17 0
-2.01242e-17 2.45136e-17 0
-1.90832e-17 1.83573e-17 0
-2.22858e-17 1.91452e-17 0
-2.01242e-17 2.45136e-17 0
-2.36128e-17 2.55968e-17 0
-1.14393e-17 1.96955e-17 0
-1.42064e-17 2.12604e-17 0
-1.17722e-17 2.5297e-17 0
-1.44573e-17 2.70712e-17 0
-1.42064e-17 2.12604e-17 0
-1.71241e-17 2.22856e-17 0
-1.44573e-17 2.70712e-17 0
-1.75265e-17 2.81559e-17 0
-1.17722e-17 2.5297e-17 0
-1.44573e-17 2.70712e-17 0
-1.29322e-17 3.04036e-17 0
-1.55436e-17 3.23231e-17 0
-1.44573e-17 2.70712e-17 0
-1.75265e-17 2.81559e-17 0
-1.55436e-17 3.23231e-17 0
-1.82933e-17 3.36599e-17 0
-1.71241e-17 2.22856e-17 0
-2.01242e-17 2.45136e-17 0
-1.75265e-17 2.81559e-17 0
-2.03421e-17 3.1281e-17 0
-2.01242e-17 2.45136e-17 0
-2.36128e-17 2.55968e-17 0
-2.03421e-17 3.1281e-17 0
-2.39482e-17 3.25481e-17 0
-1.75265e-17 2.81559e-17 0
-2.03421e-17 3.1281e-17 0
-1.82933e-17 3.36599e-17 0
-2.1019e-17 3.73861e-17 0
-2.03421e-17 3.1281e-17 0
-2.39482e-17 3.25481e-17 0
-2.1019e-17 3.73861e-17 0
-2.42523e-17 3.89922e-17 0
-1.99716e-17 1.31663e-17 0
-2.28464e-17 1.34703e-17 0
-2.22858e-17 1.91452e-17 0
-2.55574e-17 1.95709e-17 0
-2.28464e-17 1.34703e-17 0
-2.56613e-17 1.36169e-17 0
-2.55574e-17 1.95709e-17 0
-2.85591e-17 1.96828e-17 0
-2.22858e-17 1.91452e-17 0
-2.55574e-17 1.95709e-17 0
-2.36128e-17 2.55968e-17 0
-2.69501e-17 2.60544e-17 0
-2.55574e-17 1.95709e-17 0
-2.85591e-17 1.96828e-17 0
-2.69501e-17 2.60544e-17 0
-3.02751e-17 2.59688e-17 0
-2.56613e-17 1.36169e-17 0
-2.86392e-17 1.38485e-17 0
-2.85591e-17 1.96828e-17 0
-3.19354e-17 2.00696e-17 0
-2.86392e-17 1.38485e-17 0
-3.16368e-17 1.39286e-17 0
-3.19354e-17 2.00696e-17 0
-3.52687e-17 2.02946e-17 0
-2.85591e-17 1.96828e-17 0
-3.19354e-17 2.00696e-17 0
-3.02751e-17 2.59688e-17 0
-3.37566e-17 2.66879e-17 0
-3.19354e-17 2.00696e-17 0
-3.52687e-17 2.02946e-17 0
-3.37566e-17 2.66879e-17 0
-3.73423e-17 2.71074e-17 0
-2.36128e-17 2.55968e-17 0
-2.69501e-17 2.60544e-17 0
-2.39482e-17 3.25481e-17 0
-2.7366e-17 3.3107e-17 0
-2.69501e-17 2.60544e-17 0
-3.02751e-17 2.59688e-17 0
-2.7366e-17 3.3107e-17 0
-3.06163e-17 3.30281e-17 0
-2.39482e-17 3.25481e-17 0
-2.7366e-17 3.3107e-17 0
-2.42523e-17 3.89922e-17 0
-2.7515e-17 3.97672e-17 0
-2.7366e-17 3.3107e-17 0
-3.06163e-17 3.30281e-17 0
-2.7515e-17 3.97672e-17 0
-3.08026e-17 3.93383e-17 0
-3.02751e-17 2.59688e-17 0
-3.37566e-17 2.66879e-17 0
-3.06163e-17 3.30281e-17 0
-3.4239e-17 3.40257e-17 0
-3.37566e-17 2.66879e-17 0
-3.73423e-17 2.71074e-17 0
-3.4239e-17 3.40257e-17 0
-3.79469e-17 3.44267e-17 0
-3.06163e-17 3.30281e-17 0
-3.4239e-17 3.40257e-17 0
-3.08026e-17 3.93383e-17 0
-3.42459e-17 4.06254e-17 0
-3.4239e-17 3.40257e-17 0
-3.79469e-17 3.44267e-17 0
-3.42459e-17 4.06254e-17 0
-3.78705e-17 4.12622e-17 0
0 0 0
-3.80567e-19 4.07203e-18 0
0 0 0
-5.78436e-19 5.27335e-18 0
-3.80567e-19 4.07203e-18 0
-1.06918e-18 8.52882e-18 0
-5.78436e-19 5.27335e-18 0
-1.70345e-18 1.06039e-17 0
0 0 0
-5.78436e-19 5.27335e-18 0
0 0 0
-2.00363e-19 7.26111e-18 0
-5.78436e-19 5.27335e-18 0
-1.70345e-18 1.06039e-17 0
-2.00363e-19 7.26111e-18 0
-1.22268e-18 1.35452e-17 0
-1.06918e-18 8.52882e-18 0
-2.26386e-18 1.30722e-17 0
-1.70345e-18 1.06039e-17 0
-3.02203e-18 1.59263e-17 0
-2.26386e-18 1.30722e-17 0
-4.05608e-18 1.76397e-17 0
-3.02203e-18 1.59263e-17 0
-4.92396e-18 2.12373e-17 0
-1.70345e-18 1.06039e-17 0
-3.02203e-18 1.59263e-17 0
-1.22268e-18 1.35452e-17 0
-2.50572e-18 1.94437e-17 0
-3.02203e-18 1.59263e-17 0
-4.92396e-18 2.12373e-17 0
-2.50572e-18 1.94437e-17 0
-4.21008e-18 2.48529e-17 0
0 0 0
-2.00363e-19 7.26111e-18 0
0 0 0
1.80336e-19 8.36529e-18 0
-2.00363e-19 7.26111e-18 0
-1.22268e-18 1.35452e-17 0
1.80336e-19 8.36529e-18 0
-5.00193e-19 1.54666e-17 0
0 0 0
1.80336e-19 8.36529e-18 0
0 0 0
-1.9596e-19 8.45408e-18 0
1.80336e-19 8.36529e-18 0
-5.00193e-19 1.54666e-17 0
-1.9596e-19 8.45408e-18 0
-3.30957e-19 1.6475e-17 0
-1.22268e-18 1.35452e-17 0
-2.50572e-18 1.94437e-17 0
-5.00193e-19 1.54666e-17 0
-1.36765e-18 2.22204e-17 0
-2.50572e-18 1.94437e-17 0
-4.21008e-18 2.48529e-17 0
-1.36765e-18 2.22204e-17 0
-3.0211e-18 2.83683e-17 0
-5.00193e-19 1.54666e-17 0
-1.36765e-18 2.22204e-17 0
-3.30957e-19 1.6475e-17 0
-1.18654e-18 2.39187e-17 0
-1.36765e-18 2.22204e-17 0
-3.0211e-18 2.83683e-17 0
-1.18654e-18 2.39187e-17 0
-2.53319e-18 3.10131e-17 0
-4.05608e-18 1.76397e-17 0
-6.10011e-18 2.1072e-17 0
-4.92396e-18 2.12373e-17 0
-6.58194e-18 2.49244e-17 0
-6.10011e-18 2.1072e-17 0
-7.78052e-18 2.53057e-17 0
-6.58194e-18 2.49244e-17 0
-8.21041e-18 2.99361e-17 0
-4.92396e-18 2.12373e-17 0
-6.58194e-18 2.49244e-17 0
-4.21008e-18 2.48529e-17 0
-6.24387e-18 2.86812e-17 0
-6.58194e-18 2.49244e-17 0
-8.21041e-18 2.99361e-17 0
-6.24387e-18 2.86812e-17 0
-7.62239e-18 3.4225e-17 0
-7.78052e-18 2.53057e-17 0
-1.01676e-17 2.80167e-17 0
-8.21041e-18 2.99361e-17 0
-1.05719e-17 3.27955e-17 0
-1.01676e-17 2.80167e-17 0
-1.29322e-17 3.04036e-17 0
-1.05719e-17 3.27955e-17 0
-1.31555e-17 3.53711e-17 0
-8.21041e-18 2.99361e-17 0
-1.05719e-17 3.27955e-17 0
-7.62239e-18 3.4225e-17 0
-9.97556e-18 3.74566e-17 0
-1.05719e-17 3.27955e-17 0
-1.31555e-17 3.53711e-17 0
-9.97556e-18 3.74566e-17 0
-1.2782e-17 4.02331e-17 0
-4.21008e-18 2.48529e-17 0
-6.24387e-18 2.86812e-17 0
-3.0211e-18 2.83683e-17 0
-5.04559e-18 3.27243e-17 0
-6.24387e-18 2.86812e-17 0
-7.62239e-18 3.4225e-17 0
-5.04559e-18 3.27243e-17 0
-6.1883e-18 3.87629e-17 0
-3.0211e-18 2.83683e-17 0
-5.04559e-18 3.27243e-17 0
-2.53319e-18 3.10131e-17 0
-4.13703e-18 3.58146e-17 0
-5.04559e-18 3.27243e-17 0
-6.1883e-18 3.87629e-17 0
-4.13703e-18 3.58146e-17 0
-4.88008e-18 4.20644e-17 0
-7.62239e-18 3.4225e-17 0
-9.97556e-18 3.74566e-17 0
-6.1883e-18 3.87629e-17 0
-8.37446e-18 4.19352e-17 0
-9.97556e-18 3.74566e-17 0
-1.2782e-17 4.02331e-17 0
-8.37446e-18 4.19352e-17 0
-1.10847e-17 4.47115e-17 0
-6.1883e-18 3.87629e-17 0
-8.37446e-18 4.19352e-17 0
-4.88008e-18 4.20644e-17 0
-6.83241e-18 4.55609e-17 0
-8.37446e-18 4.19352e-17 0
-1.10847e-17 4.47115e-17 0
-6.83241e-18 4.55609e-17 0
-9.6641e-18 4.8765e-17 0
0 0 0
-1.9596e-19 8.45408e-18 0
0 0 0
6.07614e-19 8.93356e-18 0
-1.9596e-19 8.45408e-18 0
-3.30957e-19 1.6475e-17 0
6.07614e-19 8.93356e-18 0
1.65838e-19 1.73992e-17 0
0 0 0
6.07614e-19 8.93356e-18 0
0 0 0
1.21536e-18 9.52471e-18 0
6.07614e-19 8.93356e-18 0
1.65838e-19 1.73992e-17 0
1.21536e-18 9.52471e-18 0
4.32023e-19 1.83045e-17 0
-3.30957e-19 1.6475e-17 0
-1.18654e-18 2.39187e-17 0
1.65838e-19 1.73992e-17 0
-2.2495e-19 2.55127e-17 0
-1.18654e-18 2.39187e-17 0
-2.53319e-18 3.10131e-17 0
-2.2495e-19 2.55127e-17 0
-1.59123e-18 3.32215e-17 0
1.65838e-19 1.73992e-17 0
-2.2495e-19 2.55127e-17 0
4.32023e-19 1.83045e-17 0
2.06942e-19 2.67063e-17 0
-2.2495e-19 2.55127e-17 0
-1.59123e-18 3.32215e-17 0
2.06942e-19 2.67063e-17 0
-8.03692e-19 3.47107e-17 0
0 0 0
1.21536e-18 9.52471e-18 0
0 0 0
4.78239e-19 1.03636e-17 0
1.21536e-18 9.52471e-18 0
4.32023e-19 1.83045e-17 0
4.78239e-19 1.03636e-17 0
2.44305e-19 1.92281e-17 0
0 0 0
4.78239e-19 1.03636e-17 0
0 0 0
-1.64191e-19 9.57927e-18 0
4.78239e-19 1.03636e-17 0
2.44305e-19 1.92281e-17 0
-1.64191e-19 9.57927e-18 0
7.06204e-20 1.84059e-17 0
4.32023e-19 1.83045e-17 0
2.06942e-19 2.67063e-17 0
2.44305e-19 1.92281e-17 0
1.27269e-19 2.78186e-17 0
2.06942e-19 2.67063e-17 0
-8.03692e-19 3.47107e-17 0
1.27269e-19 2.78186e-17 0
-2.74197e-19 3.56643e-17 0
2.44305e-19 1.92281e-17 0
1.27269e-19 2.78186e-17 0
7.06204e-20 1.84059e-17 0
4.77166e-19 2.67717e-17 0
1.27269e-19 2.78186e-17 0
-2.74197e-19 3.56643e-17 0
4.77166e-19 2.67717e-17 0
5.84236e-19 3.47536e-17 0
-2.53319e-18 3.10131e-17 0
-4.13703e-18 3.58146e-17 0
-1.59123e-18 3.32215e-17 0
-2.65837e-18 3.81373e-17 0
-4.13703e-18 3.58146e-17 0
-4.88008e-18 4.20644e-17 0
-2.65837e-18 3.81373e-17 0
-2.76392e-18 4.55743e-17 0
-1.59123e-18 3.32215e-17 0
-2.65837e-18 3.81373e-17 0
-8.03692e-19 3.47107e-17 0
-1.39733e-18 4.01233e-17 0
-2.65837e-18 3.81373e-17 0
-2.76392e-18 4.55743e-17 0
-1.39733e-18 4.01233e-17 0
-8.18735e-19 4.81941e-17 0
-4.88008e-18 4.20644e-17 0
-6.83241e-18 4.55609e-17 0
-2.76392e-18 4.55743e-17 0
-4.64184e-18 4.91569e-17 0
-6.83241e-18 4.55609e-17 0
-9.6641e-18 4.8765e-17 0
-4.64184e-18 4.91569e-17 0
-7.03521e-18 5.24731e-17 0
-2.76392e-18 4.55743e-17 0
-4.64184e-18 4.91569e-17 0
-8.18735e-19 4.81941e-17 0
-2.00812e-18 5.18962e-17 0
-4.64184e-18 4.91569e-17 0
-7.03521e-18 5.24731e-17 0
-2.00812e-18 5.18962e-17 0
-3.79448e-18 5.52633e-17 0
-8.03692e-19 3.47107e-17 0
-1.39733e-18 4.01233e-17 0
-2.74197e-19 3.56643e-17 0
-5.85814e-19 4.08382e-17 0
-1.39733e-18 4.01233e-17 0
-8.18735e-19 4.81941e-17 0
-5.85814e-19 4.08382e-17 0
7.75775e-19 4.88761e-17 0
-2.74197e-19 3.56643e-17 0
-5.85814e-19 4.08382e-17 0
5.84236e-19 3.47536e-17 0
8.96924e-19 3.99259e-17 0
-5.85814e-19 4.08382e-17 0
7.75775e-19 4.88761e-17 0
8.96924e-19 3.99259e-17 0
2.829e-18 4.74478e-17 0
-8.18735e-19 4.81941e-17 0
-2.00812e-18 5.18962e-17 0
7.75775e-19 4.88761e-17 0
7.40785e-19 5.28624e-17 0
-2.00812e-18 5.18962e-17 0
-3.79448e-18 5.52633e-17 0
7.40785e-19 5.28624e-17 0
1.17881e-19 5.618e-17 0
7.75775e-19 4.88761e-17 0
7.40785e-19 5.28624e-17 0
2.829e-18 4.74478e-17 0
3.49236e-18 5.09588e-17 0
7.40785e-19 5.28624e-17 0
1.17881e-19 5.618e-17 0
3.49236e-18 5.09588e-17 0
3.67989e-18 5.40831e-17 0
-1.29322e-17 3.04036e-17 0
-1.55436e-17 3.23231e-17 0
-1.31555e-17 3.53711e-17 0
-1.54521e-17 3.74713e-17 0
-1.55436e-17 3.23231e-17 0
-1.82933e-17 3.36599e-17 0
-1.54521e-17 3.74713e-17 0
-1.83485e-17 3.88445e-17 0
-1.31555e-17 3.53711e-17 0
-1.54521e-17 3.74713e-17 0
-1.2782e-17 4.02331e-17 0
-1.50267e-17 4.26069e-17 0
-1.54521e-17 3.74713e-17 0
-1.83485e-17 3.88445e-17 0
-1.50267e-17 4.26069e-17 0
-1.74929e-17 4.39462e-17 0
-1.82933e-17 3.36599e-17 0
-2.1019e-17 3.73861e-17 0
-1.83485e-17 3.88445e-17 0
-2.05957e-17 4.30412e-17 0
-2.1019e-17 3.73861e-17 0
-2.42523e-17 3.89922e-17 0
-2.05957e-17 4.30412e-17 0
-2.36773e-17 4.51453e-17 0
-1.83485e-17 3.88445e-17 0
-2.05957e-17 4.30412e-17 0
-1.74929e-17 4.39462e-17 0