# vtk DataFile Version 3.0
#This file was generated by the deal.II library on 2017/6/1 at 14:58:26
ASCII
DATASET UNSTRUCTURED_GRID

POINTS 16384 double
0 0 0
0.0245437 0 0
0 0.03125 0
0.0245437 0.03125 0
0.0245437 0 0
0.0490874 0 0
0.0245437 0.03125 0
0.0490874 0.03125 0
0 0.03125 0
0.0245437 0.03125 0
0 0.0625 0
0.0245437 0.0625 0
0.0245437 0.03125 0
0.0490874 0.03125 0
0.0245437 0.0625 0
0.0490874 0.0625 0
0.0490874 0 0
0.0736311 0 0
0.0490874 0.03125 0
0.0736311 0.03125 0
0.0736311 0 0
0.0981748 0 0
0.0736311 0.03125 0
0.0981748 0.03125 0
0.0490874 0.03125 0
0.0736311 0.03125 0
0.0490874 0.0625 0
0.0736311 0.0625 0
0.0736311 0.03125 0
0.0981748 0.03125 0
0.0736311 0.0625 0
0.0981748 0.0625 0
0 0.0625 0
0.0245437 0.0625 0
0 0.09375 0
0.0245437 0.09375 0
0.0245437 0.0625 0
0.0490874 0.0625 0
0.0245437 0.09375 0
0.0490874 0.09375 0
0 0.09375 0
0.0245437 0.09375 0
0 0.125 0
0.0245437 0.125 0
0.0245437 0.09375 0
0.0490874 0.09375 0
0.0245437 0.125 0
0.0490874 0.125 0
0.0490874 0.0625 0
0.0736311 0.0625 0
0.0490874 0.09375 0
0.0736311 0.09375 0
0.0736311 0.0625 0
0.0981748 0.0625 0
0.0736311 0.09375 0
0.0981748 0.09375 0
0.0490874 0.09375 0
0.0736311 0.09375 0
0.0490874 0.125 0
0.0736311 0.125 0
0.0736311 0.09375 0
0.0981748 0.09375 0
0.0736311 0.125 0
0.0981748 0.125 0
0.0981748 0 0
0.122718 0 0
0.0981748 0.03125 0
0.122718 0.03125 0
0.122718 0 0
0.147262 0 0
0.122718 0.03125 0
0.147262 0.03125 0
0.0981748 0.03125 0
0.122718 0.03125 0
0.0981748 0.0625 0
0.122718 0.0625 0
0.122718 0.03125 0
0.147262 0.03125 0
0.122718 0.0625 0
0.147262 0.0625 0
0.147262 0 0
0.171806 0 0
0.147262 0.03125 0
0.171806 0.03125 0
0.171806 0 0
0.19635 0 0
0.171806 0.03125 0
0.19635 0.03125 0
0.147262 0.03125 0
0.171806 0.03125 0
0.147262 0.0625 0
0.171806 0.0625 0
0.171806 0.03125 0
0.19635 0.03125 0
0.171806 0.0625 0
0.19635 0.0625 0
0.0981748 0.0625 0
0.122718 0.0625 0
0.0981748 0.09375 0
0.122718 0.09375 0
0.122718 0.0625 0
0.147262 0.0625 0
0.122718 0.09375 0
0.147262 0.09375 0
0.0981748 0.09375 0
0.122718 0.09375 0
0.0981748 0.125 0
0.122718 0.125 0
0.122718 0.09375 0
0.147262 0.09375 0
0.122718 0.125 0
0.147262 0.125 0
0.147262 0.0625 0
0.171806 0.0625 0
0.147262 0.09375 0
0.171806 0.09375 0
0.171806 0.0625 0
0.19635 0.0625 0
0.171806 0.09375 0
0.19635 0.09375 0
0.147262 0.09375 0
0.171806 0.09375 0
0.147262 0.125 0
0.171806 0.125 0
0.171806 0.09375 0
0.19635 0.09375 0
0.171806 0.125 0
0.19635 0.125 0
0 0.125 0
0.0245437 0.125 0
0 0.15625 0
0.0245437 0.15625 0
0.0245437 0.125 0
0.0490874 0.125 0
0.0245437 0.15625 0
0.0490874 0.15625 0
0 0.15625 0
0.0245437 0.15625 0
0 0.1875 0
0.0245437 0.1875 0
0.0245437 0.15625 0
0.0490874 0.15625 0
0.0245437 0.1875 0
0.0490874 0.1875 0
0.0490874 0.125 0
0.0736311 0.125 0
0.0490874 0.15625 0
0.0736311 0.15625 0
0.0736311 0.125 0
0.0981748 0.125 0
0.0736311 0.15625 0
0.0981748 0.15625 0
0.0490874 0.15625 0
0.0736311 0.15625 0
0.0490874 0.1875 0
0.0736311 0.1875 0
0.0736311 0.15625 0
0.0981748 0.15625 0
0.0736311 0.1875 0
0.0981748 0.1875 0
0 0.1875 0
0.0245437 0.1875 0
0 0.21875 0
0.0245437 0.21875 0
0.0245437 0.1875 0
0.0490874 0.1875 0
0.0245437 0.21875 0
0.0490874 0.21875 0
0 0.21875 0
0.0245437 0.21875 0
0 0.25 0
0.0245437 0.25 0
0.0245437 0.21875 0
0.0490874 0.21875 0
0.0245437 0.25 0
0.0490874 0.25 0
0.0490874 0.1875 0
0.0736311 0.1875 0
0.0490874 0.21875 0
0.0736311 0.21875 0
0.0736311 0.1875 0
0.0981748 0.1875 0
0.0736311 0.21875 0
0.0981748 0.21875 0
0.0490874 0.21875 0
0.0736311 0.21875 0
0.0490874 0.25 0
0.0736311 0.25 0
0.0736311 0.21875 0
0.0981748 0.21875 0
0.0736311 0.25 0
0.0981748 0.25 0
0.0981748 0.125 0
0.122718 0.125 0
0.0981748 0.15625 0
0.122718 0.15625 0
0.122718 0.125 0
0.147262 0.125 0
0.122718 0.15625 0
0.147262 0.15625 0
0.0981748 0.15625 0
0.122718 0.15625 0
0.0981748 0.1875 0
0.122718 0.1875 0
0.122718 0.15625 0
0.147262 0.15625 0
0.122718 0.1875 0
0.147262 0.1875 0
0.147262 0.125 0
0.171806 0.125 0
0.147262 0.15625 0
0.171806 0.15625 0
0.171806 0.125 0
0.19635 0.125 0
0.171806 0.15625 0
0.19635 0.15625 0
0.147262 0.15625 0
0.171806 0.15625 0
0.147262 0.1875 0
0.171806 0.1875 0
0.171806 0.15625 0
0.19635 0.15625 0
0.171806 0.1875 0
0.19635 0.1875 0
0.0981748 0.1875 0
0.122718 0.1875 0
0.0981748 0.21875 0
0.122718 0.21875 0
0.122718 0.1875 0
0.147262 0.1875 0
0.122718 0.21875 0
0.147262 0.21875 0
0.0981748 0.21875 0
0.122718 0.21875 0
0.0981748 0.25 0
0.122718 0.25 0
0.122718 0.21875 0
0.147262 0.21875 0
0.122718 0.25 0
0.147262 0.25 0
0.147262 0.1875 0
0.171806 0.1875 0
0.147262 0.21875 0
0.171806 0.21875 0
0.171806 0.1875 0
0.19635 0.1875 0
0.171806 0.21875 0
0.19635 0.21875 0
0.147262 0.21875 0
0.171806 0.21875 0
0.147262 0.25 0
0.171806 0.25 0
0.171806 0.21875 0
0.19635 0.21875 0
0.171806 0.25 0
0.19635 0.25 0
0.19635 0 0
0.220893 0 0
0.19635 0.03125 0
0.220893 0.03125 0
0.220893 0 0
0.245437 0 0
0.220893 0.03125 0
0.245437 0.03125 0
0.19635 0.03125 0
0.220893 0.03125 0
0.19635 0.0625 0
0.220893 0.0625 0
0.220893 0.03125 0
0.245437 0.03125 0
0.220893 0.0625 0
0.245437 0.0625 0
0.245437 0 0
0.269981 0 0
0.245437 0.03125 0
0.269981 0.03125 0
0.269981 0 0
0.294524 0 0
0.269981 0.03125 0
0.294524 0.03125 0
0.245437 0.03125 0
0.269981 0.03125 0
0.245437 0.0625 0
0.269981 0.0625 0
0.269981 0.03125 0
0.294524 0.03125 0
0.269981 0.0625 0
0.294524 0.0625 0
0.19635 0.0625 0
0.220893 0.0625 0
0.19635 0.09375 0
0.220893 0.09375 0
0.220893 0.0625 0
0.245437 0.0625 0
0.220893 0.09375 0
0.245437 0.09375 0
0.19635 0.09375 0
0.220893 0.09375 0
0.19635 0.125 0
0.220893 0.125 0
0.220893 0.09375 0
0.245437 0.09375 0
0.220893 0.125 0
0.245437 0.125 0
0.245437 0.0625 0
0.269981 0.0625 0
0.245437 0.09375 0
0.269981 0.09375 0
0.269981 0.0625 0
0.294524 0.0625 0
0.269981 0.09375 0
0.294524 0.09375 0
0.245437 0.09375 0
0.269981 0.09375 0
0.245437 0.125 0
0.269981 0.125 0
0.269981 0.09375 0
0.294524 0.09375 0
0.269981 0.125 0
0.294524 0.125 0
0.294524 0 0
0.319068 0 0
0.294524 0.03125 0
0.319068 0.03125 0
0.319068 0 0
0.343612 0 0
0.319068 0.03125 0
0.343612 0.03125 0
0.294524 0.03125 0
0.319068 0.03125 0
0.294524 0.0625 0
0.319068 0.0625 0
0.319068 0.03125 0
0.343612 0.03125 0
0.319068 0.0625 0
0.343612 0.0625 0
0.343612 0 0
0.368155 0 0
0.343612 0.03125 0
0.368155 0.03125 0
0.368155 0 0
0.392699 0 0
0.368155 0.03125 0
0.392699 0.03125 0
0.343612 0.03125 0
0.368155 0.03125 0
0.343612 0.0625 0
0.368155 0.0625 0
0.368155 0.03125 0
0.392699 0.03125 0
0.368155 0.0625 0
0.392699 0.0625 0
0.294524 0.0625 0
0.319068 0.0625 0
0.294524 0.09375 0
0.319068 0.09375 0
0.319068 0.0625 0
0.343612 0.0625 0
0.319068 0.09375 0
0.343612 0.09375 0
0.294524 0.09375 0
0.319068 0.09375 0
0.294524 0.125 0
0.319068 0.125 0
0.319068 0.09375 0
0.343612 0.09375 0
0.319068 0.125 0
0.343612 0.125 0
0.343612 0.0625 0
0.368155 0.0625 0
0.343612 0.09375 0
0.368155 0.09375 0
0.368155 0.0625 0
0.392699 0.0625 0
0.368155 0.09375 0
0.392699 0.09375 0
0.343612 0.09375 0
0.368155 0.09375 0
0.343612 0.125 0
0.368155 0.125 0
0.368155 0.09375 0
0.392699 0.09375 0
0.368155 0.125 0
0.392699 0.125 0
0.19635 0.125 0
0.220893 0.125 0
0.19635 0.15625 0
0.220893 0.15625 0
0.220893 0.125 0
0.245437 0.125 0
0.220893 0.15625 0
0.245437 0.15625 0
0.19635 0.15625 0
0.220893 0.15625 0
0.19635 0.1875 0
0.220893 0.1875 0
0.220893 0.15625 0
0.245437 0.15625 0
0.220893 0.1875 0
0.245437 0.1875 0
0.245437 0.125 0
0.269981 0.125 0
0.245437 0.15625 0
0.269981 0.15625 0
0.269981 0.125 0
0.294524 0.125 0
0.269981 0.15625 0
0.294524 0.15625 0
0.245437 0.15625 0
0.269981 0.15625 0
0.245437 0.1875 0
0.269981 0.1875 0
0.269981 0.15625 0
0.294524 0.15625 0
0.269981 0.1875 0
0.294524 0.1875 0
0.19635 0.1875 0
0.220893 0.1875 0
0.19635 0.21875 0
0.220893 0.21875 0
0.220893 0.1875 0
0.245437 0.1875 0
0.220893 0.21875 0
0.245437 0.21875 0
0.19635 0.21875 0
0.220893 0.21875 0
0.19635 0.25 0
0.220893 0.25 0
0.220893 0.21875 0
0.245437 0.21875 0
0.220893 0.25 0
0.245437 0.25 0
0.245437 0.1875 0
0.269981 0.1875 0
0.245437 0.21875 0
0.269981 0.21875 0
0.269981 0.1875 0
0.294524 0.1875 0
0.269981 0.21875 0
0.294524 0.21875 0
0.245437 0.21875 0
0.269981 0.21875 0
0.245437 0.25 0
0.269981 0.25 0
0.269981 0.21875 0
0.294524 0.21875 0
0.269981 0.25 0
0.294524 0.25 0
0.294524 0.125 0
0.319068 0.125 0
0.294524 0.15625 0
0.319068 0.15625 0
0.319068 0.125 0
0.343612 0.125 0
0.319068 0.15625 0
0.343612 0.15625 0
0.294524 0.15625 0
0.319068 0.15625 0
0.294524 0.1875 0
0.319068 0.1875 0
0.319068 0.15625 0
0.343612 0.15625 0
0.319068 0.1875 0
0.343612 0.1875 0
0.343612 0.125 0
0.368155 0.125 0
0.343612 0.15625 0
0.368155 0.15625 0
0.368155 0.125 0
0.392699 0.125 0
0.368155 0.15625 0
0.392699 0.15625 0
0.343612 0.15625 0
0.368155 0.15625 0
0.343612 0.1875 0
0.368155 0.1875 0
0.368155 0.15625 0
0.392699 0.15625 0
0.368155 0.1875 0
0.392699 0.1875 0
0.294524 0.1875 0
0.319068 0.1875 0
0.294524 0.21875 0
0.319068 0.21875 0
0.319068 0.1875 0
0.343612 0.1875 0
0.319068 0.21875 0
0.343612 0.21875 0
0.294524 0.21875 0
0.319068 0.21875 0
0.294524 0.25 0
0.319068 0.25 0
0.319068 0.21875 0
0.343612 0.21875 0
0.319068 0.25 0
0.343612 0.25 0
0.343612 0.1875 0
0.368155 0.1875 0
0.343612 0.21875 0
0.368155 0.21875 0
0.368155 0.1875 0
0.392699 0.1875 0
0.368155 0.21875 0
0.392699 0.21875 0
0.343612 0.21875 0
0.368155 0.21875 0
0.343612 0.25 0
0.368155 0.25 0
0.368155 0.21875 0
0.392699 0.21875 0
0.368155 0.25 0
0.392699 0.25 0
0 0.25 0
0.0245437 0.25 0
0 0.28125 0
0.0245437 0.28125 0
0.0245437 0.25 0
0.0490874 0.25 0
0.0245437 0.28125 0
0.0490874 0.28125 0
0 0.28125 0
0.0245437 0.28125 0
0 0.3125 0
0.0245437 0.3125 0
0.0245437 0.28125 0
0.0490874 0.28125 0
0.0245437 0.3125 0
0.0490874 0.3125 0
0.0490874 0.25 0
0.0736311 0.25 0
0.0490874 0.28125 0
0.0736311 0.28125 0
0.0736311 0.25 0
0.0981748 0.25 0
0.0736311 0.28125 0
0.0981748 0.28125 0
0.0490874 0.28125 0
0.0736311 0.28125 0
0.0490874 0.3125 0
0.0736311 0.3125 0
0.0736311 0.28125 0
0.0981748 0.28125 0
0.0736311 0.3125 0
0.0981748 0.3125 0
0 0.3125 0
0.0245437 0.3125 0
0 0.34375 0
0.0245437 0.34375 0
0.0245437 0.3125 0
0.0490874 0.3125 0
[...]
POINT_DATA 16384
SCALARS u double 1
LOOKUP_TABLE default
0 5.61562e-19 0 -6.61194e-18 5.61562e-19 1.11892e-18 -6.61194e-18 -1.30492e-17 0 8.15359e-18 0 -1.07732e-16 8.15359e-18 1.57918e-17 -1.07732e-16 -2.13135e-16 1.11892e-18 1.64768e-18 -1.30492e-17 -1.90608e-17 1.64768e-18 2.12989e-18 -1.90608e-17 -2.44802e-17 1.57918e-17 2.26628e-17 -2.13135e-16 -3.12078e-16 2.26628e-17 2.86714e-17 -3.12078e-16 -4.01648e-16 0 7.32979e-17 0 -1.46146e-15 7.32979e-17 1.40516e-16 -1.46146e-15 -2.89274e-15 0 3.12819e-16 0 -1.60922e-14 3.12819e-16 5.73222e-16 -1.60922e-14 -3.18658e-14 1.40516e-16 1.996e-16 -2.89274e-15 -4.23735e-15 1.996e-16 2.50229e-16 -4.23735e-15 -5.45521e-15 5.73222e-16 7.77208e-16 -3.18658e-14 -4.6694e-14 7.77208e-16 9.3321e-16 -4.6694e-14 -6.01295e-14 2.12989e-18 2.55278e-18 -2.44802e-17 -2.91882e-17 2.55278e-18 2.90737e-18 -2.91882e-17 -3.3102e-17 2.86714e-17 3.37569e-17 -4.01648e-16 -4.7973e-16 3.37569e-17 3.78811e-17 -4.7973e-16 -5.44844e-16 2.90737e-18 3.18779e-18 -3.3102e-17 -3.61686e-17 3.18779e-18 3.39069e-18 -3.61686e-17 -3.83599e-17 3.78811e-17 4.10252e-17 -5.44844e-16 -5.96035e-16 4.10252e-17 4.31871e-17 -5.96035e-16 -6.32781e-16 2.50229e-16 2.92301e-16 -5.45521e-15 -6.51723e-15 2.92301e-16 3.25807e-16 -6.51723e-15 -7.40312e-15 9.3321e-16 1.04856e-15 -6.01295e-14 -7.18488e-14 1.04856e-15 1.12898e-15 -7.18488e-14 -8.16266e-14 3.25807e-16 3.50819e-16 -7.40312e-15 -8.0998e-15 3.50819e-16 3.67489e-16 -8.0998e-15 -8.6001e-15 1.12898e-15 1.17892e-15 -8.16266e-14 -8.93178e-14 1.17892e-15 1.20194e-15 -8.93178e-14 -9.48428e-14 0 -2.33052e-15 0 -1.43693e-13 -2.33052e-15 -4.9864e-15 -1.43693e-13 -2.84662e-13 0 -5.99131e-14 0 -1.03999e-12 -5.99131e-14 -1.21063e-13 -1.03999e-12 -2.06109e-12 -4.9864e-15 -7.80838e-15 -2.84662e-13 -4.1727e-13 -7.80838e-15 -1.05938e-14 -4.1727e-13 -5.37475e-13 -1.21063e-13 -1.80645e-13 -2.06109e-12 -3.02227e-12 -1.80645e-13 -2.36094e-13 -3.02227e-12 -3.89395e-12 0 -6.44858e-13 0 -6.09345e-12 -6.44858e-13 -1.28988e-12 -6.09345e-12 -1.20808e-11 0 -4.68206e-12 0 -2.88408e-11 -4.68206e-12 -9.32857e-12 -2.88408e-11 -5.71987e-11 -1.28988e-12 -1.90729e-12 -1.20808e-11 -1.77204e-11 -1.90729e-12 -2.47432e-12 -1.77204e-11 -2.28373e-11 -9.32857e-12 -1.37447e-11 -5.71987e-11 -8.39264e-11 -1.37447e-11 -1.77788e-11 -8.39264e-11 -1.08188e-10 -1.05938e-14 -1.31872e-14 -5.37475e-13 -6.42358e-13 -1.31872e-14 -1.5476e-14 -6.42358e-13 -7.2989e-13 -2.36094e-13 -2.85502e-13 -3.89395e-12 -4.6548e-12 -2.85502e-13 -3.2752e-13 -4.6548e-12 -5.28997e-12 -1.5476e-14 -1.73814e-14 -7.2989e-13 -7.98762e-13 -1.73814e-14 -1.88516e-14 -7.98762e-13 -8.48257e-13 -3.2752e-13 -3.61239e-13 -5.28997e-12 -5.78992e-12 -3.61239e-13 -3.86107e-13 -5.78992e-12 -6.14939e-12 -2.47432e-12 -2.97433e-12 -2.28373e-11 -2.73053e-11 -2.97433e-12 -3.39561e-12 -2.73053e-11 -3.10366e-11 -1.77788e-11 -2.13208e-11 -1.08188e-10 -1.29382e-10 -2.13208e-11 -2.42935e-11 -1.29382e-10 -1.47088e-10 -3.39561e-12 -3.73044e-12 -3.10366e-11 -3.39747e-11 -3.73044e-12 -3.97432e-12 -3.39747e-11 -3.60883e-11 -2.42935e-11 -2.66467e-11 -1.47088e-10 -1.61036e-10 -2.66467e-11 -2.83515e-11 -1.61036e-10 -1.71076e-10 3.39069e-18 3.51483e-18 -3.83599e-17 -3.96688e-17 3.51483e-18 3.56071e-18 -3.96688e-17 -4.01056e-17 4.31871e-17 4.43799e-17 -6.32781e-16 -6.54922e-16 4.43799e-17 4.46296e-17 -6.54922e-16 -6.62603e-16 3.56071e-18 3.53031e-18 -4.01056e-17 -3.96958e-17 3.53031e-18 3.42686e-18 -3.96958e-17 -3.84778e-17 4.46296e-17 4.39741e-17 -6.62603e-16 -6.56224e-16 4.39741e-17 4.24616e-17 -6.56224e-16 -6.36408e-16 3.67489e-16 3.7605e-16 -8.6001e-15 -8.90181e-15 3.7605e-16 3.76803e-16 -8.90181e-15 -9.00685e-15 1.20194e-15 1.20097e-15 -9.48428e-14 -9.81768e-14 1.20097e-15 1.17847e-15 -9.81768e-14 -9.93411e-14 3.76803e-16 3.70126e-16 -9.00685e-15 -8.92069e-15 3.70126e-16 3.56456e-16 -8.92069e-15 -8.65174e-15 1.17847e-15 1.13662e-15 -9.93411e-14 -9.83953e-14 1.13662e-15 1.07736e-15 -9.83953e-14 -9.54326e-14 3.42686e-18 3.25468e-18 -3.84778e-17 -3.65008e-17 3.25468e-18 3.01897e-18 -3.65008e-17 -3.38234e-17 4.24616e-17 4.01496e-17 -6.36408e-16 -6.03963e-16 4.01496e-17 3.71035e-17 -6.03963e-16 -5.5986e-16 3.01897e-18 2.72571e-18 -3.38234e-17 -3.05125e-17 2.72571e-18 2.38155e-18 -3.05125e-17 -2.66418e-17 3.71035e-17 3.33957e-17 -5.5986e-16 -5.05206e-16 3.33957e-17 2.9105e-17 -5.05206e-16 -4.41223e-16 3.56456e-16 3.36294e-16 -8.65174e-15 -8.21101e-15 3.36294e-16 3.10192e-16 -8.21101e-15 -7.61169e-15 1.07736e-15 1.00254e-15 -9.54326e-14 -9.05742e-14 1.00254e-15 9.13898e-16 -9.05742e-14 -8.39654e-14 3.10192e-16 2.78754e-16 -7.61169e-15 -6.86882e-15 2.78754e-16 2.42623e-16 -6.86882e-15 -5.99904e-15 9.13898e-16 8.13119e-16 -8.39654e-14 -7.57725e-14 8.13119e-16 7.01867e-16 -7.57725e-14 -6.61789e-14 -1.88516e-14 -1.98564e-14 -8.48257e-13 -8.78149e-13 -1.98564e-14 -2.03824e-14 -8.78149e-13 -8.88624e-13 -3.86107e-13 -4.01863e-13 -6.14939e-12 -6.36669e-12 -4.01863e-13 -4.08481e-13 -6.36669e-12 -6.44314e-12 -2.03824e-14 -2.04306e-14 -8.88624e-13 -8.80216e-13 -2.04306e-14 -2.00133e-14 -8.80216e-13 -8.53754e-13 -4.08481e-13 -4.06137e-13 -6.44314e-12 -6.3826e-12 -4.06137e-13 -3.95169e-13 -6.3826e-12 -6.19107e-12 -3.97432e-12 -4.12538e-12 -3.60883e-11 -3.73674e-11 -4.12538e-12 -4.18393e-12 -3.73674e-11 -3.78194e-11 -2.83515e-11 -2.93971e-11 -1.71076e-10 -1.77158e-10 -2.93971e-11 -2.97872e-11 -1.77158e-10 -1.79317e-10 -4.18393e-12 -4.15212e-12 -3.78194e-11 -3.74668e-11 -4.15212e-12 -4.03365e-12 -3.74668e-11 -3.63448e-11 -2.97872e-11 -2.95382e-11 -1.79317e-10 -1.77659e-10 -2.95382e-11 -2.86771e-11 -1.77659e-10 -1.72351e-10 -2.00133e-14 -1.91523e-14 -8.53754e-13 -8.10323e-13 -1.91523e-14 -1.78773e-14 -8.10323e-13 -7.51224e-13 -3.95169e-13 -3.76057e-13 -6.19107e-12 -5.87642e-12 -3.76057e-13 -3.49399e-13 -5.87642e-12 -5.44805e-12 -1.78773e-14 -1.62246e-14 -7.51224e-13 -6.77943e-13 -1.62246e-14 -1.4236e-14 -6.77943e-13 -5.92122e-13 -3.49399e-13 -3.1589e-13 -5.44805e-12 -4.91677e-12 -3.1589e-13 -2.76313e-13 -4.91677e-12 -4.29447e-12 -4.03365e-12 -3.83353e-12 -3.63448e-11 -3.44994e-11 -3.83353e-12 -3.55788e-12 -3.44994e-11 -3.1986e-11 -2.86771e-11 -2.72398e-11 -1.72351e-10 -1.63609e-10 -2.72398e-11 -2.52698e-11 -1.63609e-10 -1.51697e-10 -3.55788e-12 -3.21375e-12 -3.1986e-11 -2.88678e-11 -3.21375e-12 -2.80903e-12 -2.88678e-11 -2.52149e-11 -2.52698e-11 -2.28172e-11 -1.51697e-10 -1.36914e-10 -2.28172e-11 -1.99377e-11 -1.36914e-10 -1.19593e-10 0 -2.51881e-11 0 -1.09896e-10 -2.51881e-11 -5.00899e-11 -1.09896e-10 -2.18019e-10 0 -1.03771e-10 0 -3.35333e-10 -1.03771e-10 -2.0616e-10 -3.35333e-10 -6.65439e-10 -5.00899e-11 -7.36757e-11 -2.18019e-10 -3.19985e-10 -7.36757e-11 -9.51654e-11 -3.19985e-10 -4.1259e-10 -2.0616e-10 -3.02968e-10 -6.65439e-10 -9.76924e-10 -3.02968e-10 -3.91057e-10 -9.76924e-10 -1.25994e-09 0 -3.31526e-10 0 -8.12436e-10 -3.31526e-10 -6.58314e-10 -8.12436e-10 -1.61261e-09 0 -8.2264e-10 0 -1.54016e-09 -8.2264e-10 -1.6332e-09 -1.54016e-09 -3.05778e-09 -6.58314e-10 -9.67029e-10 -1.61261e-09 -2.36805e-09 -9.67029e-10 -1.24778e-09 -2.36805e-09 -3.0548e-09 -1.6332e-09 -2.39872e-09 -3.05778e-09 -4.49135e-09 -2.39872e-09 -3.09483e-09 -4.49135e-09 -5.79526e-09 -9.51654e-11 -1.13994e-10 -4.1259e-10 -4.93516e-10 -1.13994e-10 -1.29767e-10 -4.93516e-10 -5.61153e-10 -3.91057e-10 -4.68159e-10 -1.25994e-09 -1.50738e-09 -4.68159e-10 -5.32692e-10 -1.50738e-09 -1.71428e-09 -1.29767e-10 -1.42228e-10 -5.61153e-10 -6.14458e-10 -1.42228e-10 -1.51233e-10 -6.14458e-10 -6.52851e-10 -5.32692e-10 -5.83627e-10 -1.71428e-09 -1.87741e-09 -5.83627e-10 -6.20387e-10 -1.87741e-09 -1.99498e-09 -1.24778e-09 -1.49341e-09 -3.0548e-09 -3.65548e-09 -1.49341e-09 -1.69893e-09 -3.65548e-09 -4.15799e-09 -3.09483e-09 -3.70384e-09 -5.79526e-09 -6.93639e-09 -3.70384e-09 -4.21341e-09 -6.93639e-09 -7.89152e-09 -1.69893e-09 -1.86109e-09 -4.15799e-09 -4.55441e-09 -1.86109e-09 -1.97807e-09 -4.55441e-09 -4.84034e-09 -4.21341e-09 -4.61549e-09 -7.89152e-09 -8.64549e-09 -4.61549e-09 -4.90558e-09 -8.64549e-09 -9.18974e-09 0 -1.57218e-09 0 -2.22115e-09 -1.57218e-09 -3.12126e-09 -2.22115e-09 -4.41086e-09 0 -2.25845e-09 0 -2.28079e-09 -2.25845e-09 -4.48437e-09 -2.28079e-09 -4.53075e-09 -3.12126e-09 -4.58446e-09 -4.41086e-09 -6.48061e-09 -4.58446e-09 -5.91527e-09 -6.48061e-09 -8.3644e-09 -4.48437e-09 -6.58788e-09 -4.53075e-09 -6.65937e-09 -6.58788e-09 -8.5021e-09 -6.65937e-09 -8.59865e-09 0 -2.28443e-09 0 -1.31397e-09 -2.28443e-09 -4.53745e-09 -1.31397e-09 -2.61223e-09 0 -1.2656e-09 0 3.76533e-10 -1.2656e-09 -2.51608e-09 3.76533e-10 7.44484e-10 -4.53745e-09 -6.66855e-09 -2.61223e-09 -3.84328e-09 -6.66855e-09 -8.60981e-09 -3.84328e-09 -4.96764e-09 -2.51608e-09 -3.70188e-09 7.44484e-10 1.08787e-09 -3.70188e-09 -4.78503e-09 1.08787e-09 1.39599e-09 -5.91527e-09 -7.0799e-09 -8.3644e-09 -1.00141e-08 -7.0799e-09 -8.05466e-09 -1.00141e-08 -1.13959e-08 -8.5021e-09 -1.01782e-08 -8.59865e-09 -1.02986e-08 -1.01782e-08 -1.1582e-08 -1.02986e-08 -1.1724e-08 -8.05466e-09 -8.8241e-09 -1.13959e-08 -1.24875e-08 -8.8241e-09 -9.37949e-09 -1.24875e-08 -1.32762e-08 -1.1582e-08 -1.26908e-08 -1.1724e-08 -1.28514e-08 -1.26908e-08 -1.34919e-08 -1.28514e-08 -1.36674e-08 -8.60981e-09 -1.03114e-08 -4.96764e-09 -5.95578e-09 -1.03114e-08 -1.1738e-08 -5.95578e-09 -6.78652e-09 -4.78503e-09 -5.73711e-09 1.39599e-09 1.66192e-09 -5.73711e-09 -6.53763e-09 1.66192e-09 1.88118e-09 -1.1738e-08 -1.28662e-08 -6.78652e-09 -7.44558e-09 -1.28662e-08 -1.36828e-08 -7.44558e-09 -7.9245e-09 -6.53763e-09 -7.17283e-09 1.88118e-09 2.05132e-09 -7.17283e-09 -7.63454e-09 2.05132e-09 2.17124e-09 -1.51233e-10 -1.56728e-10 -6.52851e-10 -6.76137e-10 -1.56728e-10 -1.58739e-10 -6.76137e-10 -6.84443e-10 -6.20387e-10 -6.42768e-10 -1.99498e-09 -2.06638e-09 -6.42768e-10 -6.5088e-10 -2.06638e-09 -2.09198e-09 -1.58739e-10 -1.57355e-10 -6.84443e-10 -6.78171e-10 -1.57355e-10 -1.52721e-10 -6.78171e-10 -6.57953e-10 -6.5088e-10 -6.45095e-10 -2.09198e-09 -2.07299e-09 -6.45095e-10 -6.26008e-10 -2.07299e-09 -2.01134e-09 -1.97807e-09 -2.04923e-09 -4.84034e-09 -5.0142e-09 -2.04923e-09 -2.07493e-09 -5.0142e-09 -5.07688e-09 -4.90558e-09 -5.08207e-09 -9.18974e-09 -9.52121e-09 -5.08207e-09 -5.14584e-09 -9.52121e-09 -9.64144e-09 -2.07493e-09 -2.05635e-09 -5.07688e-09 -5.03129e-09 -2.05635e-09 -1.99541e-09 -5.03129e-09 -4.88206e-09 -5.14584e-09 -5.09982e-09 -9.64144e-09 -9.5559e-09 -5.09982e-09 -4.94872e-09 -9.5559e-09 -9.27337e-09 -1.52721e-10 -1.4503e-10 -6.57953e-10 -6.24619e-10 -1.4503e-10 -1.34513e-10 -6.24619e-10 -5.79171e-10 -6.26008e-10 -5.9441e-10 -2.01134e-09 -1.90957e-09 -5.9441e-10 -5.5125e-10 -1.90957e-09 -1.77072e-09 -1.34513e-10 -1.21436e-10 -5.79171e-10 -5.22755e-10 -1.21436e-10 -1.06096e-10 -5.22755e-10 -4.56638e-10 -5.5125e-10 -4.97621e-10 -1.77072e-09 -1.59831e-09 -4.97621e-10 -4.34731e-10 -1.59831e-09 -1.39622e-09 -1.99541e-09 -1.89461e-09 -4.88206e-09 -4.63536e-09 -1.89461e-09 -1.75699e-09 -4.63536e-09 -4.29859e-09 -4.94872e-09 -4.69878e-09 -9.27337e-09 -8.80549e-09 -4.69878e-09 -4.3575e-09 -8.80549e-09 -8.16632e-09 -1.75699e-09 -1.58601e-09 -4.29859e-09 -3.88025e-09 -1.58601e-09 -1.38554e-09 -3.88025e-09 -3.38976e-09 -4.3575e-09 -3.9335e-09 -8.16632e-09 -7.37201e-09 -3.9335e-09 -3.43633e-09 -7.37201e-09 -6.44046e-09 -9.37949e-09 -9.71772e-09 -1.32762e-08 -1.37576e-08 -9.71772e-09 -9.84037e-09 -1.37576e-08 -1.39335e-08 -1.34919e-08 -1.39806e-08 -1.36674e-08 -1.41668e-08 -1.39806e-08 -1.4159e-08 -1.41668e-08 -1.43514e-08 -9.84037e-09 -9.753e-09 -1.39335e-08 -1.38118e-08 -9.753e-09 -9.46459e-09 -1.38118e-08 -1.34051e-08 -1.4159e-08 -1.40351e-08 -1.43514e-08 -1.42291e-08 -1.40351e-08 -1.36215e-08 -1.42291e-08 -1.38126e-08 -1.36828e-08 -1.41824e-08 -7.9245e-09 -8.21977e-09 -1.41824e-08 -1.43669e-08 -8.21977e-09 -8.332e-09 -7.63454e-09 -7.91928e-09 2.17124e-09 2.24106e-09 -7.91928e-09 -8.02773e-09 2.24106e-09 2.26178e-09 -1.43669e-08 -1.42442e-08 -8.332e-09 -8.26544e-09 -1.42442e-08 -1.38271e-08 -8.26544e-09 -8.02726e-09 -8.02773e-09 -7.9638e-09 2.26178e-09 2.23508e-09 -7.9638e-09 -7.73456e-09 2.23508e-09 2.16343e-09 -9.46459e-09 -8.98702e-09 -1.34051e-08 -1.27301e-08 -8.98702e-09 -8.33464e-09 -1.27301e-08 -1.18071e-08 -1.36215e-08 -1.29354e-08 -1.38126e-08 -1.31191e-08 -1.29354e-08 -1.19973e-08 -1.31191e-08 -1.21696e-08 -8.33464e-09 -7.52394e-09 -1.18071e-08 -1.06594e-08 -7.52394e-09 -6.57317e-09 -1.06594e-08 -9.31308e-09 -1.19973e-08 -1.08311e-08 -1.21696e-08 -1.0988e-08 -1.08311e-08 -9.46295e-09 -1.0988e-08 -9.60104e-09 -1.38271e-08 -1.31328e-08 -8.02726e-09 -7.62736e-09 -1.31328e-08 -1.21821e-08 -7.62736e-09 -7.07775e-09 -7.73456e-09 -7.34939e-09 2.16343e-09 2.04968e-09 -7.34939e-09 -6.81996e-09 2.04968e-09 1.89726e-09 -1.21821e-08 -1.09992e-08 -7.07775e-09 -6.39242e-09 -1.09992e-08 -9.61081e-09 -6.39242e-09 -5.5869e-09 -6.81996e-09 -6.15969e-09 1.89726e-09 1.70994e-09 -6.15969e-09 -5.38358e-09 1.70994e-09 1.49184e-09 2.38155e-18 1.99367e-18 -2.66418e-17 -2.22905e-17 1.99367e-18 1.56971e-18 -2.22905e-17 -1.75429e-17 2.9105e-17 2.4315e-17 -4.41223e-16 -3.69232e-16 2.4315e-17 1.91139e-17 -3.69232e-16 -2.90633e-16 1.56971e-18 1.11765e-18 -1.75429e-17 -1.24868e-17 1.11765e-18 6.45763e-19 -1.24868e-17 -7.21296e-18 1.91139e-17 1.35931e-17 -2.90633e-16 -2.06892e-16 1.35931e-17 7.84683e-18 -2.06892e-16 -1.19521e-16 2.42623e-16 2.0248e-16 -5.99904e-15 -5.02032e-15 2.0248e-16 1.59038e-16 -5.02032e-15 -3.95171e-15 7.01867e-16 5.81795e-16 -6.61789e-14 -5.53829e-14 5.81795e-16 4.54544e-16 -5.53829e-14 -4.35947e-14 1.59038e-16 1.13032e-16 -3.95171e-15 -2.81312e-15 1.13032e-16 6.52193e-17 -2.81312e-15 -1.62515e-15 4.54544e-16 3.21759e-16 -4.35947e-14 -3.10343e-14 3.21759e-16 1.8509e-16 -3.10343e-14 -1.79287e-14 6.45763e-19 1.62494e-19 -7.21296e-18 -1.81419e-18 1.62494e-19 -3.23596e-19 -1.81419e-18 3.61563e-18 7.84683e-18 1.97114e-18 -1.19521e-16 -3.00668e-17 1.97114e-18 -3.93694e-18 -3.00668e-17 5.99046e-17 -3.23596e-19 -8.03915e-19 3.61563e-18 8.98225e-18 -8.03915e-19 -1.26992e-18 8.98225e-18 1.41919e-17 -3.93694e-18 -9.78007e-18 5.99046e-17 1.48821e-16 -9.78007e-18 -1.54614e-17 1.48821e-16 2.3512e-16 6.52193e-17 1.63686e-17 -1.62515e-15 -4.08831e-16 1.63686e-17 -3.2743e-17 -4.08831e-16 8.14518e-16 1.8509e-16 4.61828e-17 -1.79287e-14 -4.51034e-15 4.61828e-17 -9.33135e-17 -4.51034e-15 8.98566e-15 -3.2743e-17 -8.13372e-17 8.14518e-16 2.02352e-15 -8.13372e-17 -1.28639e-16 2.02352e-15 3.1969e-15 -9.33135e-17 -2.31757e-16 8.98566e-15 2.23232e-14 -2.31757e-16 -3.67509e-16 2.23232e-14 3.52677e-14 -1.4236e-14 -1.19576e-14 -5.92122e-13 -4.95537e-13 -1.19576e-14 -9.43945e-15 -4.95537e-13 -3.90068e-13 -2.76313e-13 -2.31518e-13 -4.29447e-12 -3.59405e-12 -2.31518e-13 -1.82412e-13 -3.59405e-12 -2.82915e-12 -9.43945e-15 -6.73415e-15 -3.90068e-13 -2.77685e-13 -6.73415e-15 -3.89663e-15 -2.77685e-13 -1.60422e-13 -1.82412e-13 -1.29947e-13 -2.82915e-12 -2.01407e-12 -1.29947e-13 -7.51114e-14 -2.01407e-12 -1.16357e-12 -2.80903e-12 -2.35225e-12 -2.52149e-11 -2.11029e-11 -2.35225e-12 -1.85247e-12 -2.11029e-11 -1.66121e-11 -1.99377e-11 -1.66915e-11 -1.19593e-10 -1.00093e-10 -1.66915e-11 -1.31427e-11 -1.00093e-10 -7.87942e-11 -1.85247e-12 -1.31922e-12 -1.66121e-11 -1.18263e-11 -1.31922e-12 -7.6233e-13 -1.18263e-11 -6.83238e-12 -1.31427e-11 -9.3581e-12 -7.87942e-11 -5.60953e-11 -9.3581e-12 -5.40717e-12 -5.60953e-11 -3.24082e-11 -3.89663e-15 -9.83275e-16 -1.60422e-13 -4.03586e-14 -9.83275e-16 1.94862e-15 -4.03586e-14 8.04e-14 -7.51114e-14 -1.89151e-14 -1.16357e-12 -2.92737e-13 -1.89151e-14 3.76171e-14 -2.92737e-13 5.83137e-13 1.94862e-15 4.84151e-15 8.04e-14 1.9974e-13 4.84151e-15 7.63813e-15 1.9974e-13 3.1556e-13 3.76171e-14 9.34562e-14 5.83137e-13 1.44871e-12 9.34562e-14 1.47579e-13 1.44871e-12 2.28874e-12 -7.6233e-13 -1.91884e-13 -6.83238e-12 -1.71899e-12 -1.91884e-13 3.81918e-13 -1.71899e-12 3.42402e-12 -5.40717e-12 -1.36077e-12 -3.24082e-11 -8.1541e-12 -1.36077e-12 2.70928e-12 -8.1541e-12 1.62406e-11 3.81918e-13 9.48833e-13 3.42402e-12 8.50651e-12 9.48833e-13 1.49867e-12 8.50651e-12 1.34388e-11 2.70928e-12 6.73087e-12 1.62406e-11 4.0348e-11 6.73087e-12 1.06323e-11 4.0348e-11 6.37422e-11 -1.26992e-18 -1.71318e-18 1.41919e-17 1.91523e-17 -1.71318e-18 -2.12549e-18 1.91523e-17 2.37731e-17 -1.54614e-17 -2.08855e-17 2.3512e-16 3.1726e-16 -2.08855e-17 -2.59588e-17 3.1726e-16 3.93736e-16 -2.12549e-18 -2.49889e-18 2.37731e-17 2.7967e-17 -2.49889e-18 -2.82581e-18 2.7967e-17 3.16507e-17 -2.59588e-17 -3.05908e-17 3.93736e-16 4.63094e-16 -3.05908e-17 -3.46946e-17 4.63094e-16 5.23944e-16 -1.28639e-16 -1.73885e-16 3.1969e-15 4.31369e-15 -1.73885e-16 -2.16324e-16 4.31369e-15 5.35342e-15 -3.67509e-16 -4.98945e-16 3.52677e-14 4.75875e-14 -4.98945e-16 -6.24459e-16 4.75875e-14 5.90567e-14 -2.16324e-16 -2.55232e-16 5.35342e-15 6.2963e-15 -2.55232e-16 -2.89907e-16 6.2963e-15 7.12343e-15 -6.24459e-16 -7.42463e-16 5.90567e-14 6.9457e-14 -7.42463e-16 -8.51395e-16 6.9457e-14 7.85796e-14 -2.82581e-18 -3.09911e-18 3.16507e-17 3.47454e-17 -3.09911e-18 -3.31216e-18 3.47454e-17 3.71781e-17 -3.46946e-17 -3.81879e-17 5.23944e-16 5.74975e-16 -3.81879e-17 -4.09938e-17 5.74975e-16 6.14973e-16 -3.31216e-18 -3.45897e-18 3.71781e-17 3.88824e-17 -3.45897e-18 -3.53425e-18 3.88824e-17 3.97993e-17 -4.09938e-17 -4.30415e-17 6.14973e-16 6.42833e-16 -4.30415e-17 -4.42677e-17 6.42833e-16 6.57578e-16 -2.89907e-16 -3.19685e-16 7.12343e-15 7.81697e-15 -3.19685e-16 -3.43941e-16 7.81697e-15 8.3604e-15 -8.51395e-16 -9.49725e-16 7.85796e-14 8.62278e-14 -9.49725e-16 -1.03595e-15 8.62278e-14 9.22193e-14 -3.43941e-16 -3.62098e-16 8.3604e-15 8.7387e-15 -3.62098e-16 -3.73631e-16 8.7387e-15 8.93859e-15 -1.03595e-15 -1.10862e-15 9.22193e-14 9.63881e-14 -1.10862e-15 -1.1663e-15 9.63881e-14 9.85879e-14 7.63813e-15 1.02822e-14 3.1556e-13 4.25787e-13 1.02822e-14 1.27187e-14 4.25787e-13 5.28399e-13 1.47579e-13 1.98979e-13 2.28874e-12 3.08816e-12 1.98979e-13 2.4667e-13 3.08816e-12 3.83231e-12 1.27187e-14 1.48952e-14 5.28399e-13 6.21439e-13 1.48952e-14 1.67613e-14 6.21439e-13 7.0304e-13 2.4667e-13 2.89706e-13 3.83231e-12 4.50698e-12 2.89706e-13 3.27181e-13 4.50698e-12 5.09862e-12 1.49867e-12 2.02139e-12 1.34388e-11 1.81325e-11 2.02139e-12 2.50719e-12 1.81325e-11 2.25013e-11 1.06323e-11 1.4343e-11 6.37422e-11 8.60037e-11 1.4343e-11 1.77938e-11 8.60037e-11 1.06723e-10 2.50719e-12 2.94662e-12 2.25013e-11 2.64619e-11 2.94662e-12 3.33063e-12 2.64619e-11 2.99345e-11 1.77938e-11 2.09183e-11 1.06723e-10 1.25503e-10 2.09183e-11 2.36527e-11 1.25503e-10 1.41967e-10 1.67613e-14 1.82706e-14 7.0304e-13 7.7144e-13 1.82706e-14 1.93803e-14 7.7144e-13 8.25007e-13 3.27181e-13 3.58248e-13 5.09862e-12 5.59445e-12 3.58248e-13 3.82121e-13 5.59445e-12 5.98261e-12 1.93803e-14 2.00523e-14 8.25007e-13 8.62258e-13 2.00523e-14 2.02542e-14 8.62258e-13 8.81879e-13 3.82121e-13 3.98094e-13 5.98261e-12 6.25235e-12 3.98094e-13 4.05549e-13 6.25235e-12 6.39414e-12 3.33063e-12 3.65075e-12 2.99345e-11 3.2844e-11 3.65075e-12 3.89911e-12 3.2844e-11 3.51208e-11 2.36527e-11 2.59372e-11 1.41967e-10 1.55758e-10 2.59372e-11 2.77163e-11 1.55758e-10 1.66545e-10 3.89911e-12 4.06859e-12 3.51208e-11 3.67017e-11 4.06859e-12 4.15295e-12 3.67017e-11 3.75309e-11 2.77163e-11 2.89397e-11 1.66545e-10 1.74029e-10 2.89397e-11 2.95632e-11 1.74029e-10 1.77944e-10 -1.06096e-10 -8.88117e-11 -4.56638e-10 -3.82192e-10 -8.88117e-11 -6.99227e-11 -3.82192e-10 -3.00872e-10 -4.34731e-10 -3.63889e-10 -1.39622e-09 -1.16863e-09 -3.63889e-10 -2.86483e-10 -1.16863e-09 -9.19999e-10 -6.99227e-11 -4.97845e-11 -3.00872e-10 -2.14201e-10 -4.97845e-11 -2.87645e-11 -2.14201e-10 -1.23754e-10 -2.86483e-10 -2.03968e-10 -9.19999e-10 -6.54992e-10 -2.03968e-10 -1.17846e-10 -6.54992e-10 -3.78425e-10 -1.38554e-09 -1.15974e-09 -3.38976e-09 -2.83731e-09 -1.15974e-09 -9.13028e-10 -2.83731e-09 -2.23373e-09 -3.43633e-09 -2.87633e-09 -6.44046e-09 -5.39104e-09 -2.87633e-09 -2.26447e-09 -5.39104e-09 -4.24434e-09 -9.13028e-10 -6.50045e-10 -2.23373e-09 -1.59034e-09 -6.50045e-10 -3.75573e-10 -1.59034e-09 -9.18842e-10 -2.26447e-09 -1.61223e-09 -4.24434e-09 -3.02189e-09 -1.61223e-09 -9.31499e-10 -3.02189e-09 -1.74599e-09 -2.87645e-11 -7.23831e-12 -1.23754e-10 -3.11386e-11 -7.23831e-12 1.44132e-11 -3.11386e-11 6.20138e-1