# vtk DataFile Version 3.0
#This file was generated by the deal.II library on 2018/10/14 at 22:39:10
ASCII
DATASET UNSTRUCTURED_GRID

POINTS 20480 double
0 0 0
0.19635 0 0
0 0.3125 0
0.19635 0.3125 0
0.19635 0 0
0.392699 0 0
0.19635 0.3125 0
0.392699 0.3125 0
0 0.3125 0
0.19635 0.3125 0
0 0.625 0
0.19635 0.625 0
0.19635 0.3125 0
0.392699 0.3125 0
0.19635 0.625 0
0.392699 0.625 0
0.392699 0 0
0.589049 0 0
0.392699 0.3125 0
0.589049 0.3125 0
0.589049 0 0
0.785398 0 0
0.589049 0.3125 0
0.785398 0.3125 0
0.392699 0.3125 0
0.589049 0.3125 0
0.392699 0.625 0
0.589049 0.625 0
0.589049 0.3125 0
0.785398 0.3125 0
0.589049 0.625 0
0.785398 0.625 0
0 0.625 0
0.19635 0.625 0
0 0.9375 0
0.19635 0.9375 0
0.19635 0.625 0
0.392699 0.625 0
0.19635 0.9375 0
0.392699 0.9375 0
0 0.9375 0
0.19635 0.9375 0
0 1.25 0
0.19635 1.25 0
0.19635 0.9375 0
0.392699 0.9375 0
0.19635 1.25 0
0.392699 1.25 0
0.392699 0.625 0
0.589049 0.625 0
0.392699 0.9375 0
0.589049 0.9375 0
0.589049 0.625 0
0.785398 0.625 0
0.589049 0.9375 0
0.785398 0.9375 0
0.392699 0.9375 0
0.589049 0.9375 0
0.392699 1.25 0
0.589049 1.25 0
0.589049 0.9375 0
0.785398 0.9375 0
0.589049 1.25 0
0.785398 1.25 0
0.785398 0 0
0.981748 0 0
0.785398 0.3125 0
0.981748 0.3125 0
0.981748 0 0
1.1781 0 0
0.981748 0.3125 0
1.1781 0.3125 0
0.785398 0.3125 0
0.981748 0.3125 0
0.785398 0.625 0
0.981748 0.625 0
0.981748 0.3125 0
1.1781 0.3125 0
0.981748 0.625 0
1.1781 0.625 0
1.1781 0 0
1.37445 0 0
1.1781 0.3125 0
1.37445 0.3125 0
1.37445 0 0
1.5708 0 0
1.37445 0.3125 0
1.5708 0.3125 0
1.1781 0.3125 0
1.37445 0.3125 0
1.1781 0.625 0
1.37445 0.625 0
1.37445 0.3125 0
1.5708 0.3125 0
1.37445 0.625 0
1.5708 0.625 0
0.785398 0.625 0
0.981748 0.625 0
0.785398 0.9375 0
0.981748 0.9375 0
0.981748 0.625 0
1.1781 0.625 0
0.981748 0.9375 0
1.1781 0.9375 0
0.785398 0.9375 0
0.981748 0.9375 0
0.785398 1.25 0
0.981748 1.25 0
0.981748 0.9375 0
1.1781 0.9375 0
0.981748 1.25 0
1.1781 1.25 0
1.1781 0.625 0
1.37445 0.625 0
1.1781 0.9375 0
1.37445 0.9375 0
1.37445 0.625 0
1.5708 0.625 0
1.37445 0.9375 0
1.5708 0.9375 0
1.1781 0.9375 0
1.37445 0.9375 0
1.1781 1.25 0
1.37445 1.25 0
1.37445 0.9375 0
1.5708 0.9375 0
1.37445 1.25 0
1.5708 1.25 0
0 1.25 0
0.19635 1.25 0
0 1.5625 0
0.19635 1.5625 0
0.19635 1.25 0
0.392699 1.25 0
0.19635 1.5625 0
0.392699 1.5625 0
0 1.5625 0
0.19635 1.5625 0
0 1.875 0
0.19635 1.875 0
0.19635 1.5625 0
0.392699 1.5625 0
0.19635 1.875 0
0.392699 1.875 0
0.392699 1.25 0
0.589049 1.25 0
0.392699 1.5625 0
0.589049 1.5625 0
0.589049 1.25 0
0.785398 1.25 0
0.589049 1.5625 0
0.785398 1.5625 0
0.392699 1.5625 0
0.589049 1.5625 0
0.392699 1.875 0
0.589049 1.875 0
0.589049 1.5625 0
0.785398 1.5625 0
0.589049 1.875 0
0.785398 1.875 0
0 1.875 0
0.19635 1.875 0
0 2.1875 0
0.19635 2.1875 0
0.19635 1.875 0
0.392699 1.875 0
0.19635 2.1875 0
0.392699 2.1875 0
0 2.1875 0
0.19635 2.1875 0
0 2.5 0
0.19635 2.5 0
0.19635 2.1875 0
0.392699 2.1875 0
0.19635 2.5 0
0.392699 2.5 0
0.392699 1.875 0
0.589049 1.875 0
0.392699 2.1875 0
0.589049 2.1875 0
0.589049 1.875 0
0.785398 1.875 0
0.589049 2.1875 0
0.785398 2.1875 0
0.392699 2.1875 0
0.589049 2.1875 0
0.392699 2.5 0
0.589049 2.5 0
0.589049 2.1875 0
0.785398 2.1875 0
0.589049 2.5 0
0.785398 2.5 0
0.785398 1.25 0
0.981748 1.25 0
0.785398 1.5625 0
0.981748 1.5625 0
0.981748 1.25 0
1.1781 1.25 0
0.981748 1.5625 0
1.1781 1.5625 0
0.785398 1.5625 0
0.981748 1.5625 0
0.785398 1.875 0
0.981748 1.875 0
0.981748 1.5625 0
1.1781 1.5625 0
0.981748 1.875 0
1.1781 1.875 0
1.1781 1.25 0
1.37445 1.25 0
1.1781 1.5625 0
1.37445 1.5625 0
1.37445 1.25 0
1.5708 1.25 0
1.37445 1.5625 0
1.5708 1.5625 0
1.1781 1.5625 0
1.37445 1.5625 0
1.1781 1.875 0
1.37445 1.875 0
1.37445 1.5625 0
1.5708 1.5625 0
1.37445 1.875 0
1.5708 1.875 0
0.785398 1.875 0
0.981748 1.875 0
0.785398 2.1875 0
0.981748 2.1875 0
0.981748 1.875 0
1.1781 1.875 0
0.981748 2.1875 0
1.1781 2.1875 0
0.785398 2.1875 0
0.981748 2.1875 0
0.785398 2.5 0
0.981748 2.5 0
0.981748 2.1875 0
1.1781 2.1875 0
0.981748 2.5 0
1.1781 2.5 0
1.1781 1.875 0
1.37445 1.875 0
1.1781 2.1875 0
1.37445 2.1875 0
1.37445 1.875 0
1.5708 1.875 0
1.37445 2.1875 0
1.5708 2.1875 0
1.1781 2.1875 0
1.37445 2.1875 0
1.1781 2.5 0
1.37445 2.5 0
1.37445 2.1875 0
1.5708 2.1875 0
1.37445 2.5 0
1.5708 2.5 0
1.5708 0 0
1.76715 0 0
1.5708 0.3125 0
1.76715 0.3125 0
1.76715 0 0
1.9635 0 0
1.76715 0.3125 0
1.9635 0.3125 0
1.5708 0.3125 0
1.76715 0.3125 0
1.5708 0.625 0
1.76715 0.625 0
1.76715 0.3125 0
1.9635 0.3125 0
1.76715 0.625 0
1.9635 0.625 0
1.9635 0 0
2.15984 0 0
1.9635 0.3125 0
2.15984 0.3125 0
2.15984 0 0
2.35619 0 0
2.15984 0.3125 0
2.35619 0.3125 0
1.9635 0.3125 0
2.15984 0.3125 0
1.9635 0.625 0
2.15984 0.625 0
2.15984 0.3125 0
2.35619 0.3125 0
2.15984 0.625 0
2.35619 0.625 0
1.5708 0.625 0
1.76715 0.625 0
1.5708 0.9375 0
1.76715 0.9375 0
1.76715 0.625 0
1.9635 0.625 0
1.76715 0.9375 0
1.9635 0.9375 0
1.5708 0.9375 0
1.76715 0.9375 0
1.5708 1.25 0
1.76715 1.25 0
1.76715 0.9375 0
1.9635 0.9375 0
1.76715 1.25 0
1.9635 1.25 0
1.9635 0.625 0
2.15984 0.625 0
1.9635 0.9375 0
2.15984 0.9375 0
2.15984 0.625 0
2.35619 0.625 0
2.15984 0.9375 0
2.35619 0.9375 0
1.9635 0.9375 0
2.15984 0.9375 0
1.9635 1.25 0
2.15984 1.25 0
2.15984 0.9375 0
2.35619 0.9375 0
2.15984 1.25 0
2.35619 1.25 0
2.35619 0 0
2.55254 0 0
2.35619 0.3125 0
2.55254 0.3125 0
2.55254 0 0
2.74889 0 0
2.55254 0.3125 0
2.74889 0.3125 0
2.35619 0.3125 0
2.55254 0.3125 0
2.35619 0.625 0
2.55254 0.625 0
2.55254 0.3125 0
2.74889 0.3125 0
2.55254 0.625 0
2.74889 0.625 0
2.74889 0 0
2.94524 0 0
2.74889 0.3125 0
2.94524 0.3125 0
2.94524 0 0
3.14159 0 0
2.94524 0.3125 0
3.14159 0.3125 0
2.74889 0.3125 0
2.94524 0.3125 0
2.74889 0.625 0
2.94524 0.625 0
2.94524 0.3125 0
3.14159 0.3125 0
2.94524 0.625 0
3.14159 0.625 0
2.35619 0.625 0
2.55254 0.625 0
2.35619 0.9375 0
2.55254 0.9375 0
2.55254 0.625 0
2.74889 0.625 0
2.55254 0.9375 0
2.74889 0.9375 0
2.35619 0.9375 0
2.55254 0.9375 0
2.35619 1.25 0
2.55254 1.25 0
2.55254 0.9375 0
2.74889 0.9375 0
2.55254 1.25 0
2.74889 1.25 0
2.74889 0.625 0
2.94524 0.625 0
2.74889 0.9375 0
2.94524 0.9375 0
2.94524 0.625 0
3.14159 0.625 0
2.94524 0.9375 0
3.14159 0.9375 0
2.74889 0.9375 0
2.94524 0.9375 0
2.74889 1.25 0
2.94524 1.25 0
2.94524 0.9375 0
3.14159 0.9375 0
2.94524 1.25 0
3.14159 1.25 0
1.5708 1.25 0
1.76715 1.25 0
1.5708 1.5625 0
1.76715 1.5625 0
1.76715 1.25 0
1.9635 1.25 0
1.76715 1.5625 0
1.9635 1.5625 0
1.5708 1.5625 0
1.76715 1.5625 0
1.5708 1.875 0
1.76715 1.875 0
1.76715 1.5625 0
1.9635 1.5625 0
1.76715 1.875 0
1.9635 1.875 0
1.9635 1.25 0
2.15984 1.25 0
1.9635 1.5625 0
2.15984 1.5625 0
2.15984 1.25 0
2.35619 1.25 0
2.15984 1.5625 0
2.35619 1.5625 0
1.9635 1.5625 0
2.15984 1.5625 0
1.9635 1.875 0
2.15984 1.875 0
2.15984 1.5625 0
2.35619 1.5625 0
2.15984 1.875 0
2.35619 1.875 0
1.5708 1.875 0
1.76715 1.875 0
1.5708 2.1875 0
1.76715 2.1875 0
1.76715 1.875 0
1.9635 1.875 0
1.76715 2.1875 0
1.9635 2.1875 0
1.5708 2.1875 0
1.76715 2.1875 0
1.5708 2.5 0
1.76715 2.5 0
1.76715 2.1875 0
1.9635 2.1875 0
1.76715 2.5 0
1.9635 2.5 0
1.9635 1.875 0
2.15984 1.875 0
1.9635 2.1875 0
2.15984 2.1875 0
2.15984 1.875 0
2.35619 1.875 0
2.15984 2.1875 0
2.35619 2.1875 0
1.9635 2.1875 0
2.15984 2.1875 0
1.9635 2.5 0
2.15984 2.5 0
2.15984 2.1875 0
2.35619 2.1875 0
2.15984 2.5 0
2.35619 2.5 0
2.35619 1.25 0
2.55254 1.25 0
2.35619 1.5625 0
2.55254 1.5625 0
2.55254 1.25 0
2.74889 1.25 0
2.55254 1.5625 0
2.74889 1.5625 0
2.35619 1.5625 0
2.55254 1.5625 0
2.35619 1.875 0
2.55254 1.875 0
2.55254 1.5625 0
2.74889 1.5625 0
2.55254 1.875 0
2.74889 1.875 0
2.74889 1.25 0
2.94524 1.25 0
2.74889 1.5625 0
2.94524 1.5625 0
2.94524 1.25 0
3.14159 1.25 0
2.94524 1.5625 0
3.14159 1.5625 0
2.74889 1.5625 0
2.94524 1.5625 0
2.74889 1.875 0
2.94524 1.875 0
2.94524 1.5625 0
3.14159 1.5625 0
2.94524 1.875 0
3.14159 1.875 0
2.35619 1.875 0
2.55254 1.875 0
2.35619 2.1875 0
2.55254 2.1875 0
2.55254 1.875 0
2.74889 1.875 0
2.55254 2.1875 0
2.74889 2.1875 0
2.35619 2.1875 0
2.55254 2.1875 0
2.35619 2.5 0
2.55254 2.5 0
2.55254 2.1875 0
2.74889 2.1875 0
2.55254 2.5 0
2.74889 2.5 0
2.74889 1.875 0
2.94524 1.875 0
2.74889 2.1875 0
2.94524 2.1875 0
2.94524 1.875 0
3.14159 1.875 0
2.94524 2.1875 0
3.14159 2.1875 0
2.74889 2.1875 0
2.94524 2.1875 0
2.74889 2.5 0
2.94524 2.5 0
2.94524 2.1875 0
3.14159 2.1875 0
2.94524 2.5 0
3.14159 2.5 0
0 2.5 0
0.19635 2.5 0
0 2.8125 0
0.19635 2.8125 0
0.19635 2.5 0
0.392699 2.5 0
0.19635 2.8125 0
0.392699 2.8125 0
0 2.8125 0
0.19635 2.8125 0
0 3.125 0
0.19635 3.125 0
0.19635 2.8125 0
0.392699 2.8125 0
0.19635 3.125 0
0.392699 3.125 0
0.392699 2.5 0
0.589049 2.5 0
0.392699 2.8125 0
0.589049 2.8125 0
0.589049 2.5 0
0.785398 2.5 0
0.589049 2.8125 0
0.785398 2.8125 0
0.392699 2.8125 0
0.589049 2.8125 0
0.392699 3.125 0
0.589049 3.125 0
0.589049 2.8125 0
0.785398 2.8125 0
0.589049 3.125 0
0.785398 3.125 0
0 3.125 0
0.19635 3.125 0
0 3.4375 0
0.19635 3.4375 0
0.19635 3.125 0
0.392699 3.125 0
0.19635 3.4375 0
0.392699 3.4375 0
0 3.4375 0
0.19635 3.4375 0
0 3.75 0
0.19635 3.75 0
0.19635 3.4375 0
0.392699 3.4375 0
0.19635 3.75 0
0.392699 3.75 0
0.392699 3.125 0
0.589049 3.125 0
0.392699 3.4375 0
0.589049 3.4375 0
0.589049 3.125 0
0.785398 3.125 0
0.589049 3.4375 0
0.785398 3.4375 0
0.392699 3.4375 0
0.589049 3.4375 0
0.392699 3.75 0
0.589049 3.75 0
0.589049 3.4375 0
0.785398 3.4375 0
0.589049 3.75 0
0.785398 3.75 0
0.785398 2.5 0
0.981748 2.5 0
0.785398 2.8125 0
0.981748 2.8125 0
0.981748 2.5 0
1.1781 2.5 0
0.981748 2.8125 0
1.1781 2.8125 0
0.785398 2.8125 0
0.981748 2.8125 0
0.785398 3.125 0
0.981748 3.125 0
0.981748 2.8125 0
1.1781 2.8125 0
0.981748 3.125 0
1.1781 3.125 0
1.1781 2.5 0
1.37445 2.5 0
1.1781 2.8125 0
1.37445 2.8125 0
1.37445 2.5 0
1.5708 2.5 0
1.37445 2.8125 0
1.5708 2.8125 0
1.1781 2.8125 0
1.37445 2.8125 0
1.1781 3.125 0
1.37445 3.125 0
1.37445 2.8125 0
1.5708 2.8125 0
1.37445 3.125 0
1.5708 3.125 0
0.785398 3.125 0
0.981748 3.125 0
0.785398 3.4375 0
0.981748 3.4375 0
0.981748 3.125 0
1.1781 3.125 0
0.981748 3.4375 0
1.1781 3.4375 0
0.785398 3.4375 0
0.981748 3.4375 0
[...]
POINT_DATA 20480
VECTORS velocity double
0 0 0
0 0 0
0 0.00342065 0
-0.00424845 0.00341866 0
0 0 0
0 0 0
-0.00424845 0.00341866 0
-0.00849202 0.00341272 0
0 0.00342065 0
-0.00424845 0.00341866 0
0 0.0133749 0
-0.00821253 0.0133673 0
-0.00424845 0.00341866 0
-0.00849202 0.00341272 0
-0.00821253 0.0133673 0
-0.0164158 0.0133444 0
0 0 0
0 0 0
-0.00849202 0.00341272 0
-0.0127258 0.00340284 0
0 0 0
0 0 0
-0.0127258 0.00340284 0
-0.0169451 0.00338909 0
-0.00849202 0.00341272 0
-0.0127258 0.00340284 0
-0.0164158 0.0133444 0
-0.0246007 0.0133064 0
-0.0127258 0.00340284 0
-0.0169451 0.00338909 0
-0.0246007 0.0133064 0
-0.0327581 0.0132535 0
0 0.0133749 0
-0.00821253 0.0133673 0
0 0.0294276 0
-0.0119141 0.0294111 0
-0.00821253 0.0133673 0
-0.0164158 0.0133444 0
-0.0119141 0.0294111 0
-0.0238151 0.0293615 0
0 0.0294276 0
-0.0119141 0.0294111 0
0 0.0511767 0
-0.0153725 0.0511482 0
-0.0119141 0.0294111 0
-0.0238151 0.0293615 0
-0.0153725 0.0511482 0
-0.0307283 0.051063 0
-0.0164158 0.0133444 0
-0.0246007 0.0133064 0
-0.0238151 0.0293615 0
-0.0356899 0.029279 0
-0.0246007 0.0133064 0
-0.0327581 0.0132535 0
-0.0356899 0.029279 0
-0.0475255 0.0291642 0
-0.0238151 0.0293615 0
-0.0356899 0.029279 0
-0.0307283 0.051063 0
-0.0460508 0.0509214 0
-0.0356899 0.029279 0
-0.0475255 0.0291642 0
-0.0460508 0.0509214 0
-0.0613237 0.0507241 0
0 0 0
0 0 0
-0.0169451 0.00338909 0
-0.0211451 0.00337152 0
0 0 0
0 0 0
-0.0211451 0.00337152 0
-0.0253211 0.00335022 0
-0.0169451 0.00338909 0
-0.0211451 0.00337152 0
-0.0327581 0.0132535 0
-0.0408791 0.0131859 0
-0.0211451 0.00337152 0
-0.0253211 0.00335022 0
-0.0408791 0.0131859 0
-0.0489547 0.0131039 0
0 0 0
0 0 0
-0.0253211 0.00335022 0
-0.0294686 0.0033253 0
0 0 0
0 0 0
-0.0294686 0.0033253 0
-0.0335833 0.00329688 0
-0.0253211 0.00335022 0
-0.0294686 0.0033253 0
-0.0489547 0.0131039 0
-0.0569766 0.013008 0
-0.0294686 0.0033253 0
-0.0335833 0.00329688 0
-0.0569766 0.013008 0
-0.0649363 0.0128985 0
-0.0327581 0.0132535 0
-0.0408791 0.0131859 0
-0.0475255 0.0291642 0
-0.0593093 0.0290175 0
-0.0408791 0.0131859 0
-0.0489547 0.0131039 0
-0.0593093 0.0290175 0
-0.0710286 0.0288397 0
-0.0475255 0.0291642 0
-0.0593093 0.0290175 0
-0.0613237 0.0507241 0
-0.0765306 0.0504721 0
-0.0593093 0.0290175 0
-0.0710286 0.0288397 0
-0.0765306 0.0504721 0
-0.0916557 0.0501666 0
-0.0489547 0.0131039 0
-0.0569766 0.013008 0
-0.0710286 0.0288397 0
-0.0826714 0.0286315 0
-0.0569766 0.013008 0
-0.0649363 0.0128985 0
-0.0826714 0.0286315 0
-0.0942256 0.028394 0
-0.0710286 0.0288397 0
-0.0826714 0.0286315 0
-0.0916557 0.0501666 0
-0.106684 0.0498089 0
-0.0826714 0.0286315 0
-0.0942256 0.028394 0
-0.106684 0.0498089 0
-0.121599 0.0494007 0
0 0.0511767 0
-0.0153725 0.0511482 0
0 0.0782487 0
-0.0186048 0.0782057 0
-0.0153725 0.0511482 0
-0.0307283 0.051063 0
-0.0186048 0.0782057 0
-0.0371897 0.0780768 0
0 0.0782487 0
-0.0186048 0.0782057 0
0 0.110296 0
-0.0216263 0.110236 0
-0.0186048 0.0782057 0
-0.0371897 0.0780768 0
-0.0216263 0.110236 0
-0.0432296 0.110056 0
-0.0307283 0.051063 0
-0.0460508 0.0509214 0
-0.0371897 0.0780768 0
-0.0557348 0.0778625 0
-0.0460508 0.0509214 0
-0.0613237 0.0507241 0
-0.0557348 0.0778625 0
-0.0742205 0.0775641 0
-0.0371897 0.0780768 0
-0.0557348 0.0778625 0
-0.0432296 0.110056 0
-0.064787 0.109757 0
-0.0557348 0.0778625 0
-0.0742205 0.0775641 0
-0.064787 0.109757 0
-0.086276 0.10934 0
0 0.110296 0
-0.0216263 0.110236 0
0 0.146995 0
-0.0244504 0.146915 0
-0.0216263 0.110236 0
-0.0432296 0.110056 0
-0.0244504 0.146915 0
-0.0488749 0.146677 0
0 0.146995 0
-0.0244504 0.146915 0
0 0.18804 0
-0.027089 0.187938 0
-0.0244504 0.146915 0
-0.0488749 0.146677 0
-0.027089 0.187938 0
-0.0541494 0.187635 0
-0.0432296 0.110056 0
-0.064787 0.109757 0
-0.0488749 0.146677 0
-0.0732478 0.146281 0
-0.064787 0.109757 0
-0.086276 0.10934 0
-0.0732478 0.146281 0
-0.0975435 0.145729 0
-0.0488749 0.146677 0
-0.0732478 0.146281 0
-0.0541494 0.187635 0
-0.0811527 0.187131 0
-0.0732478 0.146281 0
-0.0975435 0.145729 0
-0.0811527 0.187131 0
-0.108071 0.186428 0
-0.0613237 0.0507241 0
-0.0765306 0.0504721 0
-0.0742205 0.0775641 0
-0.0926273 0.0771827 0
-0.0765306 0.0504721 0
-0.0916557 0.0501666 0
-0.0926273 0.0771827 0
-0.110936 0.0767204 0
-0.0742205 0.0775641 0
-0.0926273 0.0771827 0
-0.086276 0.10934 0
-0.107674 0.108807 0
-0.0926273 0.0771827 0
-0.110936 0.0767204 0
-0.107674 0.108807 0
-0.128959 0.108161 0
-0.0916557 0.0501666 0
-0.106684 0.0498089 0
-0.110936 0.0767204 0
-0.129129 0.0761791 0
-0.106684 0.0498089 0
-0.121599 0.0494007 0
-0.129129 0.0761791 0
-0.147187 0.0755614 0
-0.110936 0.0767204 0
-0.129129 0.0761791 0
-0.128959 0.108161 0
-0.15011 0.107404 0
-0.129129 0.0761791 0
-0.147187 0.0755614 0
-0.15011 0.107404 0
-0.171107 0.106541 0
-0.086276 0.10934 0
-0.107674 0.108807 0
-0.0975435 0.145729 0
-0.121737 0.145023 0
-0.107674 0.108807 0
-0.128959 0.108161 0
-0.121737 0.145023 0
-0.145804 0.144168 0
-0.0975435 0.145729 0
-0.121737 0.145023 0
-0.108071 0.186428 0
-0.134875 0.18553 0
-0.121737 0.145023 0
-0.145804 0.144168 0
-0.134875 0.18553 0
-0.161539 0.184442 0
-0.128959 0.108161 0
-0.15011 0.107404 0
-0.145804 0.144168 0
-0.169719 0.143167 0
-0.15011 0.107404 0
-0.171107 0.106541 0
-0.169719 0.143167 0
-0.193461 0.142025 0
-0.145804 0.144168 0
-0.169719 0.143167 0
-0.161539 0.184442 0
-0.188037 0.183168 0
-0.169719 0.143167 0
-0.193461 0.142025 0
-0.188037 0.183168 0
-0.214341 0.181715 0
0 0 0
0 0 0
-0.0335833 0.00329688 0
-0.0376608 0.00326508 0
0 0 0
0 0 0
-0.0376608 0.00326508 0
-0.0416972 0.00323006 0
-0.0335833 0.00329688 0
-0.0376608 0.00326508 0
-0.0649363 0.0128985 0
-0.0728258 0.012776 0
-0.0376608 0.00326508 0
-0.0416972 0.00323006 0
-0.0728258 0.012776 0
-0.0806375 0.0126411 0
0 0 0
0 0 0
-0.0416972 0.00323006 0
-0.0456885 0.00319197 0
0 0 0
0 0 0
-0.0456885 0.00319197 0
-0.049631 0.00315098 0
-0.0416972 0.00323006 0
-0.0456885 0.00319197 0
-0.0806375 0.0126411 0
-0.0883638 0.0124944 0
-0.0456885 0.00319197 0
-0.049631 0.00315098 0
-0.0883638 0.0124944 0
-0.0959979 0.0123364 0
-0.0649363 0.0128985 0
-0.0728258 0.012776 0
-0.0942256 0.028394 0
-0.10568 0.0281281 0
-0.0728258 0.012776 0
-0.0806375 0.0126411 0
-0.10568 0.0281281 0
-0.117023 0.0278353 0
-0.0942256 0.028394 0
-0.10568 0.0281281 0
-0.121599 0.0494007 0
-0.136387 0.0489439 0
-0.10568 0.0281281 0
-0.117023 0.0278353 0
-0.136387 0.0489439 0
-0.151035 0.0484405 0
-0.0806375 0.0126411 0
-0.0883638 0.0124944 0
-0.117023 0.0278353 0
-0.128245 0.0275166 0
-0.0883638 0.0124944 0
-0.0959979 0.0123364 0
-0.128245 0.0275166 0
-0.139336 0.0271735 0
-0.117023 0.0278353 0
-0.128245 0.0275166 0
-0.151035 0.0484405 0
-0.165528 0.0478927 0
-0.128245 0.0275166 0
-0.139336 0.0271735 0
-0.165528 0.0478927 0
-0.179854 0.0473028 0
0 0 0
0 0 0
-0.049631 0.00315098 0
-0.0535213 0.00310727 0
0 0 0
0 0 0
-0.0535213 0.00310727 0
-0.0573562 0.00306102 0
-0.049631 0.00315098 0
-0.0535213 0.00310727 0
-0.0959979 0.0123364 0
-0.103533 0.0121679 0
-0.0535213 0.00310727 0
-0.0573562 0.00306102 0
-0.103533 0.0121679 0
-0.110963 0.0119896 0
0 0 0
0 0 0
-0.0573562 0.00306102 0
-0.0611325 0.00301242 0
0 0 0
0 0 0
-0.0611325 0.00301242 0
-0.0648475 0.00296166 0
-0.0573562 0.00306102 0
-0.0611325 0.00301242 0
-0.110963 0.0119896 0
-0.118282 0.0118021 0
-0.0611325 0.00301242 0
-0.0648475 0.00296166 0
-0.118282 0.0118021 0
-0.125485 0.0116062 0
-0.0959979 0.0123364 0
-0.103533 0.0121679 0
-0.139336 0.0271735 0
-0.150285 0.0268074 0
-0.103533 0.0121679 0
-0.110963 0.0119896 0
-0.150285 0.0268074 0
-0.161085 0.0264199 0
-0.139336 0.0271735 0
-0.150285 0.0268074 0
-0.179854 0.0473028 0
-0.194001 0.0466733 0
-0.150285 0.0268074 0
-0.161085 0.0264199 0
-0.194001 0.0466733 0
-0.207957 0.0460068 0
-0.110963 0.0119896 0
-0.118282 0.0118021 0
-0.161085 0.0264199 0
-0.171727 0.0260124 0
-0.118282 0.0118021 0
-0.125485 0.0116062 0
-0.171727 0.0260124 0
-0.182202 0.0255865 0
-0.161085 0.0264199 0
-0.171727 0.0260124 0
-0.207957 0.0460068 0
-0.221712 0.0453058 0
-0.171727 0.0260124 0
-0.182202 0.0255865 0
-0.221712 0.0453058 0
-0.235256 0.044573 0
-0.121599 0.0494007 0
-0.136387 0.0489439 0
-0.147187 0.0755614 0
-0.165093 0.07487 0
-0.136387 0.0489439 0
-0.151035 0.0484405 0
-0.165093 0.07487 0
-0.182831 0.0741081 0
-0.147187 0.0755614 0
-0.165093 0.07487 0
-0.171107 0.106541 0
-0.191928 0.105575 0
-0.165093 0.07487 0
-0.182831 0.0741081 0
-0.191928 0.105575 0
-0.212555 0.10451 0
-0.151035 0.0484405 0
-0.165528 0.0478927 0
-0.182831 0.0741081 0
-0.200384 0.0732789 0
-0.165528 0.0478927 0
-0.179854 0.0473028 0
-0.200384 0.0732789 0
-0.217738 0.0723859 0
-0.182831 0.0741081 0
-0.200384 0.0732789 0
-0.212555 0.10451 0
-0.232969 0.103351 0
-0.200384 0.0732789 0
-0.217738 0.0723859 0
-0.232969 0.103351 0
-0.253153 0.102103 0
-0.171107 0.106541 0
-0.191928 0.105575 0
-0.193461 0.142025 0
-0.217006 0.140746 0
-0.191928 0.105575 0
-0.212555 0.10451 0
-0.217006 0.140746 0
-0.240332 0.139337 0
-0.193461 0.142025 0
-0.217006 0.140746 0
-0.214341 0.181715 0
-0.240428 0.180088 0
-0.217006 0.140746 0
-0.240332 0.139337 0
-0.240428 0.180088 0
-0.266274 0.178295 0
-0.212555 0.10451 0
-0.232969 0.103351 0
-0.240332 0.139337 0
-0.263419 0.137803 0
-0.232969 0.103351 0
-0.253153 0.102103 0
-0.263419 0.137803 0
-0.286247 0.136151 0
-0.240332 0.139337 0
-0.263419 0.137803 0
-0.266274 0.178295 0
-0.291855 0.176344 0
-0.263419 0.137803 0
-0.286247 0.136151 0
-0.291855 0.176344 0
-0.31715 0.174243 0
-0.179854 0.0473028 0
-0.194001 0.0466733 0
-0.217738 0.0723859 0
-0.234877 0.0714328 0
-0.194001 0.0466733 0
-0.207957 0.0460068 0
-0.234877 0.0714328 0
-0.251788 0.0704235 0
-0.217738 0.0723859 0
-0.234877 0.0714328 0
-0.253153 0.102103 0
-0.273091 0.100771 0
-0.234877 0.0714328 0
-0.251788 0.0704235 0
-0.273091 0.100771 0
-0.292765 0.09936 0
-0.207957 0.0460068 0
-0.221712 0.0453058 0
-0.251788 0.0704235 0
-0.268459 0.0693619 0
-0.221712 0.0453058 0
-0.235256 0.044573 0
-0.268459 0.0693619 0
-0.284877 0.068252 0
-0.251788 0.0704235 0
-0.268459 0.0693619 0
-0.292765 0.09936 0
-0.312163 0.0978759 0
-0.268459 0.0693619 0
-0.284877 0.068252 0
-0.312163 0.0978759 0
-0.331271 0.0963242 0
-0.253153 0.102103 0
-0.273091 0.100771 0
-0.286247 0.136151 0
-0.308798 0.134388 0
-0.273091 0.100771 0
-0.292765 0.09936 0
-0.308798 0.134388 0
-0.331055 0.132521 0
-0.286247 0.136151 0
-0.308798 0.134388 0
-0.31715 0.174243 0
-0.342139 0.172 0
-0.308798 0.134388 0
-0.331055 0.132521 0
-0.342139 0.172 0
-0.366803 0.169625 0
-0.292765 0.09936 0
-0.312163 0.0978759 0
-0.331055 0.132521 0
-0.353 0.130557 0
-0.312163 0.0978759 0
-0.331271 0.0963242 0
-0.353 0.130557 0
-0.374619 0.128504 0
-0.331055 0.132521 0
-0.353 0.130557 0
-0.366803 0.169625 0
-0.391123 0.167128 0
-0.353 0.130557 0
-0.374619 0.128504 0
-0.391123 0.167128 0
-0.415084 0.164516 0
0 0.18804 0
-0.027089 0.187938 0
0 0.233145 0
-0.0295528 0.233019 0
-0.027089 0.187938 0
-0.0541494 0.187635 0
-0.0295528 0.233019 0
-0.0590743 0.232644 0
0 0.233145 0
-0.0295528 0.233019 0
0 0.282038 0
-0.0318511 0.281887 0
-0.0295528 0.233019 0
-0.0590743 0.232644 0
-0.0318511 0.281887 0
-0.0636681 0.281434 0
-0.0541494 0.187635 0
-0.0811527 0.187131 0
-0.0590743 0.232644 0
-0.0885332 0.232021 0
-0.0811527 0.187131 0
-0.108071 0.186428 0
-0.0885332 0.232021 0
-0.117899 0.231153 0
-0.0590743 0.232644 0
-0.0885332 0.232021 0
-0.0636681 0.281434 0
-0.0954172 0.280681 0
-0.0885332 0.232021 0
-0.117899 0.231153 0
-0.0954172 0.280681 0
-0.127065 0.279632 0
0 0.282038 0
-0.0318511 0.281887 0
0 0.334464 0
-0.0339919 0.334285 0
-0.0318511 0.281887 0
-0.0636681 0.281434 0
-0.0339919 0.334285 0
-0.0679471 0.333747 0
0 0.334464 0
-0.0339919 0.334285 0
0 0.390178 0
-0.0359824 0.389968 0
-0.0339919 0.334285 0
-0.0679471 0.333747 0
-0.0359824 0.389968 0
-0.0719254 0.389339 0
-0.0636681 0.281434 0
-0.0954172 0.280681 0
-0.0679471 0.333747 0
-0.101829 0.332854 0
-0.0954172 0.280681 0
-0.127065 0.279632 0
-0.101829 0.332854 0
-0.135601 0.33161 0
-0.0679471 0.333747 0
-0.101829 0.332854 0
-0.0719254 0.389339 0
-0.107789 0.388295 0
-0.101829 0.332854 0
-0.135601 0.33161 0
-0.107789 0.388295 0
-0.143536 0.386841 0
-0.108071 0.186428 0
-0.134875 0.18553 0
-0.117899 0.231153 0
-0.14714 0.230044 0
-0.134875 0.18553 0
-0.161539 0.184442 0
-0.14714 0.230044 0
-0.176228 0.228699 0
-0.117899 0.231153 0
-0.14714 0.230044 0
-0.127065 0.279632 0
-0.158578 0.278293 0
-0.14714 0.230044 0
-0.176228 0.228699 0
-0.158578 0.278293 0
-0.189925 0.276669 0
-0.161539 0.184442 0
-0.188037 0.183168 0
-0.176228 0.228699 0
-0.205134 0.227125 0
-0.188037 0.183168 0
-0.214341 0.181715 0
-0.205134 0.227125 0
-0.233829 0.22533 0
-0.176228 0.228699 0
-0.205134 0.227125 0
-0.189925 0.276669 0
-0.221074 0.274769 0
-0.205134 0.227125 0
-0.233829 0.22533 0
-0.221074 0.274769 0
-0.251994 0.272601 0
-0.127065 0.279632 0
-0.158578 0.278293 0
-0.135601 0.33161 0
-0.169229 0.330022 0
-0.158578 0.278293 0
-0.189925 0.276669 0
-0.169229 0.330022 0
-0.202677 0.328096 0
-0.135601 0.33161 0
-0.169229 0.330022 0
-0.143536 0.386841 0
-0.179127 0.384985 0
-0.169229 0.330022 0
-0.202677 0.328096 0
-0.179127 0.384985 0
-0.214524 0.382735 0
-0.189925 0.276669 0
-0.221074 0.274769 0
-0.202677 0.328096 0
-0.235911 0.325844 0
-0.221074 0.274769 0
-0.251994 0.272601 0
-0.235911 0.325844 0
-0.268899 0.323274 0
-0.202677 0.328096 0
-0.235911 0.325844 0
-0.214524 0.382735 0
-0.249693 0.380103 0
-0.235911 0.325844 0
-0.268899 0.323274 0
-0.249693 0.380103 0
-0.284598 0.377101 0
0 0.390178 0
-0.0359824 0.389968 0
0 0.448944 0
-0.0378286 0.448702 0
-0.0359824 0.389968 0
-0.0719254 0.389339 0
-0.0378286 0.448702 0
-0.0756148 0.447976 0
0 0.448944 0
-0.0378286 0.448702 0
0 0.510539 0
-0.0395355 0.510261 0
-0.0378286 0.448702 0
-0.0756148 0.447976 0
-0.0395355 0.510261 0
-0.0790255 0.50943 0
-0.0719254 0.389339 0
-0.107789 0.388295 0
-0.0756148 0.447976 0
-0.113316 0.44677 0
-0.107789 0.388295 0
-0.143536 0.386841 0
-0.113316 0.44677 0
-0.150892 0.44509 0
-0.0756148 0.447976 0
-0.113316 0.44677 0
-0.0790255 0.50943 0
-0.118425 0.50805 0
-0.113316 0.44677 0
-0.150892 0.44509 0
-0.118425 0.50805 0
-0.157689 0.506129 0
0 0.510539 0
-0.0395355 0.510261 0
0 0.574742 0
-0.041107 0.574427 0
-0.0395355 0.510261 0
-0.0790255 0.50943 0
-0.041107 0.574427 0
-0.0821654 0.573484 0
0 0.574742 0
-0.041107 0.574427 0
0 0.641342 0
-0.0425462 0.640987 0
-0.041107 0.574427 0
-0.0821654 0.573484 0
-0.0425462 0.640987 0
-0.0850401 0.639924 0
-0.0790255 0.50943 0
-0.118425 0.50805 0
-0.0821654 0.573484 0
-0.123127 0.571918 0
-0.118425 0.50805 0
-0.157689 0.506129 0
-0.123127 0.571918 0
-0.163943 0.569738 0
-0.0821654 0.573484 0
-0.123127 0.571918 0
-0.0850401 0.639924 0
-0.12743 0.638158 0
-0.123127 0.571918 0
-0.163943 0.569738 0
-0.12743 0.638158 0
-0.169665 0.635702 0
-0.143536 0.386841 0
-0.179127 0.384985 0
-0.150892 0.44509 0
-0.188301 0.442946 0
-0.179127 0.384985 0
-0.214524 0.382735 0
-0.188301 0.442946 0
-0.225503 0.440348 0
-0.150892 0.44509 0
-0.188301 0.442946 0
-0.157689 0.506129 0
-0.196775 0.503677 0
-0.188301 0.442946 0
-0.225503 0.440348 0
-0.196775 0.503677 0
-0.23564 0.500707 0
-0.214524 0.382735 0
-0.249693 0.380103 0
-0.225503 0.440348 0
-0.262459 0.43731 0
-0.249693 0.380103 0
-0.284598 0.377101 0
-0.262459 0.43731 0
-0.299134 0.433847 0
-0.225503 0.440348 0
-0.262459 0.43731 0
-0.23564 0.500707 0
-0.274243 0.497235 0
-0.262459 0.43731 0
-0.299134 0.433847 0
-0.274243 0.497235 0
-0.312545 0.493279 0
-0.157689 0.506129 0
-0.196775 0.503677 0
-0.163943 0.569738 0
-0.204569 0.566957 0
-0.196775 0.503677 0
-0.23564 0.500707 0
-0.204569 0.566957 0
-0.244959 0.56359 0
-0.163943 0.569738 0
-0.204569 0.566957 0
-0.169665 0.635702 0
-0.211696 0.632568 0
-0.204569 0.566957 0
-0.244959 0.56359 0
-0.211696 0.632568 0
-0.253474 0.628777 0
-0.23564 0.500707 0
-0.274243 0.497235 0
-0.244959 0.56359 0
-0.285069 0.559655 0
-0.274243 0.497235 0
-0.312545 0.493279 0
-0.285069 0.559655 0
-0.324858 0.555173 0
-0.244959 0.56359 0
-0.285069 0.559655 0
-0.253474 0.628777 0
-0.294954 0.624348 0
-0.285069 0.559655 0
-0.324858 0.555173 0
-0.294954 0.624348 0
-0.336093 0.619307 0
-0.214341 0.181715 0
-0.240428 0.180088 0
-0.233829 0.22533 0
-0.262286 0.22332 0
-0.240428 0.180088 0
-0.266274 0.178295 0
-0.262286 0.22332 0
-0.290479 0.221106 0
-0.233829 0.22533 0
-0.262286 0.22332 0
-0.251994 0.272601 0
-0.282657 0.270176 0
-0.262286 0.22332 0
-0.290479 0.221106 0
-0.282657 0.270176 0
-0.313034 0.267504 0
-0.266274 0.178295 0
-0.291855 0.176344 0
-0.290479 0.221106 0
-0.318384 0.218696 0
-0.291855 0.176344 0
-0.31715 0.174243 0
-0.318384 0.218696 0
-0.345977 0.216102 0
-0.290479 0.221106 0
-0.318384 0.218696 0
-0.313034 0.267504 0
-0.343099 0.264597 0
-0.318384 0.218696 0
-0.345977 0.216102 0
-0.343099 0.264597 0
-0.372827 0.261467 0
-0.251994 0.272601 0
-0.282657 0.270176 0
-0.268899 0.323274 0
-0.301611 0.320399 0
-0.282657 0.270176 0
-0.313034 0.267504 0
-0.301611 0.320399 0
-0.334015 0.317234 0
-0.268899 0.323274 0
-0.301611 0.320399 0
-0.284598 0.377101 0
-0.319206 0.373745 0
-0.301611 0.320399 0
-0.334015 0.317234 0
-0.319206 0.373745 0
-0.353485 0.37005 0
-0.313034 0.267504 0
-0.343099 0.264597 0
-0.334015 0.317234 0
-0.366084 0.31379 0
-0.343099 0.264597 0
-0.372827 0.261467 0
-0.366084 0.31379 0
-0.39779 0.310084 0
-0.334015 0.317234 0
-0.366084 0.31379 0
-0.353485 0.37005 0
-0.387406 0.366032 0
-0.366084 0.31379 0
-0.39779 0.310084 0
-0.387406 0.366032 0
-0.420939 0.361709 0
-0.31715 0.174243 0
-0.342139 0.172 0
-0.345977 0.216102 0
-0.373235 0.213334 0
-0.342139 0.172 0
-0.366803 0.169625 0
-0.373235 0.213334 0
-0.40014 0.210403 0
-0.345977 0.216102 0
-0.373235 0.213334 0
-0.372827 0.261467 0
-0.402195 0.258129 0
-0.373235 0.213334 0
-0.40014 0.210403 0
-0.402195 0.258129 0
-0.431179 0.254594 0
-0.366803 0.169625 0
-0.391123 0.167128 0
-0.40014 0.210403 0
-0.42667 0.20732 0
-0.391123 0.167128 0
-0.415084 0.164516 0
-0.42667 0.20732 0
-0.452809 0.204097 0
-0.40014 0.210403 0
-0.42667 0.20732 0
-0.431179 0.254594 0
-0.45976 0.250878 0
-0.42667 0.20732 0
-0.452809 0.204097 0
-0.45976 0.250878 0
-0.487918 0.246993 0
-0.372827 0.261467 0
-0.402195 0.258129 0
-0.39779 0.310084 0
-0.42911 0.306132 0
-0.402195 0.258129 0
-0.431179 0.254594 0
-0.42911 0.306132 0
-0.460019 0.301949 0
-0.39779 0.310084 0
-0.42911 0.306132 0
-0.420939 0.361709 0
-0.45406 0.3571 0
-0.42911 0.306132 0
-0.460019 0.301949 0
-0.45406 0.3571 0
-0.486743 0.352224 0
-0.431179 0.254594 0
-0.45976 0.250878 0
-0.460019 0.301949 0
-0.490495 0.297551 0
-0.45976 0.250878 0
-0.487918 0.246993 0
-0.490495 0.297551 0
-0.52052 0.292956 0
-0.460019 0.301949 0
-0.490495 0.297551 0
-0.486743 0.352224 0
-0.518965 0.3471 0
-0.490495 0.297551 0
-0.52052 0.292956 0
-0.518965 0.3471 0
-0.550707 0.341747 0
-0.284598 0.377101 0
-0.319206 0.373745 0
-0.299134 0.433847 0
-0.335492 0.429975 0
-0.319206 0.373745 0
-0.353485 0.37005 0
-0.335492 0.429975 0
-0.371499 0.425714 0
-0.299134 0.433847 0
-0.335492 0.429975 0
-0.312545 0.493279 0
-0.350509 0.488858 0
-0.335492 0.429975 0
-0.371499 0.425714 0
-0.350509 0.488858 0
-0.3881 0.483995 0
-0.353485 0.37005 0
-0.387406 0.366032 0
-0.371499 0.425714 0
-0.407124 0.421083 0
-0.387406 0.366032 0
-0.420939 0.361709 0
-0.407124 0.421083 0
-0.442337 0.416103 0
-0.371499 0.425714 0
-0.407124 0.421083 0
-0.3881 0.483995 0
-0.425285 0.478712 0
-0.407124 0.421083 0
-0.442337 0.416103 0
-0.425285 0.478712 0
-0.462033 0.473034 0
-0.312545 0.493279 0
-0.350509 0.488858 0
-0.324858 0.555173 0
-0.364288 0.550168 0
-0.350509 0.488858 0
-0.3881 0.483995 0
-0.364288 0.550168 0
-0.403321 0.544665 0
-0.324858 0.555173 0
-0.364288 0.550168 0
-0.336093 0.619307 0
-0.376849 0.613681 0
-0.364288 0.550168 0
-0.403321 0.544665 0
-0.376849 0.613681 0
-0.417184 0.607499 0
-0.3881 0.483995 0
-0.425285 0.478712 0
-0.403321 0.544665 0
-0.441924 0.53869 0
-0.425285 0.478712 0
-0.462033 0.473034 0
-0.441924 0.53869 0
-0.480063 0.532273 0
-0.403321 0.544665 0
-0.441924 0.53869 0
-0.417184 0.607499 0
-0.457063 0.600792 0
-0.441924 0.53869 0
-0.480063 0.532273 0
-0.457063 0.600792 0
-0.496453 0.593593 0
-0.420939 0.361709 0
-0.45406 0.3571 0