# vtk DataFile Version 3.0
#This file was generated by the deal.II library on 2018/10/14 at 22:39:10
ASCII
DATASET UNSTRUCTURED_GRID

POINTS 20480 double
0 0 0
0.19635 0 0
0 0.3125 0
0.19635 0.3125 0
0.19635 0 0
0.392699 0 0
0.19635 0.3125 0
0.392699 0.3125 0
0 0.3125 0
0.19635 0.3125 0
0 0.625 0
0.19635 0.625 0
0.19635 0.3125 0
0.392699 0.3125 0
0.19635 0.625 0
0.392699 0.625 0
0.392699 0 0
0.589049 0 0
0.392699 0.3125 0
0.589049 0.3125 0
0.589049 0 0
0.785398 0 0
0.589049 0.3125 0
0.785398 0.3125 0
0.392699 0.3125 0
0.589049 0.3125 0
0.392699 0.625 0
0.589049 0.625 0
0.589049 0.3125 0
0.785398 0.3125 0
0.589049 0.625 0
0.785398 0.625 0
0 0.625 0
0.19635 0.625 0
0 0.9375 0
0.19635 0.9375 0
0.19635 0.625 0
0.392699 0.625 0
0.19635 0.9375 0
0.392699 0.9375 0
0 0.9375 0
0.19635 0.9375 0
0 1.25 0
0.19635 1.25 0
0.19635 0.9375 0
0.392699 0.9375 0
0.19635 1.25 0
0.392699 1.25 0
0.392699 0.625 0
0.589049 0.625 0
0.392699 0.9375 0
0.589049 0.9375 0
0.589049 0.625 0
0.785398 0.625 0
0.589049 0.9375 0
0.785398 0.9375 0
0.392699 0.9375 0
0.589049 0.9375 0
0.392699 1.25 0
0.589049 1.25 0
0.589049 0.9375 0
0.785398 0.9375 0
0.589049 1.25 0
0.785398 1.25 0
0.785398 0 0
0.981748 0 0
0.785398 0.3125 0
0.981748 0.3125 0
0.981748 0 0
1.1781 0 0
0.981748 0.3125 0
1.1781 0.3125 0
0.785398 0.3125 0
0.981748 0.3125 0
0.785398 0.625 0
0.981748 0.625 0
0.981748 0.3125 0
1.1781 0.3125 0
0.981748 0.625 0
1.1781 0.625 0
1.1781 0 0
1.37445 0 0
1.1781 0.3125 0
1.37445 0.3125 0
1.37445 0 0
1.5708 0 0
1.37445 0.3125 0
1.5708 0.3125 0
1.1781 0.3125 0
1.37445 0.3125 0
1.1781 0.625 0
1.37445 0.625 0
1.37445 0.3125 0
1.5708 0.3125 0
1.37445 0.625 0
1.5708 0.625 0
0.785398 0.625 0
0.981748 0.625 0
0.785398 0.9375 0
0.981748 0.9375 0
0.981748 0.625 0
1.1781 0.625 0
0.981748 0.9375 0
1.1781 0.9375 0
0.785398 0.9375 0
0.981748 0.9375 0
0.785398 1.25 0
0.981748 1.25 0
0.981748 0.9375 0
1.1781 0.9375 0
0.981748 1.25 0
1.1781 1.25 0
1.1781 0.625 0
1.37445 0.625 0
1.1781 0.9375 0
1.37445 0.9375 0
1.37445 0.625 0
1.5708 0.625 0
1.37445 0.9375 0
1.5708 0.9375 0
1.1781 0.9375 0
1.37445 0.9375 0
1.1781 1.25 0
1.37445 1.25 0
1.37445 0.9375 0
1.5708 0.9375 0
1.37445 1.25 0
1.5708 1.25 0
0 1.25 0
0.19635 1.25 0
0 1.5625 0
0.19635 1.5625 0
0.19635 1.25 0
0.392699 1.25 0
0.19635 1.5625 0
0.392699 1.5625 0
0 1.5625 0
0.19635 1.5625 0
0 1.875 0
0.19635 1.875 0
0.19635 1.5625 0
0.392699 1.5625 0
0.19635 1.875 0
0.392699 1.875 0
0.392699 1.25 0
0.589049 1.25 0
0.392699 1.5625 0
0.589049 1.5625 0
0.589049 1.25 0
0.785398 1.25 0
0.589049 1.5625 0
0.785398 1.5625 0
0.392699 1.5625 0
0.589049 1.5625 0
0.392699 1.875 0
0.589049 1.875 0
0.589049 1.5625 0
0.785398 1.5625 0
0.589049 1.875 0
0.785398 1.875 0
0 1.875 0
0.19635 1.875 0
0 2.1875 0
0.19635 2.1875 0
0.19635 1.875 0
0.392699 1.875 0
0.19635 2.1875 0
0.392699 2.1875 0
0 2.1875 0
0.19635 2.1875 0
0 2.5 0
0.19635 2.5 0
0.19635 2.1875 0
0.392699 2.1875 0
0.19635 2.5 0
0.392699 2.5 0
0.392699 1.875 0
0.589049 1.875 0
0.392699 2.1875 0
0.589049 2.1875 0
0.589049 1.875 0
0.785398 1.875 0
0.589049 2.1875 0
0.785398 2.1875 0
0.392699 2.1875 0
0.589049 2.1875 0
0.392699 2.5 0
0.589049 2.5 0
0.589049 2.1875 0
0.785398 2.1875 0
0.589049 2.5 0
0.785398 2.5 0
0.785398 1.25 0
0.981748 1.25 0
0.785398 1.5625 0
0.981748 1.5625 0
0.981748 1.25 0
1.1781 1.25 0
0.981748 1.5625 0
1.1781 1.5625 0
0.785398 1.5625 0
0.981748 1.5625 0
0.785398 1.875 0
0.981748 1.875 0
0.981748 1.5625 0
1.1781 1.5625 0
0.981748 1.875 0
1.1781 1.875 0
1.1781 1.25 0
1.37445 1.25 0
1.1781 1.5625 0
1.37445 1.5625 0
1.37445 1.25 0
1.5708 1.25 0
1.37445 1.5625 0
1.5708 1.5625 0
1.1781 1.5625 0
1.37445 1.5625 0
1.1781 1.875 0
1.37445 1.875 0
1.37445 1.5625 0
1.5708 1.5625 0
1.37445 1.875 0
1.5708 1.875 0
0.785398 1.875 0
0.981748 1.875 0
0.785398 2.1875 0
0.981748 2.1875 0
0.981748 1.875 0
1.1781 1.875 0
0.981748 2.1875 0
1.1781 2.1875 0
0.785398 2.1875 0
0.981748 2.1875 0
0.785398 2.5 0
0.981748 2.5 0
0.981748 2.1875 0
1.1781 2.1875 0
0.981748 2.5 0
1.1781 2.5 0
1.1781 1.875 0
1.37445 1.875 0
1.1781 2.1875 0
1.37445 2.1875 0
1.37445 1.875 0
1.5708 1.875 0
1.37445 2.1875 0
1.5708 2.1875 0
1.1781 2.1875 0
1.37445 2.1875 0
1.1781 2.5 0
1.37445 2.5 0
1.37445 2.1875 0
1.5708 2.1875 0
1.37445 2.5 0
1.5708 2.5 0
1.5708 0 0
1.76715 0 0
1.5708 0.3125 0
1.76715 0.3125 0
1.76715 0 0
1.9635 0 0
1.76715 0.3125 0
1.9635 0.3125 0
1.5708 0.3125 0
1.76715 0.3125 0
1.5708 0.625 0
1.76715 0.625 0
1.76715 0.3125 0
1.9635 0.3125 0
1.76715 0.625 0
1.9635 0.625 0
1.9635 0 0
2.15984 0 0
1.9635 0.3125 0
2.15984 0.3125 0
2.15984 0 0
2.35619 0 0
2.15984 0.3125 0
2.35619 0.3125 0
1.9635 0.3125 0
2.15984 0.3125 0
1.9635 0.625 0
2.15984 0.625 0
2.15984 0.3125 0
2.35619 0.3125 0
2.15984 0.625 0
2.35619 0.625 0
1.5708 0.625 0
1.76715 0.625 0
1.5708 0.9375 0
1.76715 0.9375 0
1.76715 0.625 0
1.9635 0.625 0
1.76715 0.9375 0
1.9635 0.9375 0
1.5708 0.9375 0
1.76715 0.9375 0
1.5708 1.25 0
1.76715 1.25 0
1.76715 0.9375 0
1.9635 0.9375 0
1.76715 1.25 0
1.9635 1.25 0
1.9635 0.625 0
2.15984 0.625 0
1.9635 0.9375 0
2.15984 0.9375 0
2.15984 0.625 0
2.35619 0.625 0
2.15984 0.9375 0
2.35619 0.9375 0
1.9635 0.9375 0
2.15984 0.9375 0
1.9635 1.25 0
2.15984 1.25 0
2.15984 0.9375 0
2.35619 0.9375 0
2.15984 1.25 0
2.35619 1.25 0
2.35619 0 0
2.55254 0 0
2.35619 0.3125 0
2.55254 0.3125 0
2.55254 0 0
2.74889 0 0
2.55254 0.3125 0
2.74889 0.3125 0
2.35619 0.3125 0
2.55254 0.3125 0
2.35619 0.625 0
2.55254 0.625 0
2.55254 0.3125 0
2.74889 0.3125 0
2.55254 0.625 0
2.74889 0.625 0
2.74889 0 0
2.94524 0 0
2.74889 0.3125 0
2.94524 0.3125 0
2.94524 0 0
3.14159 0 0
2.94524 0.3125 0
3.14159 0.3125 0
2.74889 0.3125 0
2.94524 0.3125 0
2.74889 0.625 0
2.94524 0.625 0
2.94524 0.3125 0
3.14159 0.3125 0
2.94524 0.625 0
3.14159 0.625 0
2.35619 0.625 0
2.55254 0.625 0
2.35619 0.9375 0
2.55254 0.9375 0
2.55254 0.625 0
2.74889 0.625 0
2.55254 0.9375 0
2.74889 0.9375 0
2.35619 0.9375 0
2.55254 0.9375 0
2.35619 1.25 0
2.55254 1.25 0
2.55254 0.9375 0
2.74889 0.9375 0
2.55254 1.25 0
2.74889 1.25 0
2.74889 0.625 0
2.94524 0.625 0
2.74889 0.9375 0
2.94524 0.9375 0
2.94524 0.625 0
3.14159 0.625 0
2.94524 0.9375 0
3.14159 0.9375 0
2.74889 0.9375 0
2.94524 0.9375 0
2.74889 1.25 0
2.94524 1.25 0
2.94524 0.9375 0
3.14159 0.9375 0
2.94524 1.25 0
3.14159 1.25 0
1.5708 1.25 0
1.76715 1.25 0
1.5708 1.5625 0
1.76715 1.5625 0
1.76715 1.25 0
1.9635 1.25 0
1.76715 1.5625 0
1.9635 1.5625 0
1.5708 1.5625 0
1.76715 1.5625 0
1.5708 1.875 0
1.76715 1.875 0
1.76715 1.5625 0
1.9635 1.5625 0
1.76715 1.875 0
1.9635 1.875 0
1.9635 1.25 0
2.15984 1.25 0
1.9635 1.5625 0
2.15984 1.5625 0
2.15984 1.25 0
2.35619 1.25 0
2.15984 1.5625 0
2.35619 1.5625 0
1.9635 1.5625 0
2.15984 1.5625 0
1.9635 1.875 0
2.15984 1.875 0
2.15984 1.5625 0
2.35619 1.5625 0
2.15984 1.875 0
2.35619 1.875 0
1.5708 1.875 0
1.76715 1.875 0
1.5708 2.1875 0
1.76715 2.1875 0
1.76715 1.875 0
1.9635 1.875 0
1.76715 2.1875 0
1.9635 2.1875 0
1.5708 2.1875 0
1.76715 2.1875 0
1.5708 2.5 0
1.76715 2.5 0
1.76715 2.1875 0
1.9635 2.1875 0
1.76715 2.5 0
1.9635 2.5 0
1.9635 1.875 0
2.15984 1.875 0
1.9635 2.1875 0
2.15984 2.1875 0
2.15984 1.875 0
2.35619 1.875 0
2.15984 2.1875 0
2.35619 2.1875 0
1.9635 2.1875 0
2.15984 2.1875 0
1.9635 2.5 0
2.15984 2.5 0
2.15984 2.1875 0
2.35619 2.1875 0
2.15984 2.5 0
2.35619 2.5 0
2.35619 1.25 0
2.55254 1.25 0
2.35619 1.5625 0
2.55254 1.5625 0
2.55254 1.25 0
2.74889 1.25 0
2.55254 1.5625 0
2.74889 1.5625 0
2.35619 1.5625 0
2.55254 1.5625 0
2.35619 1.875 0
2.55254 1.875 0
2.55254 1.5625 0
2.74889 1.5625 0
2.55254 1.875 0
2.74889 1.875 0
2.74889 1.25 0
2.94524 1.25 0
2.74889 1.5625 0
2.94524 1.5625 0
2.94524 1.25 0
3.14159 1.25 0
2.94524 1.5625 0
3.14159 1.5625 0
2.74889 1.5625 0
2.94524 1.5625 0
2.74889 1.875 0
2.94524 1.875 0
2.94524 1.5625 0
3.14159 1.5625 0
2.94524 1.875 0
3.14159 1.875 0
2.35619 1.875 0
2.55254 1.875 0
2.35619 2.1875 0
2.55254 2.1875 0
2.55254 1.875 0
2.74889 1.875 0
2.55254 2.1875 0
2.74889 2.1875 0
2.35619 2.1875 0
2.55254 2.1875 0
2.35619 2.5 0
2.55254 2.5 0
2.55254 2.1875 0
2.74889 2.1875 0
2.55254 2.5 0
2.74889 2.5 0
2.74889 1.875 0
2.94524 1.875 0
2.74889 2.1875 0
2.94524 2.1875 0
2.94524 1.875 0
3.14159 1.875 0
2.94524 2.1875 0
3.14159 2.1875 0
2.74889 2.1875 0
2.94524 2.1875 0
2.74889 2.5 0
2.94524 2.5 0
2.94524 2.1875 0
3.14159 2.1875 0
2.94524 2.5 0
3.14159 2.5 0
0 2.5 0
0.19635 2.5 0
0 2.8125 0
0.19635 2.8125 0
0.19635 2.5 0
0.392699 2.5 0
0.19635 2.8125 0
0.392699 2.8125 0
0 2.8125 0
0.19635 2.8125 0
0 3.125 0
0.19635 3.125 0
0.19635 2.8125 0
0.392699 2.8125 0
0.19635 3.125 0
0.392699 3.125 0
0.392699 2.5 0
0.589049 2.5 0
0.392699 2.8125 0
0.589049 2.8125 0
0.589049 2.5 0
0.785398 2.5 0
0.589049 2.8125 0
0.785398 2.8125 0
0.392699 2.8125 0
0.589049 2.8125 0
0.392699 3.125 0
0.589049 3.125 0
0.589049 2.8125 0
0.785398 2.8125 0
0.589049 3.125 0
0.785398 3.125 0
0 3.125 0
0.19635 3.125 0
0 3.4375 0
0.19635 3.4375 0
0.19635 3.125 0
0.392699 3.125 0
0.19635 3.4375 0
0.392699 3.4375 0
0 3.4375 0
0.19635 3.4375 0
0 3.75 0
0.19635 3.75 0
0.19635 3.4375 0
0.392699 3.4375 0
0.19635 3.75 0
0.392699 3.75 0
0.392699 3.125 0
0.589049 3.125 0
0.392699 3.4375 0
0.589049 3.4375 0
0.589049 3.125 0
0.785398 3.125 0
0.589049 3.4375 0
0.785398 3.4375 0
0.392699 3.4375 0
0.589049 3.4375 0
0.392699 3.75 0
0.589049 3.75 0
0.589049 3.4375 0
0.785398 3.4375 0
0.589049 3.75 0
0.785398 3.75 0
0.785398 2.5 0
0.981748 2.5 0
0.785398 2.8125 0
0.981748 2.8125 0
0.981748 2.5 0
1.1781 2.5 0
0.981748 2.8125 0
1.1781 2.8125 0
0.785398 2.8125 0
0.981748 2.8125 0
0.785398 3.125 0
0.981748 3.125 0
0.981748 2.8125 0
1.1781 2.8125 0
0.981748 3.125 0
1.1781 3.125 0
1.1781 2.5 0
1.37445 2.5 0
1.1781 2.8125 0
1.37445 2.8125 0
1.37445 2.5 0
1.5708 2.5 0
1.37445 2.8125 0
1.5708 2.8125 0
1.1781 2.8125 0
1.37445 2.8125 0
1.1781 3.125 0
1.37445 3.125 0
1.37445 2.8125 0
1.5708 2.8125 0
1.37445 3.125 0
1.5708 3.125 0
0.785398 3.125 0
0.981748 3.125 0
0.785398 3.4375 0
0.981748 3.4375 0
0.981748 3.125 0
1.1781 3.125 0
0.981748 3.4375 0
1.1781 3.4375 0
0.785398 3.4375 0
0.981748 3.4375 0
[...]
POINT_DATA 20480
VECTORS uf double
0 1 0
-0.00140687 1 0
0 1.00224 0
-0.00140898 1.00224 0
-0.00140687 1 0
-0.00281208 1 0
-0.00140898 1.00224 0
-0.00281628 1.00224 0
0 1.00224 0
-0.00140897 1.00224 0
0 1.00449 0
-0.00141532 1.00449 0
-0.00140897 1.00224 0
-0.00281627 1.00224 0
-0.00141532 1.00449 0
-0.00282893 1.00448 0
-0.00281208 1 0
-0.00421398 1 0
-0.00281628 1.00224 0
-0.00422026 1.00223 0
-0.00421398 1 0
-0.00561094 1 0
-0.00422026 1.00223 0
-0.00561926 1.00222 0
-0.00281627 1.00224 0
-0.00422025 1.00223 0
-0.00282893 1.00448 0
-0.00423915 1.00447 0
-0.00422025 1.00223 0
-0.00561924 1.00222 0
-0.00423915 1.00447 0
-0.0056443 1.00445 0
0 1.00449 0
-0.00141531 1.00449 0
0 1.00675 0
-0.00142598 1.00675 0
-0.00141531 1.00449 0
-0.00282892 1.00448 0
-0.00142598 1.00675 0
-0.0028502 1.00674 0
0 1.00675 0
-0.00142597 1.00675 0
0 1.00903 0
-0.0014411 1.00903 0
-0.00142597 1.00675 0
-0.00285018 1.00674 0
-0.0014411 1.00903 0
-0.00288036 1.00901 0
-0.00282892 1.00448 0
-0.00423913 1.00447 0
-0.0028502 1.00674 0
-0.00427091 1.00672 0
-0.00423913 1.00447 0
-0.00564427 1.00445 0
-0.00427091 1.00672 0
-0.0056864 1.00669 0
-0.00285018 1.00674 0
-0.00427088 1.00672 0
-0.00288036 1.00901 0
-0.00431595 1.00898 0
-0.00427088 1.00672 0
-0.00568635 1.00669 0
-0.00431595 1.00898 0
-0.00574608 1.00895 0
-0.00561094 1 0
-0.00700134 1 0
-0.00561926 1.00222 0
-0.00701166 1.00221 0
-0.00700134 1 0
-0.00838362 1 0
-0.00701166 1.00221 0
-0.00839589 1.00219 0
-0.00561924 1.00222 0
-0.00701164 1.00221 0
-0.0056443 1.00445 0
-0.00704273 1.00442 0
-0.00701164 1.00221 0
-0.00839587 1.00219 0
-0.00704273 1.00442 0
-0.00843282 1.0044 0
-0.00838362 1 0
-0.00975623 1 0
-0.00839589 1.00219 0
-0.00977039 1.00218 0
-0.00975623 1 0
-0.0111177 1 0
-0.00977039 1.00218 0
-0.0111337 1.00216 0
-0.00839587 1.00219 0
-0.00977037 1.00218 0
-0.00843282 1.0044 0
-0.00981301 1.00436 0
-0.00977037 1.00218 0
-0.0111336 1.00216 0
-0.00981301 1.00436 0
-0.0111818 1.00432 0
-0.00564427 1.00445 0
-0.00704269 1.00442 0
-0.0056864 1.00669 0
-0.00709494 1.00665 0
-0.00704269 1.00442 0
-0.00843278 1.0044 0
-0.00709494 1.00665 0
-0.00849489 1.00661 0
-0.00568635 1.00669 0
-0.00709489 1.00665 0
-0.00574608 1.00895 0
-0.00716897 1.0089 0
-0.00709489 1.00665 0
-0.00849483 1.00661 0
-0.00716897 1.0089 0
-0.00858287 1.00884 0
-0.00843278 1.0044 0
-0.00981297 1.00436 0
-0.00849489 1.00661 0
-0.00988463 1.00656 0
-0.00981297 1.00436 0
-0.0111817 1.00432 0
-0.00988463 1.00656 0
-0.0112626 1.0065 0
-0.00849483 1.00661 0
-0.00988455 1.00656 0
-0.00858287 1.00884 0
-0.00998612 1.00877 0
-0.00988455 1.00656 0
-0.0112625 1.0065 0
-0.00998612 1.00877 0
-0.0113771 1.00869 0
0 1.00903 0
-0.00144108 1.00903 0
0 1.01134 0
-0.00146088 1.01134 0
-0.00144108 1.00903 0
-0.00288033 1.00901 0
-0.00146088 1.01134 0
-0.00291981 1.01132 0
0 1.01134 0
-0.00146086 1.01134 0
0 1.01369 0
-0.00148559 1.01368 0
-0.00146086 1.01134 0
-0.00291977 1.01132 0
-0.00148559 1.01368 0
-0.0029691 1.01365 0
-0.00288033 1.00901 0
-0.00431591 1.00898 0
-0.00291981 1.01132 0
-0.00437487 1.01128 0
-0.00431591 1.00898 0
-0.00574602 1.00895 0
-0.00437487 1.01128 0
-0.00582415 1.01123 0
-0.00291977 1.01132 0
-0.00437481 1.01128 0
-0.0029691 1.01365 0
-0.00444847 1.01361 0
-0.00437481 1.01128 0
-0.00582407 1.01123 0
-0.00444847 1.01361 0
-0.00592164 1.01355 0
0 1.01369 0
-0.00148557 1.01368 0
0 1.01608 0
-0.00151559 1.01607 0
-0.00148557 1.01368 0
-0.00296905 1.01365 0
-0.00151559 1.01607 0
-0.00302892 1.01604 0
0 1.01608 0
-0.00151556 1.01607 0
0 1.01852 0
-0.00155131 1.01851 0
-0.00151556 1.01607 0
-0.00302886 1.01604 0
-0.00155131 1.01851 0
-0.00310014 1.01847 0
-0.00296905 1.01365 0
-0.00444839 1.01361 0
-0.00302892 1.01604 0
-0.00453777 1.01599 0
-0.00444839 1.01361 0
-0.00592154 1.01355 0
-0.00453777 1.01599 0
-0.00603992 1.01591 0
-0.00302886 1.01604 0
-0.00453767 1.01599 0
-0.00310014 1.01847 0
-0.00464407 1.01841 0
-0.00453767 1.01599 0
-0.00603979 1.01591 0
-0.00464407 1.01841 0
-0.00618066 1.01833 0
-0.00574602 1.00895 0
-0.00716889 1.0089 0
-0.00582415 1.01123 0
-0.00726577 1.01117 0
-0.00716889 1.0089 0
-0.00858279 1.00884 0
-0.00726577 1.01117 0
-0.0086979 1.0111 0
-0.00582407 1.01123 0
-0.00726567 1.01117 0
-0.00592164 1.01355 0
-0.00738663 1.01348 0
-0.00726567 1.01117 0
-0.00869779 1.0111 0
-0.00738663 1.01348 0
-0.00884148 1.01338 0
-0.00858279 1.00884 0
-0.00998602 1.00877 0
-0.0086979 1.0111 0
-0.0101188 1.01101 0
-0.00998602 1.00877 0
-0.011377 1.00869 0
-0.0101188 1.01101 0
-0.0115267 1.01091 0
-0.00869779 1.0111 0
-0.0101187 1.01101 0
-0.00884148 1.01338 0
-0.0102843 1.01328 0
-0.0101187 1.01101 0
-0.0115266 1.01091 0
-0.0102843 1.01328 0
-0.0117133 1.01316 0
-0.00592154 1.01355 0
-0.00738651 1.01348 0
-0.00603992 1.01591 0
-0.00753321 1.01582 0
-0.00738651 1.01348 0
-0.00884134 1.01338 0
-0.00753321 1.01582 0
-0.00901556 1.01571 0
-0.00603979 1.01591 0
-0.00753306 1.01582 0
-0.00618066 1.01833 0
-0.00770758 1.01822 0
-0.00753306 1.01582 0
-0.00901538 1.01571 0
-0.00770758 1.01822 0
-0.00922254 1.01809 0
-0.00884134 1.01338 0
-0.0102842 1.01328 0
-0.00901556 1.01571 0
-0.0104849 1.01558 0
-0.0102842 1.01328 0
-0.0117132 1.01316 0
-0.0104849 1.01558 0
-0.0119394 1.01544 0
-0.00901538 1.01571 0
-0.0104847 1.01558 0
-0.00922254 1.01809 0
-0.0107234 1.01794 0
-0.0104847 1.01558 0
-0.0119392 1.01544 0
-0.0107234 1.01794 0
-0.0122079 1.01776 0
-0.0111177 1 0
-0.0124666 1 0
-0.0111337 1.00216 0
-0.0124843 1.00214 0
-0.0124666 1 0
-0.0138015 1 0
-0.0124843 1.00214 0
-0.0138209 1.00211 0
-0.0111336 1.00216 0
-0.0124843 1.00214 0
-0.0111818 1.00432 0
-0.0125376 1.00428 0
-0.0124843 1.00214 0
-0.0138208 1.00211 0
-0.0125376 1.00428 0
-0.0138792 1.00423 0
-0.0138015 1 0
-0.0151211 1 0
-0.0138209 1.00211 0
-0.0151421 1.00209 0
-0.0151211 1 0
-0.0164242 1 0
-0.0151421 1.00209 0
-0.0164466 1.00206 0
-0.0138208 1.00211 0
-0.015142 1.00209 0
-0.0138792 1.00423 0
-0.0152051 1.00418 0
-0.015142 1.00209 0
-0.0164466 1.00206 0
-0.0152051 1.00418 0
-0.0165142 1.00413 0
-0.0111817 1.00432 0
-0.0125376 1.00428 0
-0.0112626 1.0065 0
-0.0126273 1.00643 0
-0.0125376 1.00428 0
-0.0138791 1.00423 0
-0.0126273 1.00643 0
-0.0139772 1.00636 0
-0.0112625 1.0065 0
-0.0126272 1.00643 0
-0.0113771 1.00869 0
-0.0127542 1.00861 0
-0.0126272 1.00643 0
-0.0139771 1.00636 0
-0.0127542 1.00861 0
-0.014116 1.00851 0
-0.0138791 1.00423 0
-0.0152051 1.00418 0
-0.0139772 1.00636 0
-0.0153111 1.00629 0
-0.0152051 1.00418 0
-0.0165141 1.00413 0
-0.0153111 1.00629 0
-0.0166276 1.0062 0
-0.0139771 1.00636 0
-0.015311 1.00629 0
-0.014116 1.00851 0
-0.0154611 1.0084 0
-0.015311 1.00629 0
-0.0166275 1.0062 0
-0.0154611 1.0084 0
-0.0167881 1.00829 0
-0.0164242 1 0
-0.0177096 1 0
-0.0164466 1.00206 0
-0.0177335 1.00203 0
-0.0177096 1 0
-0.0189763 1 0
-0.0177335 1.00203 0
-0.0190014 1.002 0
-0.0164466 1.00206 0
-0.0177334 1.00203 0
-0.0165142 1.00413 0
-0.0178052 1.00407 0
-0.0177334 1.00203 0
-0.0190014 1.002 0
-0.0178052 1.00407 0
-0.019077 1.00401 0
-0.0189763 1 0
-0.0202231 1 0
-0.0190014 1.002 0
-0.0202494 1.00197 0
-0.0202231 1 0
-0.0214493 1 0
-0.0202494 1.00197 0
-0.0214766 1.00194 0
-0.0190014 1.002 0
-0.0202494 1.00197 0
-0.019077 1.00401 0
-0.0203285 1.00394 0
-0.0202494 1.00197 0
-0.0214766 1.00194 0
-0.0203285 1.00394 0
-0.021559 1.00387 0
-0.0165141 1.00413 0
-0.0178051 1.00407 0
-0.0166276 1.0062 0
-0.0179255 1.00611 0
-0.0178051 1.00407 0
-0.0190769 1.00401 0
-0.0179255 1.00611 0
-0.0192038 1.00602 0
-0.0166275 1.0062 0
-0.0179254 1.00611 0
-0.0167881 1.00829 0
-0.0180958 1.00817 0
-0.0179254 1.00611 0
-0.0192036 1.00602 0
-0.0180958 1.00817 0
-0.0193831 1.00805 0
-0.0190769 1.00401 0
-0.0203285 1.00394 0
-0.0192038 1.00602 0
-0.0204613 1.00592 0
-0.0203285 1.00394 0
-0.0215589 1.00387 0
-0.0204613 1.00592 0
-0.0216971 1.00582 0
-0.0192036 1.00602 0
-0.0204612 1.00592 0
-0.0193831 1.00805 0
-0.0206489 1.00791 0
-0.0204612 1.00592 0
-0.021697 1.00582 0
-0.0206489 1.00791 0
-0.0218924 1.00777 0
-0.011377 1.00869 0
-0.0127541 1.00861 0
-0.0115267 1.01091 0
-0.01292 1.0108 0
-0.0127541 1.00861 0
-0.0141159 1.00851 0
-0.01292 1.0108 0
-0.0142972 1.01068 0
-0.0115266 1.01091 0
-0.0129199 1.0108 0
-0.0117133 1.01316 0
-0.0131268 1.01302 0
-0.0129199 1.0108 0
-0.0142971 1.01068 0
-0.0131268 1.01302 0
-0.0145231 1.01287 0
-0.0141159 1.00851 0
-0.0154609 1.0084 0
-0.0142972 1.01068 0
-0.0156569 1.01054 0
-0.0154609 1.0084 0
-0.0167879 1.00829 0
-0.0156569 1.01054 0
-0.0169975 1.0104 0
-0.0142971 1.01068 0
-0.0156567 1.01054 0
-0.0145231 1.01287 0
-0.0159007 1.01271 0
-0.0156567 1.01054 0
-0.0169973 1.0104 0
-0.0159007 1.01271 0
-0.0172582 1.01253 0
-0.0117132 1.01316 0
-0.0131266 1.01302 0
-0.0119394 1.01544 0
-0.0133772 1.01527 0
-0.0131266 1.01302 0
-0.0145229 1.01287 0
-0.0133772 1.01527 0
-0.0147964 1.01509 0
-0.0119392 1.01544 0
-0.0133769 1.01527 0
-0.0122079 1.01776 0
-0.0136743 1.01757 0
-0.0133769 1.01527 0
-0.0147962 1.01509 0
-0.0136743 1.01757 0
-0.0151207 1.01736 0
-0.0145229 1.01287 0
-0.0159005 1.01271 0
-0.0147964 1.01509 0
-0.0161957 1.0149 0
-0.0159005 1.01271 0
-0.017258 1.01253 0
-0.0161957 1.0149 0
-0.0175733 1.01469 0
-0.0147962 1.01509 0
-0.0161954 1.0149 0
-0.0151207 1.01736 0
-0.0165453 1.01713 0
-0.0161954 1.0149 0
-0.017573 1.01469 0
-0.0165453 1.01713 0
-0.0179466 1.01688 0
-0.0167879 1.00829 0
-0.0180957 1.00817 0
-0.0169975 1.0104 0
-0.0183179 1.01025 0
-0.0180957 1.00817 0
-0.019383 1.00805 0
-0.0183179 1.01025 0
-0.0196169 1.01009 0
-0.0169973 1.0104 0
-0.0183177 1.01025 0
-0.0172582 1.01253 0
-0.0185943 1.01234 0
-0.0183177 1.01025 0
-0.0196167 1.01009 0
-0.0185943 1.01234 0
-0.0199077 1.01215 0
-0.019383 1.00805 0
-0.0206488 1.00791 0
-0.0196169 1.01009 0
-0.0208935 1.00992 0
-0.0206488 1.00791 0
-0.0218922 1.00777 0
-0.0208935 1.00992 0
-0.0221466 1.00974 0
-0.0196167 1.01009 0
-0.0208933 1.00992 0
-0.0199077 1.01215 0
-0.0211975 1.01194 0
-0.0208933 1.00992 0
-0.0221465 1.00974 0
-0.0211975 1.01194 0
-0.0224625 1.01173 0
-0.017258 1.01253 0
-0.0185941 1.01234 0
-0.0175733 1.01469 0
-0.0189281 1.01447 0
-0.0185941 1.01234 0
-0.0199075 1.01215 0
-0.0189281 1.01447 0
-0.0202587 1.01423 0
-0.017573 1.01469 0
-0.0189278 1.01447 0
-0.0179466 1.01688 0
-0.0193231 1.01662 0
-0.0189278 1.01447 0
-0.0202584 1.01423 0
-0.0193231 1.01662 0
-0.0206737 1.01635 0
-0.0199075 1.01215 0
-0.0211972 1.01194 0
-0.0202587 1.01423 0
-0.021564 1.01399 0
-0.0211972 1.01194 0
-0.0224623 1.01173 0
-0.021564 1.01399 0
-0.0228431 1.01373 0
-0.0202584 1.01423 0
-0.0215637 1.01399 0
-0.0206737 1.01635 0
-0.0219971 1.01606 0
-0.0215637 1.01399 0
-0.0228428 1.01373 0
-0.0219971 1.01606 0
-0.0232924 1.01576 0
0 1.01852 0
-0.00155127 1.01851 0
0 1.02102 0
-0.00159329 1.02101 0
-0.00155127 1.01851 0
-0.00310006 1.01847 0
-0.00159329 1.02101 0
-0.00318385 1.02097 0
0 1.02102 0
-0.00159324 1.02101 0
0 1.0236 0
-0.00164221 1.02358 0
-0.00159324 1.02101 0
-0.00318375 1.02097 0
-0.00164221 1.02358 0
-0.00328136 1.02353 0
-0.00310006 1.01847 0
-0.00464395 1.01841 0
-0.00318385 1.02097 0
-0.00476896 1.0209 0
-0.00464395 1.01841 0
-0.00618051 1.01833 0
-0.00476896 1.0209 0
-0.00634598 1.0208 0
-0.00318375 1.02097 0
-0.00476882 1.0209 0
-0.00328136 1.02353 0
-0.00491443 1.02345 0
-0.00476882 1.0209 0
-0.00634579 1.0208 0
-0.00491443 1.02345 0
-0.00653845 1.02334 0
0 1.0236 0
-0.00164215 1.02358 0
0 1.02626 0
-0.00169889 1.02624 0
-0.00164215 1.02358 0
-0.00328124 1.02353 0
-0.00169889 1.02624 0
-0.00339432 1.02618 0
0 1.02626 0
-0.00169881 1.02624 0
0 1.02902 0
-0.00176434 1.02899 0
-0.00169881 1.02624 0
-0.00339417 1.02618 0
-0.00176434 1.02899 0
-0.00352474 1.02893 0
-0.00328124 1.02353 0
-0.00491425 1.02345 0
-0.00339432 1.02618 0
-0.00508288 1.02609 0
-0.00491425 1.02345 0
-0.00653822 1.02334 0
-0.00508288 1.02609 0
-0.00676123 1.02595 0
-0.00339417 1.02618 0
-0.00508266 1.02609 0
-0.00352474 1.02893 0
-0.00527729 1.02882 0
-0.00508266 1.02609 0
-0.00676095 1.02595 0
-0.00527729 1.02882 0
-0.0070182 1.02867 0
-0.00618051 1.01833 0
-0.00770739 1.01822 0
-0.00634598 1.0208 0
-0.00791231 1.02067 0
-0.00770739 1.01822 0
-0.00922232 1.01809 0
-0.00791231 1.02067 0
-0.00946544 1.02052 0
-0.00634579 1.0208 0
-0.00791208 1.02067 0
-0.00653845 1.02334 0
-0.00815054 1.02319 0
-0.00791208 1.02067 0
-0.00946517 1.02052 0
-0.00815054 1.02319 0
-0.00974792 1.02301 0
-0.00922232 1.01809 0
-0.0107231 1.01794 0
-0.00946544 1.02052 0
-0.011003 1.02034 0
-0.0107231 1.01794 0
-0.0122077 1.01776 0
-0.011003 1.02034 0
-0.0125227 1.02014 0
-0.00946517 1.02052 0
-0.0110027 1.02034 0
-0.00974792 1.02301 0
-0.0113279 1.02281 0
-0.0110027 1.02034 0
-0.0125223 1.02014 0
-0.0113279 1.02281 0
-0.0128881 1.02257 0
-0.00653822 1.02334 0
-0.00815025 1.02319 0
-0.00676123 1.02595 0
-0.00842612 1.02579 0
-0.00815025 1.02319 0
-0.00974759 1.02301 0
-0.00842612 1.02579 0
-0.0100745 1.02558 0
-0.00676095 1.02595 0
-0.00842578 1.02579 0
-0.0070182 1.02867 0
-0.00874378 1.02847 0
-0.00842578 1.02579 0
-0.0100741 1.02558 0
-0.00874378 1.02847 0
-0.0104505 1.02824 0
-0.00974759 1.02301 0
-0.0113276 1.02281 0
-0.0100745 1.02558 0
-0.0117033 1.02535 0
-0.0113276 1.02281 0
-0.0128877 1.02257 0
-0.0117033 1.02535 0
-0.0133099 1.02508 0
-0.0100741 1.02558 0
-0.0117028 1.02535 0
-0.0104505 1.02824 0
-0.0121352 1.02796 0
-0.0117028 1.02535 0
-0.0133094 1.02508 0
-0.0121352 1.02796 0
-0.0137946 1.02766 0
0 1.02902 0
-0.00176425 1.02899 0
0 1.03189 0
-0.00183982 1.03186 0
-0.00176425 1.02899 0
-0.00352455 1.02893 0
-0.00183982 1.03186 0
-0.00367509 1.03178 0
0 1.03189 0
-0.00183971 1.03186 0
0 1.03489 0
-0.00192688 1.03486 0
-0.00183971 1.03186 0
-0.00367486 1.03178 0
-0.00192688 1.03486 0
-0.00384845 1.03477 0
-0.00352455 1.02893 0
-0.00527702 1.02882 0
-0.00367509 1.03178 0
-0.00550131 1.03166 0
-0.00527702 1.02882 0
-0.00701784 1.02867 0
-0.00550131 1.03166 0
-0.00731411 1.03148 0
-0.00367486 1.03178 0
-0.00550097 1.03166 0
-0.00384845 1.03477 0
-0.00575946 1.03462 0
-0.00550097 1.03166 0
-0.00731367 1.03148 0
-0.00575946 1.03462 0
-0.00765485 1.03442 0
0 1.03489 0
-0.00192673 1.03486 0
0 1.03803 0
-0.00202745 1.038 0
-0.00192673 1.03486 0
-0.00384816 1.03477 0
-0.00202745 1.038 0
-0.00404864 1.0379 0
0 1.03803 0
-0.00202727 1.038 0
0 1.04136 0
-0.00214399 1.04132 0
-0.00202727 1.038 0
-0.00404827 1.0379 0
-0.00214399 1.04132 0
-0.00428049 1.0412 0
-0.00384816 1.03477 0
-0.00575904 1.03462 0
-0.00404864 1.0379 0
-0.00605738 1.03773 0
-0.00575904 1.03462 0
-0.0076543 1.03442 0
-0.00605738 1.03773 0
-0.00804771 1.0375 0
-0.00404827 1.0379 0
-0.00605685 1.03773 0
-0.00428049 1.0412 0
-0.00640214 1.041 0
-0.00605685 1.03773 0
-0.00804703 1.0375 0
-0.00640214 1.041 0
-0.00850187 1.04073 0
-0.00701784 1.02867 0
-0.00874335 1.02847 0
-0.00731411 1.03148 0
-0.00910927 1.03126 0
-0.00874335 1.02847 0
-0.01045 1.02824 0
-0.00910927 1.03126 0
-0.0108828 1.03099 0
-0.00731367 1.03148 0
-0.00910875 1.03126 0
-0.00765485 1.03442 0
-0.00952973 1.03416 0
-0.00910875 1.03126 0
-0.0108822 1.03099 0
-0.00952973 1.03416 0
-0.0113795 1.03385 0
-0.01045 1.02824 0
-0.0121346 1.02796 0
-0.0108828 1.03099 0
-0.012631 1.03068 0
-0.0121346 1.02796 0
-0.013794 1.02766 0
-0.012631 1.03068 0
-0.0143504 1.03032 0
-0.0108822 1.03099 0
-0.0126303 1.03068 0
-0.0113795 1.03385 0
-0.0132 1.03349 0
-0.0126303 1.03068 0
-0.0143497 1.03032 0
-0.0132 1.03349 0
-0.0149873 1.03309 0
-0.0076543 1.03442 0
-0.00952907 1.03416 0
-0.00804771 1.0375 0
-0.010014 1.0372 0
-0.00952907 1.03416 0
-0.0113788 1.03385 0
-0.010014 1.0372 0
-0.0119508 1.03684 0
-0.00804703 1.0375 0
-0.0100131 1.0372 0
-0.00850187 1.04073 0
-0.010573 1.04039 0
-0.0100131 1.0372 0
-0.0119499 1.03684 0
-0.010573 1.04039 0
-0.0126093 1.03998 0
-0.0113788 1.03385 0
-0.0131992 1.03349 0
-0.0119508 1.03684 0
-0.0138534 1.03643 0
-0.0131992 1.03349 0
-0.0149864 1.03309 0
-0.0138534 1.03643 0
-0.0157174 1.03596 0
-0.0119499 1.03684 0
-0.0138524 1.03643 0
-0.0126093 1.03998 0
-0.0146051 1.0395 0
-0.0138524 1.03643 0
-0.0157163 1.03596 0
-0.0146051 1.0395 0
-0.0165555 1.03896 0
-0.0122077 1.01776 0
-0.013674 1.01757 0
-0.0125227 1.02014 0
-0.0140224 1.01991 0
-0.013674 1.01757 0
-0.0151204 1.01736 0
-0.0140224 1.01991 0
-0.0155001 1.01967 0
-0.0125223 1.02014 0
-0.014022 1.01991 0
-0.0128881 1.02257 0
-0.0144262 1.02231 0
-0.014022 1.01991 0
-0.0154997 1.01967 0
-0.0144262 1.02231 0
-0.0159399 1.02203 0
-0.0151204 1.01736 0
-0.0165449 1.01713 0
-0.0155001 1.01967 0
-0.016954 1.0194 0
-0.0165449 1.01713 0
-0.0179462 1.01688 0
-0.016954 1.0194 0
-0.0183826 1.01911 0
-0.0154997 1.01967 0
-0.0169537 1.0194 0
-0.0159399 1.02203 0
-0.0174274 1.02172 0
-0.0169537 1.0194 0
-0.0183822 1.01911 0
-0.0174274 1.02172 0
-0.0188869 1.02139 0
-0.0128877 1.02257 0
-0.0144257 1.02231 0
-0.0133099 1.02508 0
-0.0148917 1.02478 0
-0.0144257 1.02231 0
-0.0159394 1.02203 0
-0.0148917 1.02478 0
-0.0164463 1.02445 0
-0.0133094 1.02508 0
-0.0148911 1.02478 0
-0.0137946 1.02766 0
-0.015426 1.02731 0
-0.0148911 1.02478 0
-0.0164458 1.02445 0
-0.015426 1.02731 0
-0.0170269 1.02694 0
-0.0159394 1.02203 0
-0.0174269 1.02172 0
-0.0164463 1.02445 0
-0.0179718 1.0241 0
-0.0174269 1.02172 0
-0.0188864 1.02139 0
-0.0179718 1.0241 0
-0.0194662 1.02372 0
-0.0164458 1.02445 0
-0.0179712 1.0241 0
-0.0170269 1.02694 0
-0.0185951 1.02653 0
-0.0179712 1.0241 0
-0.0194656 1.02372 0
-0.0185951 1.02653 0
-0.0201284 1.0261 0
-0.0179462 1.01688 0
-0.0193228 1.01662 0
-0.0183826 1.01911 0
-0.0197841 1.01881 0
-0.0193228 1.01662 0
-0.0206733 1.01635 0
-0.0197841 1.01881 0
-0.0211575 1.01849 0
-0.0183822 1.01911 0
-0.0197837 1.01881 0
-0.0188869 1.02139 0
-0.0203168 1.02104 0
-0.0197837 1.01881 0
-0.0211571 1.01849 0
-0.0203168 1.02104 0
-0.0217159 1.02067 0
-0.0206733 1.01635 0
-0.0219968 1.01606 0
-0.0211575 1.01849 0
-0.0225015 1.01816 0
-0.0219968 1.01606 0
-0.0232921 1.01576 0
-0.0225015 1.01816 0
-0.0238151 1.01781 0
-0.0211571 1.01849 0
-0.0225011 1.01816 0
-0.0217159 1.02067 0
-0.0230829 1.02029 0
-0.0225011 1.01816 0
-0.0238147 1.01781 0
-0.0230829 1.02029 0
-0.0244169 1.01989 0
-0.0188864 1.02139 0
-0.0203163 1.02104 0
-0.0194662 1.02372 0
-0.0209279 1.02332 0
-0.0203163 1.02104 0
-0.0217154 1.02067 0
-0.0209279 1.02332 0
-0.0223555 1.0229 0
-0.0194656 1.02372 0
-0.0209273 1.02332 0
-0.0201284 1.0261 0
-0.0216254 1.02564 0
-0.0209273 1.02332 0
-0.0223549 1.0229 0
-0.0216254 1.02564 0
-0.0230845 1.02516 0
-0.0217154 1.02067 0
-0.0230824 1.02029 0
-0.0223555 1.0229 0
-0.023748 1.02246 0
-0.0230824 1.02029 0
-0.0244164 1.01989 0
-0.023748 1.02246 0
-0.0251043 1.022 0
-0.0223549 1.0229 0
-0.0237474 1.02246 0
-0.0230845 1.02516 0
-0.0245047 1.02467 0
-0.0237474 1.02246 0
-0.0251037 1.022 0
-0.0245047 1.02467 0
-0.0258851 1.02415 0
-0.013794 1.02766 0
-0.0154254 1.02731 0
-0.0143504 1.03032 0
-0.0160379 1.02993 0
-0.0154254 1.02731 0
-0.0170263 1.02694 0
-0.0160379 1.02993 0
-0.0176908 1.0295 0
-0.0143497 1.03032 0
-0.0160372 1.02993 0
-0.0149873 1.03309 0
-0.0167379 1.03264 0
-0.0160372 1.02993 0
-0.01769 1.0295 0
-0.0167379 1.03264 0
-0.0184489 1.03215 0
-0.0170263 1.02694 0
-0.0185944 1.02653 0
-0.0176908 1.0295 0
-0.0193066 1.02904 0
-0.0185944 1.02653 0
-0.0201277 1.0261 0
-0.0193066 1.02904 0
-0.0208832 1.02854 0
-0.01769 1.0295 0
-0.0193057 1.02904 0
-0.0184489 1.03215 0
-0.0201175 1.03162 0
-0.0193057 1.02904 0
-0.0208823 1.02854 0
-0.0201175 1.03162 0
-0.0217417 1.03106 0
-0.0149864 1.03309 0
-0.016737 1.03264 0
-0.0157174 1.03596 0
-0.0175388 1.03545 0
-0.016737 1.03264 0
-0.0184479 1.03215 0
-0.0175388 1.03545 0
-0.0193144 1.03488 0
-0.0157163 1.03596 0
-0.0175377 1.03545 0
-0.0165555 1.03896 0
-0.0184562 1.03837 0
-0.0175377 1.03545 0
-0.0193132 1.03488 0
-0.0184562 1.03837 0
-0.0203035 1.03773 0
-0.0184479 1.03215 0
-0.0201165 1.03162 0
-0.0193144 1.03488 0
-0.0210414 1.03428 0
-0.0201165 1.03162 0
-0.0217407 1.03106 0
-0.0210414 1.03428 0
-0.0227176 1.03365 0
-0.0193132 1.03488 0
-0.0210402 1.03428 0
-0.0203035 1.03773 0
-0.0220945 1.03704 0
-0.0210402 1.03428 0
-0.0227164 1.03365 0
-0.0220945 1.03704 0
-0.023827 1.03631 0
-0.0201277 1.0261 0
-0.0216247 1.02564 0
-0.0208832 1.02854 0
-0.0224189 1.02803 0