# vtk DataFile Version 3.0
#This file was generated by the deal.II library on 2018/10/14 at 19:00:09
ASCII
DATASET UNSTRUCTURED_GRID

POINTS 20480 double
0 0 0
0.19635 0 0
0 0.310605 0
0.19635 0.310605 0
0.19635 0 0
0.392699 0 0
0.19635 0.310605 0
0.392699 0.310605 0
0 0.310605 0
0.19635 0.310605 0
0 0.623198 0
0.19635 0.623198 0
0.19635 0.310605 0
0.392699 0.310605 0
0.19635 0.623198 0
0.392699 0.623198 0
0.392699 0 0
0.589049 0 0
0.392699 0.310605 0
0.589049 0.310605 0
0.589049 0 0
0.785398 0 0
0.589049 0.310605 0
0.785398 0.310605 0
0.392699 0.310605 0
0.589049 0.310605 0
0.392699 0.623198 0
0.589049 0.623198 0
0.589049 0.310605 0
0.785398 0.310605 0
0.589049 0.623198 0
0.785398 0.623198 0
0 0.623198 0
0.19635 0.623198 0
0 0.935712 0
0.19635 0.935712 0
0.19635 0.623198 0
0.392699 0.623198 0
0.19635 0.935712 0
0.392699 0.935712 0
0 0.935712 0
0.19635 0.935712 0
0 1.24829 0
0.19635 1.24829 0
0.19635 0.935712 0
0.392699 0.935712 0
0.19635 1.24829 0
0.392699 1.24829 0
0.392699 0.623198 0
0.589049 0.623198 0
0.392699 0.935712 0
0.589049 0.935712 0
0.589049 0.623198 0
0.785398 0.623198 0
0.589049 0.935712 0
0.785398 0.935712 0
0.392699 0.935712 0
0.589049 0.935712 0
0.392699 1.24829 0
0.589049 1.24829 0
0.589049 0.935712 0
0.785398 0.935712 0
0.589049 1.24829 0
0.785398 1.24829 0
0.785398 0 0
0.981748 0 0
0.785398 0.310605 0
0.981748 0.310605 0
0.981748 0 0
1.1781 0 0
0.981748 0.310605 0
1.1781 0.310605 0
0.785398 0.310605 0
0.981748 0.310605 0
0.785398 0.623198 0
0.981748 0.623198 0
0.981748 0.310605 0
1.1781 0.310605 0
0.981748 0.623198 0
1.1781 0.623198 0
1.1781 0 0
1.37445 0 0
1.1781 0.310605 0
1.37445 0.310605 0
1.37445 0 0
1.5708 0 0
1.37445 0.310605 0
1.5708 0.310605 0
1.1781 0.310605 0
1.37445 0.310605 0
1.1781 0.623198 0
1.37445 0.623198 0
1.37445 0.310605 0
1.5708 0.310605 0
1.37445 0.623198 0
1.5708 0.623198 0
0.785398 0.623198 0
0.981748 0.623198 0
0.785398 0.935712 0
0.981748 0.935712 0
0.981748 0.623198 0
1.1781 0.623198 0
0.981748 0.935712 0
1.1781 0.935712 0
0.785398 0.935712 0
0.981748 0.935712 0
0.785398 1.24829 0
0.981748 1.24829 0
0.981748 0.935712 0
1.1781 0.935712 0
0.981748 1.24829 0
1.1781 1.24829 0
1.1781 0.623198 0
1.37445 0.623198 0
1.1781 0.935712 0
1.37445 0.935712 0
1.37445 0.623198 0
1.5708 0.623198 0
1.37445 0.935712 0
1.5708 0.935712 0
1.1781 0.935712 0
1.37445 0.935712 0
1.1781 1.24829 0
1.37445 1.24829 0
1.37445 0.935712 0
1.5708 0.935712 0
1.37445 1.24829 0
1.5708 1.24829 0
0 1.24829 0
0.19635 1.24829 0
0 1.56086 0
0.19635 1.56086 0
0.19635 1.24829 0
0.392699 1.24829 0
0.19635 1.56086 0
0.392699 1.56086 0
0 1.56086 0
0.19635 1.56086 0
0 1.87343 0
0.19635 1.87343 0
0.19635 1.56086 0
0.392699 1.56086 0
0.19635 1.87343 0
0.392699 1.87343 0
0.392699 1.24829 0
0.589049 1.24829 0
0.392699 1.56086 0
0.589049 1.56086 0
0.589049 1.24829 0
0.785398 1.24829 0
0.589049 1.56086 0
0.785398 1.56086 0
0.392699 1.56086 0
0.589049 1.56086 0
0.392699 1.87343 0
0.589049 1.87343 0
0.589049 1.56086 0
0.785398 1.56086 0
0.589049 1.87343 0
0.785398 1.87343 0
0 1.87343 0
0.19635 1.87343 0
0 2.186 0
0.19635 2.186 0
0.19635 1.87343 0
0.392699 1.87343 0
0.19635 2.186 0
0.392699 2.186 0
0 2.186 0
0.19635 2.186 0
0 2.49856 0
0.19635 2.49856 0
0.19635 2.186 0
0.392699 2.186 0
0.19635 2.49856 0
0.392699 2.49856 0
0.392699 1.87343 0
0.589049 1.87343 0
0.392699 2.186 0
0.589049 2.186 0
0.589049 1.87343 0
0.785398 1.87343 0
0.589049 2.186 0
0.785398 2.186 0
0.392699 2.186 0
0.589049 2.186 0
0.392699 2.49856 0
0.589049 2.49856 0
0.589049 2.186 0
0.785398 2.186 0
0.589049 2.49856 0
0.785398 2.49856 0
0.785398 1.24829 0
0.981748 1.24829 0
0.785398 1.56086 0
0.981748 1.56086 0
0.981748 1.24829 0
1.1781 1.24829 0
0.981748 1.56086 0
1.1781 1.56086 0
0.785398 1.56086 0
0.981748 1.56086 0
0.785398 1.87343 0
0.981748 1.87343 0
0.981748 1.56086 0
1.1781 1.56086 0
0.981748 1.87343 0
1.1781 1.87343 0
1.1781 1.24829 0
1.37445 1.24829 0
1.1781 1.56086 0
1.37445 1.56086 0
1.37445 1.24829 0
1.5708 1.24829 0
1.37445 1.56086 0
1.5708 1.56086 0
1.1781 1.56086 0
1.37445 1.56086 0
1.1781 1.87343 0
1.37445 1.87343 0
1.37445 1.56086 0
1.5708 1.56086 0
1.37445 1.87343 0
1.5708 1.87343 0
0.785398 1.87343 0
0.981748 1.87343 0
0.785398 2.186 0
0.981748 2.186 0
0.981748 1.87343 0
1.1781 1.87343 0
0.981748 2.186 0
1.1781 2.186 0
0.785398 2.186 0
0.981748 2.186 0
0.785398 2.49856 0
0.981748 2.49856 0
0.981748 2.186 0
1.1781 2.186 0
0.981748 2.49856 0
1.1781 2.49856 0
1.1781 1.87343 0
1.37445 1.87343 0
1.1781 2.186 0
1.37445 2.186 0
1.37445 1.87343 0
1.5708 1.87343 0
1.37445 2.186 0
1.5708 2.186 0
1.1781 2.186 0
1.37445 2.186 0
1.1781 2.49856 0
1.37445 2.49856 0
1.37445 2.186 0
1.5708 2.186 0
1.37445 2.49856 0
1.5708 2.49856 0
1.5708 0 0
1.76715 0 0
1.5708 0.310605 0
1.76715 0.310605 0
1.76715 0 0
1.9635 0 0
1.76715 0.310605 0
1.9635 0.310605 0
1.5708 0.310605 0
1.76715 0.310605 0
1.5708 0.623198 0
1.76715 0.623198 0
1.76715 0.310605 0
1.9635 0.310605 0
1.76715 0.623198 0
1.9635 0.623198 0
1.9635 0 0
2.15984 0 0
1.9635 0.310605 0
2.15984 0.310605 0
2.15984 0 0
2.35619 0 0
2.15984 0.310605 0
2.35619 0.310605 0
1.9635 0.310605 0
2.15984 0.310605 0
1.9635 0.623198 0
2.15984 0.623198 0
2.15984 0.310605 0
2.35619 0.310605 0
2.15984 0.623198 0
2.35619 0.623198 0
1.5708 0.623198 0
1.76715 0.623198 0
1.5708 0.935712 0
1.76715 0.935712 0
1.76715 0.623198 0
1.9635 0.623198 0
1.76715 0.935712 0
1.9635 0.935712 0
1.5708 0.935712 0
1.76715 0.935712 0
1.5708 1.24829 0
1.76715 1.24829 0
1.76715 0.935712 0
1.9635 0.935712 0
1.76715 1.24829 0
1.9635 1.24829 0
1.9635 0.623198 0
2.15984 0.623198 0
1.9635 0.935712 0
2.15984 0.935712 0
2.15984 0.623198 0
2.35619 0.623198 0
2.15984 0.935712 0
2.35619 0.935712 0
1.9635 0.935712 0
2.15984 0.935712 0
1.9635 1.24829 0
2.15984 1.24829 0
2.15984 0.935712 0
2.35619 0.935712 0
2.15984 1.24829 0
2.35619 1.24829 0
2.35619 0 0
2.55254 0 0
2.35619 0.310605 0
2.55254 0.310605 0
2.55254 0 0
2.74889 0 0
2.55254 0.310605 0
2.74889 0.310605 0
2.35619 0.310605 0
2.55254 0.310605 0
2.35619 0.623198 0
2.55254 0.623198 0
2.55254 0.310605 0
2.74889 0.310605 0
2.55254 0.623198 0
2.74889 0.623198 0
2.74889 0 0
2.94524 0 0
2.74889 0.310605 0
2.94524 0.310605 0
2.94524 0 0
3.14159 0 0
2.94524 0.310605 0
3.14159 0.310605 0
2.74889 0.310605 0
2.94524 0.310605 0
2.74889 0.623198 0
2.94524 0.623198 0
2.94524 0.310605 0
3.14159 0.310605 0
2.94524 0.623198 0
3.14159 0.623198 0
2.35619 0.623198 0
2.55254 0.623198 0
2.35619 0.935712 0
2.55254 0.935712 0
2.55254 0.623198 0
2.74889 0.623198 0
2.55254 0.935712 0
2.74889 0.935712 0
2.35619 0.935712 0
2.55254 0.935712 0
2.35619 1.24829 0
2.55254 1.24829 0
2.55254 0.935712 0
2.74889 0.935712 0
2.55254 1.24829 0
2.74889 1.24829 0
2.74889 0.623198 0
2.94524 0.623198 0
2.74889 0.935712 0
2.94524 0.935712 0
2.94524 0.623198 0
3.14159 0.623198 0
2.94524 0.935712 0
3.14159 0.935712 0
2.74889 0.935712 0
2.94524 0.935712 0
2.74889 1.24829 0
2.94524 1.24829 0
2.94524 0.935712 0
3.14159 0.935712 0
2.94524 1.24829 0
3.14159 1.24829 0
1.5708 1.24829 0
1.76715 1.24829 0
1.5708 1.56086 0
1.76715 1.56086 0
1.76715 1.24829 0
1.9635 1.24829 0
1.76715 1.56086 0
1.9635 1.56086 0
1.5708 1.56086 0
1.76715 1.56086 0
1.5708 1.87343 0
1.76715 1.87343 0
1.76715 1.56086 0
1.9635 1.56086 0
1.76715 1.87343 0
1.9635 1.87343 0
1.9635 1.24829 0
2.15984 1.24829 0
1.9635 1.56086 0
2.15984 1.56086 0
2.15984 1.24829 0
2.35619 1.24829 0
2.15984 1.56086 0
2.35619 1.56086 0
1.9635 1.56086 0
2.15984 1.56086 0
1.9635 1.87343 0
2.15984 1.87343 0
2.15984 1.56086 0
2.35619 1.56086 0
2.15984 1.87343 0
2.35619 1.87343 0
1.5708 1.87343 0
1.76715 1.87343 0
1.5708 2.186 0
1.76715 2.186 0
1.76715 1.87343 0
1.9635 1.87343 0
1.76715 2.186 0
1.9635 2.186 0
1.5708 2.186 0
1.76715 2.186 0
1.5708 2.49856 0
1.76715 2.49856 0
1.76715 2.186 0
1.9635 2.186 0
1.76715 2.49856 0
1.9635 2.49856 0
1.9635 1.87343 0
2.15984 1.87343 0
1.9635 2.186 0
2.15984 2.186 0
2.15984 1.87343 0
2.35619 1.87343 0
2.15984 2.186 0
2.35619 2.186 0
1.9635 2.186 0
2.15984 2.186 0
1.9635 2.49856 0
2.15984 2.49856 0
2.15984 2.186 0
2.35619 2.186 0
2.15984 2.49856 0
2.35619 2.49856 0
2.35619 1.24829 0
2.55254 1.24829 0
2.35619 1.56086 0
2.55254 1.56086 0
2.55254 1.24829 0
2.74889 1.24829 0
2.55254 1.56086 0
2.74889 1.56086 0
2.35619 1.56086 0
2.55254 1.56086 0
2.35619 1.87343 0
2.55254 1.87343 0
2.55254 1.56086 0
2.74889 1.56086 0
2.55254 1.87343 0
2.74889 1.87343 0
2.74889 1.24829 0
2.94524 1.24829 0
2.74889 1.56086 0
2.94524 1.56086 0
2.94524 1.24829 0
3.14159 1.24829 0
2.94524 1.56086 0
3.14159 1.56086 0
2.74889 1.56086 0
2.94524 1.56086 0
2.74889 1.87343 0
2.94524 1.87343 0
2.94524 1.56086 0
3.14159 1.56086 0
2.94524 1.87343 0
3.14159 1.87343 0
2.35619 1.87343 0
2.55254 1.87343 0
2.35619 2.186 0
2.55254 2.186 0
2.55254 1.87343 0
2.74889 1.87343 0
2.55254 2.186 0
2.74889 2.186 0
2.35619 2.186 0
2.55254 2.186 0
2.35619 2.49856 0
2.55254 2.49856 0
2.55254 2.186 0
2.74889 2.186 0
2.55254 2.49856 0
2.74889 2.49856 0
2.74889 1.87343 0
2.94524 1.87343 0
2.74889 2.186 0
2.94524 2.186 0
2.94524 1.87343 0
3.14159 1.87343 0
2.94524 2.186 0
3.14159 2.186 0
2.74889 2.186 0
2.94524 2.186 0
2.74889 2.49856 0
2.94524 2.49856 0
2.94524 2.186 0
3.14159 2.186 0
2.94524 2.49856 0
3.14159 2.49856 0
0 2.49856 0
0.19635 2.49856 0
0 2.81113 0
0.19635 2.81113 0
0.19635 2.49856 0
0.392699 2.49856 0
0.19635 2.81113 0
0.392699 2.81113 0
0 2.81113 0
0.19635 2.81113 0
0 3.12369 0
0.19635 3.12369 0
0.19635 2.81113 0
0.392699 2.81113 0
0.19635 3.12369 0
0.392699 3.12369 0
0.392699 2.49856 0
0.589049 2.49856 0
0.392699 2.81113 0
0.589049 2.81113 0
0.589049 2.49856 0
0.785398 2.49856 0
0.589049 2.81113 0
0.785398 2.81113 0
0.392699 2.81113 0
0.589049 2.81113 0
0.392699 3.12369 0
0.589049 3.12369 0
0.589049 2.81113 0
0.785398 2.81113 0
0.589049 3.12369 0
0.785398 3.12369 0
0 3.12369 0
0.19635 3.12369 0
0 3.43625 0
0.19635 3.43625 0
0.19635 3.12369 0
0.392699 3.12369 0
0.19635 3.43625 0
0.392699 3.43625 0
0 3.43625 0
0.19635 3.43625 0
0 3.74882 0
0.19635 3.74882 0
0.19635 3.43625 0
0.392699 3.43625 0
0.19635 3.74882 0
[...]
POINT_DATA 20480
VECTORS uf double
0 1 0
-2.61812e-14 1 0
0 1.00001 0
2.60764e-14 1.00001 0
-2.61812e-14 1 0
-1.96554e-14 1 0
2.60764e-14 1.00001 0
1.47358e-14 1.00001 0
0 1.00001 0
2.10837e-16 1.00001 0
0 1 0
1.58461e-15 1 0
2.10837e-16 1.00001 0
3.92442e-15 1.00001 0
1.58461e-15 1 0
3.57108e-15 1 0
-1.96554e-14 1 0
-3.138e-14 1 0
1.47358e-14 1.00001 0
4.00674e-14 1.00001 0
-3.138e-14 1 0
-2.08145e-14 1 0
4.00674e-14 1.00001 0
2.6933e-14 1.00001 0
3.92442e-15 1.00001 0
-2.78359e-14 1.00001 0
3.57108e-15 1 0
2.0834e-14 1 0
-2.78359e-14 1.00001 0
-2.43966e-14 1.00001 0
2.0834e-14 1 0
1.80453e-14 1 0
0 1 0
-1.03003e-14 1 0
0 1.00001 0
1.11166e-14 1.00001 0
-1.03003e-14 1 0
-1.22781e-14 1 0
1.11166e-14 1.00001 0
1.87008e-14 1.00001 0
0 1.00001 0
-1.2969e-14 1.00001 0
0 1 0
1.74917e-14 1 0
-1.2969e-14 1.00001 0
-6.12344e-14 1.00001 0
1.74917e-14 1 0
6.12671e-14 1 0
-1.22781e-14 1 0
-1.24535e-14 1 0
1.87008e-14 1.00001 0
2.05887e-14 1.00001 0
-1.24535e-14 1 0
-1.49407e-14 1 0
2.05887e-14 1.00001 0
2.19785e-14 1.00001 0
-6.12344e-14 1.00001 0
-3.31878e-14 1.00001 0
6.12671e-14 1 0
3.08035e-14 1 0
-3.31878e-14 1.00001 0
-3.55272e-14 1.00001 0
3.08035e-14 1 0
4.40777e-14 1 0
-2.08145e-14 1 0
-2.72425e-14 1 0
2.6933e-14 1.00001 0
2.79276e-14 1.00001 0
-2.72425e-14 1 0
-3.31958e-14 1 0
2.79276e-14 1.00001 0
4.57006e-14 1.00001 0
-2.43966e-14 1.00001 0
-3.0534e-14 1.00001 0
1.80453e-14 1 0
4.39465e-14 1 0
-3.0534e-14 1.00001 0
-3.45938e-14 1.00001 0
4.39465e-14 1 0
3.0875e-14 1 0
-3.31958e-14 1 0
-4.64698e-14 1 0
4.57006e-14 1.00001 0
5.86055e-14 1.00001 0
-4.64698e-14 1 0
-3.01595e-14 1 0
5.86055e-14 1.00001 0
3.03864e-14 1.00001 0
-3.45938e-14 1.00001 0
-4.07623e-14 1.00001 0
3.0875e-14 1 0
4.80384e-14 1 0
-4.07623e-14 1.00001 0
-1.15923e-14 1.00001 0
4.80384e-14 1 0
2.4916e-14 1 0
-1.49407e-14 1 0
-6.25038e-14 1 0
2.19785e-14 1.00001 0
6.00056e-14 1.00001 0
-6.25038e-14 1 0
-2.91694e-14 1 0
6.00056e-14 1.00001 0
2.41755e-14 1.00001 0
-3.55272e-14 1.00001 0
-4.54839e-14 1.00001 0
4.40777e-14 1 0
4.53618e-14 1 0
-4.54839e-14 1.00001 0
-4.07023e-14 1.00001 0
4.53618e-14 1 0
4.58899e-14 1 0
-2.91694e-14 1 0
-4.14032e-14 1 0
2.41755e-14 1.00001 0
2.72282e-14 1.00001 0
-4.14032e-14 1 0
-3.85894e-14 1 0
2.72282e-14 1.00001 0
3.49475e-14 1.00001 0
-4.07023e-14 1.00001 0
-2.17953e-14 1.00001 0
4.58899e-14 1 0
1.06762e-14 1 0
-2.17953e-14 1.00001 0
-2.90383e-14 1.00001 0
1.06762e-14 1 0
2.13307e-14 1 0
0 1 0
-2.76e-14 1 0
0 1 0
2.20873e-14 1 0
-2.76e-14 1 0
-2.08866e-14 1 0
2.20873e-14 1 0
1.45157e-14 1 0
0 1 0
8.20042e-15 1 0
0 1 0
-1.68903e-14 1 0
8.20042e-15 1 0
-2.65142e-14 1 0
-1.68903e-14 1 0
2.96421e-14 1 0
-2.08866e-14 1 0
-6.20217e-15 1 0
1.45157e-14 1 0
-6.86737e-17 1 0
-6.20217e-15 1 0
-6.00677e-14 1 0
-6.86737e-17 1 0
7.45659e-14 1 0
-2.65142e-14 1 0
-2.78984e-14 1 0
2.96421e-14 1 0
4.01956e-14 1 0
-2.78984e-14 1 0
-7.98205e-14 1 0
4.01956e-14 1 0
6.8111e-14 1 0
0 1 0
-6.68516e-15 1 0
0 1 0
2.3257e-14 1 0
-6.68516e-15 1 0
-1.58677e-14 1 0
2.3257e-14 1 0
9.16165e-15 1 0
0 1 0
-1.93955e-14 1 0
0 1 0
1.14244e-14 1 0
-1.93955e-14 1 0
-2.51643e-14 1 0
1.14244e-14 1 0
3.2642e-14 1 0
-1.58677e-14 1 0
-2.78873e-14 1 0
9.16165e-15 1 0
2.05609e-14 1 0
-2.78873e-14 1 0
-3.62117e-14 1 0
2.05609e-14 1 0
3.20455e-14 1 0
-2.51643e-14 1 0
-1.5014e-14 1 0
3.2642e-14 1 0
1.14417e-14 1 0
-1.5014e-14 1 0
-4.0411e-14 1 0
1.14417e-14 1 0
4.12986e-14 1 0
-6.00677e-14 1 0
-3.29325e-14 1 0
7.45659e-14 1 0
2.84969e-14 1 0
-3.29325e-14 1 0
-2.831e-14 1 0
2.84969e-14 1 0
3.43734e-14 1 0
-7.98205e-14 1 0
-3.47603e-14 1 0
6.8111e-14 1 0
3.73191e-14 1 0
-3.47603e-14 1 0
-5.25442e-14 1 0
3.73191e-14 1 0
5.03714e-14 1 0
-2.831e-14 1 0
-1.60755e-15 1 0
3.43734e-14 1 0
1.70216e-14 1 0
-1.60755e-15 1 0
-1.71145e-14 1 0
1.70216e-14 1 0
2.93e-14 1 0
-5.25442e-14 1 0
-1.49875e-14 1 0
5.03714e-14 1 0
7.89907e-15 1 0
-1.49875e-14 1 0
-3.02523e-14 1 0
7.89907e-15 1 0
2.70186e-14 1 0
-3.62117e-14 1 0
-2.42833e-14 1 0
3.20455e-14 1 0
2.91715e-14 1 0
-2.42833e-14 1 0
-3.10297e-14 1 0
2.91715e-14 1 0
3.42646e-14 1 0
-4.0411e-14 1 0
-5.6297e-14 1 0
4.12986e-14 1 0
6.80398e-14 1 0
-5.6297e-14 1 0
-4.8516e-14 1 0
6.80398e-14 1 0
5.92199e-14 1 0
-3.10297e-14 1 0
-7.75294e-15 1 0
3.42646e-14 1 0
2.04397e-14 1 0
-7.75294e-15 1 0
-3.0338e-14 1 0
2.04397e-14 1 0
3.84871e-14 1 0
-4.8516e-14 1 0
-2.75308e-14 1 0
5.92199e-14 1 0
3.70956e-14 1 0
-2.75308e-14 1 0
-3.02229e-14 1 0
3.70956e-14 1 0
3.30865e-14 1 0
-3.01595e-14 1 0
-6.0663e-14 1 0
3.03864e-14 1.00001 0
7.1412e-14 1.00001 0
-6.0663e-14 1 0
-3.59161e-14 1 0
7.1412e-14 1.00001 0
3.78055e-14 1.00001 0
-1.15923e-14 1.00001 0
-4.50633e-14 1.00001 0
2.4916e-14 1 0
5.88383e-14 1 0
-4.50633e-14 1.00001 0
-1.74948e-14 1.00001 0
5.88383e-14 1 0
2.20866e-14 1 0
-3.59161e-14 1 0
-2.46508e-14 1 0
3.78055e-14 1.00001 0
2.41936e-14 1.00001 0
-2.46508e-14 1 0
-1.9059e-14 1 0
2.41936e-14 1.00001 0
3.38333e-14 1.00001 0
-1.74948e-14 1.00001 0
-3.55408e-14 1.00001 0
2.20866e-14 1 0
4.31293e-14 1 0
-3.55408e-14 1.00001 0
-3.27117e-14 1.00001 0
4.31293e-14 1 0
1.34583e-14 1 0
-3.85894e-14 1 0
-6.03588e-14 1 0
3.49475e-14 1.00001 0
5.39233e-14 1.00001 0
-6.03588e-14 1 0
-2.34062e-14 1 0
5.39233e-14 1.00001 0
2.32203e-14 1.00001 0
-2.90383e-14 1.00001 0
-5.28957e-14 1.00001 0
2.13307e-14 1 0
5.20544e-14 1 0
-5.28957e-14 1.00001 0
-2.77181e-14 1.00001 0
5.20544e-14 1 0
2.95249e-14 1 0
-2.34062e-14 1 0
-1.9983e-14 1 0
2.32203e-14 1.00001 0
2.91041e-14 1.00001 0
-1.9983e-14 1 0
1.28507e-14 1 0
2.91041e-14 1.00001 0
-6.75815e-15 1.00001 0
-2.77181e-14 1.00001 0
-5.90132e-14 1.00001 0
2.95249e-14 1 0
5.42267e-14 1 0
-5.90132e-14 1.00001 0
-2.252e-14 1.00001 0
5.42267e-14 1 0
2.56142e-14 1 0
-1.9059e-14 1 0
-1.40818e-14 1 0
3.38333e-14 1.00001 0
1.85939e-14 1.00001 0
-1.40818e-14 1 0
-3.83273e-14 1 0
1.85939e-14 1.00001 0
5.16012e-14 1.00001 0
-3.27117e-14 1.00001 0
-1.43821e-15 1.00001 0
1.34583e-14 1 0
8.65e-15 1 0
-1.43821e-15 1.00001 0
-3.04058e-14 1.00001 0
8.65e-15 1 0
3.82158e-14 1 0
-3.83273e-14 1 0
-2.05256e-14 1 0
5.16012e-14 1.00001 0
3.10927e-14 1.00001 0
-2.05256e-14 1 0
-1.58319e-14 1 0
3.10927e-14 1.00001 0
3.06708e-14 1.00001 0
-3.04058e-14 1.00001 0
-2.7536e-14 1.00001 0
3.82158e-14 1 0
3.78077e-14 1 0
-2.7536e-14 1.00001 0
-5.95428e-14 1.00001 0
3.78077e-14 1 0
7.45479e-14 1 0
1.28507e-14 1 0
-2.1966e-14 1 0
-6.75815e-15 1.00001 0
1.29962e-14 1.00001 0
-2.1966e-14 1 0
-4.34596e-14 1 0
1.29962e-14 1.00001 0
4.52282e-14 1.00001 0
-2.252e-14 1.00001 0
5.85329e-15 1.00001 0
2.56142e-14 1 0
-1.14954e-14 1 0
5.85329e-15 1.00001 0
-4.54346e-14 1.00001 0
-1.14954e-14 1 0
3.41202e-14 1 0
-4.34596e-14 1 0
-5.03799e-14 1 0
4.52282e-14 1.00001 0
5.50501e-14 1.00001 0
-5.03799e-14 1 0
-5.46038e-14 1 0
5.50501e-14 1.00001 0
4.12023e-14 1.00001 0
-4.54346e-14 1.00001 0
-6.57431e-14 1.00001 0
3.41202e-14 1 0
6.62554e-14 1 0
-6.57431e-14 1.00001 0
-3.46921e-14 1.00001 0
6.62554e-14 1 0
3.73974e-14 1 0
-1.71145e-14 1 0
-4.42446e-14 1 0
2.93e-14 1 0
4.46521e-14 1 0
-4.42446e-14 1 0
-1.90438e-14 1 0
4.46521e-14 1 0
2.28289e-14 1 0
-3.02523e-14 1 0
-3.77015e-14 1 0
2.70186e-14 1 0
3.94886e-14 1 0
-3.77015e-14 1 0
-3.56531e-14 1 0
3.94886e-14 1 0
4.36882e-14 1 0
-1.90438e-14 1 0
-2.83969e-14 1 0
2.28289e-14 1 0
3.12589e-14 1 0
-2.83969e-14 1 0
-2.01714e-15 1 0
3.12589e-14 1 0
8.89501e-15 1 0
-3.56531e-14 1 0
-3.80657e-14 1 0
4.36882e-14 1 0
4.58553e-14 1 0
-3.80657e-14 1 0
-2.24143e-14 1 0
4.58553e-14 1 0
1.81528e-14 1 0
-3.0338e-14 1 0
-3.18148e-14 1 0
3.84871e-14 1 0
2.95712e-14 1 0
-3.18148e-14 1 0
-3.10174e-14 1 0
2.95712e-14 1 0
3.86867e-14 1 0
-3.02229e-14 1 0
-1.59087e-14 1 0
3.30865e-14 1 0
1.53094e-14 1 0
-1.59087e-14 1 0
-6.4327e-14 1 0
1.53094e-14 1 0
7.52697e-14 1 0
-3.10174e-14 1 0
-5.70616e-14 1 0
3.86867e-14 1 0
6.12159e-14 1 0
-5.70616e-14 1 0
-9.18241e-15 1 0
6.12159e-14 1 0
2.09288e-14 1 0
-6.4327e-14 1 0
-3.32593e-14 1 0
7.52697e-14 1 0
3.43813e-14 1 0
-3.32593e-14 1 0
-5.42658e-15 1 0
3.43813e-14 1 0
-9.45332e-18 1 0
-2.01714e-15 1 0
1.19533e-14 1 0
8.89501e-15 1 0
-4.73665e-15 1 0
1.19533e-14 1 0
-1.33119e-14 1 0
-4.73665e-15 1 0
1.09574e-14 1 0
-2.24143e-14 1 0
2.85392e-15 1 0
1.81528e-14 1 0
-2.62938e-15 1 0
2.85392e-15 1 0
-1.92131e-14 1 0
-2.62938e-15 1 0
2.80794e-14 1 0
-1.33119e-14 1 0
-4.24305e-14 1 0
1.09574e-14 1 0
2.84056e-14 1 0
-4.24305e-14 1 0
-3.62183e-14 1 0
2.84056e-14 1 0
3.42592e-14 1 0
-1.92131e-14 1 0
-2.98729e-14 1 0
2.80794e-14 1 0
3.79216e-14 1 0
-2.98729e-14 1 0
-3.45257e-14 1 0
3.79216e-14 1 0
4.03456e-14 1 0
-9.18241e-15 1 0
4.0023e-15 1 0
2.09288e-14 1 0
5.08762e-15 1 0
4.0023e-15 1 0
-8.9051e-15 1 0
5.08762e-15 1 0
8.78902e-15 1 0
-5.42658e-15 1 0
-7.22821e-15 1 0
-9.45332e-18 1 0
1.51552e-14 1 0
-7.22821e-15 1 0
-2.76507e-14 1 0
1.51552e-14 1 0
2.51633e-14 1 0
-8.9051e-15 1 0
-3.19442e-14 1 0
8.78902e-15 1 0
3.74417e-14 1 0
-3.19442e-14 1 0
-4.9311e-14 1 0
3.74417e-14 1 0
5.6355e-14 1 0
-2.76507e-14 1 0
-2.80542e-14 1 0
2.51633e-14 1 0
1.98633e-14 1 0
-2.80542e-14 1 0
-3.35357e-14 1 0
1.98633e-14 1 0
2.62677e-14 1 0
0 1 0
-1.21562e-14 1 0
0 1 0
2.14e-14 1 0
-1.21562e-14 1 0
-2.69504e-14 1 0
2.14e-14 1 0
3.27208e-14 1 0
0 1 0
-2.51133e-14 1 0
0 1 0
1.81113e-14 1 0
-2.51133e-14 1 0
-3.84713e-14 1 0
1.81113e-14 1 0
2.10081e-14 1 0
-2.69504e-14 1 0
-1.59481e-15 1 0
3.27208e-14 1 0
2.18389e-16 1 0
-1.59481e-15 1 0
-3.1272e-14 1 0
2.18389e-16 1 0
2.38222e-14 1 0
-3.84713e-14 1 0
-1.6914e-14 1 0
2.10081e-14 1 0
1.98884e-14 1 0
-1.6914e-14 1 0
-2.29129e-14 1 0
1.98884e-14 1 0
1.88791e-14 1 0
0 1 0
-1.20528e-14 1 0
0 1 0
7.46923e-15 1 0
-1.20528e-14 1 0
2.48017e-15 1 0
7.46923e-15 1 0
-3.14222e-15 1 0
0 1 0
-1.71126e-14 1 0
0 1 0
2.11248e-14 1 0
-1.71126e-14 1 0
1.81189e-16 1 0
2.11248e-14 1 0
1.04281e-14 1 0
2.48017e-15 1 0
-8.88704e-15 1 0
-3.14222e-15 1 0
1.32624e-14 1 0
-8.88704e-15 1 0
-1.42706e-14 1 0
1.32624e-14 1 0
1.424e-14 1 0
1.81189e-16 1 0
-1.88967e-14 1 0
1.04281e-14 1 0
2.14611e-14 1 0
-1.88967e-14 1 0
-2.10732e-14 1 0
2.14611e-14 1 0
2.61916e-14 1 0
-3.1272e-14 1 0
-4.64756e-14 1 0
2.38222e-14 1 0
3.42781e-14 1 0
-4.64756e-14 1 0
-5.49853e-14 1 0
3.42781e-14 1 0
4.28186e-14 1 0
-2.29129e-14 1 0
-4.3982e-14 1 0
1.88791e-14 1 0
4.9549e-14 1 0
-4.3982e-14 1 0
-2.69822e-14 1 0
4.9549e-14 1 0
2.81363e-14 1 0
-5.49853e-14 1 0
-4.04605e-14 1 0
4.28186e-14 1 0
2.50653e-14 1 0
-4.04605e-14 1 0
-5.74756e-14 1 0
2.50653e-14 1 0
6.088e-14 1 0
-2.69822e-14 1 0
-1.23613e-14 1 0
2.81363e-14 1 0
1.83254e-14 1 0
-1.23613e-14 1 0
-3.56534e-14 1 0
1.83254e-14 1 0
3.10655e-14 1 0
-1.42706e-14 1 0
-5.54038e-14 1 0
1.424e-14 1 0
5.13799e-14 1 0
-5.54038e-14 1 0
-4.71046e-14 1 0
5.13799e-14 1 0
5.00743e-14 1 0
-2.10732e-14 1 0
-2.29362e-14 1 0
2.61916e-14 1 0
2.09562e-14 1 0
-2.29362e-14 1 0
-4.87329e-15 1 0
2.09562e-14 1 0
-1.43453e-14 1 0
-4.71046e-14 1 0
-1.29482e-14 1 0
5.00743e-14 1 0
1.55251e-14 1 0
-1.29482e-14 1 0
-2.55438e-14 1 0
1.55251e-14 1 0
2.92689e-14 1 0
-4.87329e-15 1 0
-4.62161e-14 1 0
-1.43453e-14 1 0
4.73361e-14 1 0
-4.62161e-14 1 0
-5.18515e-14 1 0
4.73361e-14 1 0
5.28259e-14 1 0
0 1 0
-2.01716e-14 1 0
0 1 0
2.1651e-14 1 0
-2.01716e-14 1 0
-1.84737e-14 1 0
2.1651e-14 1 0
1.94307e-14 1 0
0 1 0
-3.63391e-15 1 0
0 1 0
1.85054e-16 1 0
-3.63391e-15 1 0
-1.14365e-14 1 0
1.85054e-16 1 0
2.29103e-15 1 0
-1.84737e-14 1 0
-1.60817e-14 1 0
1.94307e-14 1 0
1.2888e-14 1 0
-1.60817e-14 1 0
-2.67551e-14 1 0
1.2888e-14 1 0
3.38816e-14 1 0
-1.14365e-14 1 0
-4.6974e-15 1 0
2.29103e-15 1 0
5.99967e-15 1 0
-4.6974e-15 1 0
-4.57763e-14 1 0
5.99967e-15 1 0
4.51662e-14 1 0
0 1 0
-1.17499e-14 1 0
0 1 0
1.34709e-14 1 0
-1.17499e-14 1 0
-1.93896e-14 1 0
1.34709e-14 1 0
1.39902e-14 1 0
0 1 0
-1.93809e-14 1 0
0 1 0
1.01653e-14 1 0
-1.93809e-14 1 0
-1.73029e-14 1 0
1.01653e-14 1 0
1.60898e-14 1 0
-1.93896e-14 1 0
-2.77135e-14 1 0
1.39902e-14 1 0
1.86785e-14 1 0
-2.77135e-14 1 0
-3.58949e-14 1 0
1.86785e-14 1 0
1.85136e-14 1 0
-1.73029e-14 1 0
-2.70827e-14 1 0
1.60898e-14 1 0
3.60587e-14 1 0
-2.70827e-14 1 0
-1.9152e-14 1 0
3.60587e-14 1 0
1.72021e-14 1 0
-2.67551e-14 1 0
-5.80103e-14 1 0
3.38816e-14 1 0
5.35946e-14 1 0
-5.80103e-14 1 0
1.87033e-15 1 0
5.35946e-14 1 0
1.11096e-14 1 0
-4.57763e-14 1 0
-4.5003e-14 1 0
4.51662e-14 1 0
4.21243e-14 1 0
-4.5003e-14 1 0
-3.53503e-14 1 0
4.21243e-14 1 0
3.83982e-14 1 0
1.87033e-15 1 0
-2.3499e-14 1 0
1.11096e-14 1 0
1.495e-14 1 0
-2.3499e-14 1 0
-5.43244e-14 1 0
1.495e-14 1 0
5.7315e-14 1 0
-3.53503e-14 1 0
-2.02466e-14 1 0
3.83982e-14 1 0
4.36344e-15 1 0
-2.02466e-14 1 0
-5.24558e-14 1 0
4.36344e-15 1 0
4.36595e-14 1 0
-3.58949e-14 1 0
-4.69442e-14 1 0
1.85136e-14 1 0
2.54571e-14 1 0
-4.69442e-14 1 0
-3.19487e-14 1 0
2.54571e-14 1 0
2.55152e-14 1 0
-1.9152e-14 1 0
-1.92337e-14 1 0
1.72021e-14 1 0
2.66243e-14 1 0
-1.92337e-14 1 0
-1.43096e-14 1 0
2.66243e-14 1 0
1.52404e-14 1 0
-3.19487e-14 1 0
-1.41936e-14 1 0
2.55152e-14 1 0
3.66714e-14 1 0
-1.41936e-14 1 0
-5.4889e-14 1 0
3.66714e-14 1 0
5.66299e-14 1 0
-1.43096e-14 1 0
-4.0368e-14 1 0
1.52404e-14 1 0
2.63094e-14 1 0
-4.0368e-14 1 0
-5.60867e-14 1 0
2.63094e-14 1 0
3.75464e-14 1 0
-5.74756e-14 1 0
-2.31888e-14 1 0
6.088e-14 1 0
2.57449e-14 1 0
-2.31888e-14 1 0
-7.4205e-14 1 0
2.57449e-14 1 0
6.33857e-14 1 0
-3.56534e-14 1 0
-3.27871e-14 1 0
3.10655e-14 1 0
3.57697e-14 1 0
-3.27871e-14 1 0
-1.26993e-14 1 0
3.57697e-14 1 0
-1.88018e-15 1 0
-7.4205e-14 1 0
-4.72267e-14 1 0
6.33857e-14 1 0
4.339e-14 1 0
-4.72267e-14 1 0
-3.01361e-14 1 0
4.339e-14 1 0
3.93466e-14 1 0
-1.26993e-14 1 0
-1.68742e-14 1 0
-1.88018e-15 1 0
1.73681e-14 1 0
-1.68742e-14 1 0
-2.95551e-14 1 0
1.73681e-14 1 0
3.53967e-14 1 0
-2.55438e-14 1 0
-2.70545e-14 1 0
2.92689e-14 1 0
3.25876e-14 1 0
-2.70545e-14 1 0
-2.75272e-15 1 0
3.25876e-14 1 0
5.6567e-15 1 0
-5.18515e-14 1 0
-4.35985e-14 1 0
5.28259e-14 1 0
4.44823e-14 1 0
-4.35985e-14 1 0
-2.04367e-14 1 0
4.44823e-14 1 0
3.63933e-14 1 0
-2.75272e-15 1 0
-2.51176e-14 1 0
5.6567e-15 1 0
2.19528e-14 1 0
-2.51176e-14 1 0
-4.8463e-14 1 0
2.19528e-14 1 0
4.80139e-14 1 0
-2.04367e-14 1 0
-2.00237e-14 1 0
3.63933e-14 1 0
2.30565e-14 1 0
-2.00237e-14 1 0
-2.96882e-14 1 0
2.30565e-14 1 0
3.42569e-14 1 0
-3.01361e-14 1 0
-2.33882e-14 1 0
3.93466e-14 1 0
2.27196e-14 1 0
-2.33882e-14 1 0
2.63333e-15 1 0
2.27196e-14 1 0
-1.40708e-14 1 0
-2.95551e-14 1 0
-1.49626e-14 1 0
3.53967e-14 1 0
1.15162e-14 1 0
-1.49626e-14 1 0
2.1249e-14 1 0
1.15162e-14 1 0
-1.85134e-14 1 0
2.63333e-15 1 0
-1.48071e-14 1 0
-1.40708e-14 1 0
2.22463e-14 1 0
-1.48071e-14 1 0
-1.73563e-14 1 0
2.22463e-14 1 0
1.89509e-14 1 0
2.1249e-14 1 0
-1.24436e-14 1 0
-1.85134e-14 1 0
9.23834e-15 1 0
-1.24436e-14 1 0
1.46191e-15 1 0
9.23834e-15 1 0
-1.03939e-14 1 0
-4.8463e-14 1 0
1.2673e-14 1 0
4.80139e-14 1 0
-2.3235e-14 1 0
1.2673e-14 1 0
1.11693e-14 1 0
-2.3235e-14 1 0
4.21423e-18 1 0
-2.96882e-14 1 0
1.45619e-14 1 0
3.42569e-14 1 0
-3.77298e-15 1 0
1.45619e-14 1 0
-3.16121e-15 1 0
-3.77298e-15 1 0
1.33578e-15 1 0
1.11693e-14 1 0
-1.20186e-14 1 0
4.21423e-18 1 0
1.56982e-14 1 0
-1.20186e-14 1 0
1.95568e-14 1 0
1.56982e-14 1 0
-8.08629e-15 1 0
-3.16121e-15 1 0
-1.85227e-14 1 0
1.33578e-15 1 0
2.46786e-14 1 0
-1.85227e-14 1 0
-1.20175e-14 1 0
2.46786e-14 1 0
1.19509e-14 1 0
-5.43244e-14 1 0
-4.69478e-14 1 0
5.7315e-14 1 0
4.58802e-14 1 0
-4.69478e-14 1 0
-5.18297e-14 1 0
4.58802e-14 1 0
3.84767e-14 1 0
-5.24558e-14 1 0
-5.00663e-14 1 0
4.36595e-14 1 0
3.7682e-14 1 0
-5.00663e-14 1 0
-4.57613e-14 1 0
3.7682e-14 1 0
3.70727e-14 1 0
-5.18297e-14 1 0
-1.42502e-14 1 0
3.84767e-14 1 0
1.30496e-14 1 0
-1.42502e-14 1 0
-4.2635e-14 1 0
1.30496e-14 1 0
3.32559e-14 1 0
-4.57613e-14 1 0
-3.63109e-14 1 0
3.70727e-14 1 0
3.42103e-14 1 0
-3.63109e-14 1 0
-3.12451e-14 1 0
3.42103e-14 1 0
2.07068e-14 1 0
-5.4889e-14 1 0
-5.52514e-14 1 0
5.66299e-14 1 0
4.50152e-14 1 0
-5.52514e-14 1 0
-4.91527e-14 1 0
4.50152e-14 1 0
3.35526e-14 1 0
-5.60867e-14 1 0
-5.08393e-14 1 0
3.75464e-14 1 0
3.18382e-14 1 0
-5.08393e-14 1 0
-2.785e-14 1 0
3.18382e-14 1 0
1.08326e-14 1 0
-4.91527e-14 1 0
-2.84758e-14 1 0
3.35526e-14 1 0
2.60506e-14 1 0
-2.84758e-14 1 0
-1.26492e-14 1 0
2.60506e-14 1 0
1.93805e-14 1 0
-2.785e-14 1 0
-2.0884e-14 1 0
1.08326e-14 1 0
2.64682e-14 1 0
-2.0884e-14 1 0
-2.18152e-14 1 0
2.64682e-14 1 0
2.49342e-14 1 0
-4.2635e-14 1 0
-2.85587e-14 1 0
3.32559e-14 1 0
3.59771e-14 1 0
-2.85587e-14 1 0
-1.76805e-14 1 0
3.59771e-14 1 0
1.96825e-14 1 0
-3.12451e-14 1 0
-1.86116e-14 1 0
2.07068e-14 1 0
1.44468e-14 1 0
-1.86116e-14 1 0
-2.24788e-14 1 0
1.44468e-14 1 0
3.06733e-14 1 0
-1.76805e-14 1 0
-3.5565e-14 1 0
1.96825e-14 1 0
2.84819e-14 1 0
-3.5565e-14 1 0
-2.27031e-14 1 0
2.84819e-14 1 0
2.65653e-14 1 0
-2.24788e-14 1 0
-1.42003e-14 1 0
3.06733e-14 1 0
1.34738e-14 1 0
-1.42003e-14 1 0
-3.01423e-14 1 0
1.34738e-14 1 0
3.07887e-14 1 0
-1.26492e-14 1 0
-1.82829e-14 1 0
1.93805e-14 1 0
1.81273e-14 1 0
-1.82829e-14 1 0
-2.55539e-14 1 0
1.81273e-14 1 0
1.74671e-14 1 0
-2.18152e-14 1 0
-2.48874e-14 1 0
2.49342e-14 1 0
3.23702e-14 1 0
-2.48874e-14 1 0
-1.32119e-14 1 0
3.23702e-14 1 0
1.94158e-14 1 0
-2.55539e-14 1 0
-3.33293e-14 1 0
1.74671e-14 1 0
4.16931e-14 1 0
-3.33293e-14 1 0
-3.61037e-14 1 0
4.16931e-14 1 0
3.15958e-14 1 0
-1.32119e-14 1 0
-1.66299e-14 1 0
1.94158e-14 1 0
1.31549e-14 1 0
-1.66299e-14 1 0
3.0073e-15 1 0
1.31549e-14 1 0
4.69561e-15 1 0
-1.58319e-14 1 0
-2.94335e-14 1 0
3.06708e-14 1.00001 0
4.2264e-14 1.00001 0
-2.94335e-14 1 0
-3.76891e-14 1 0
4.2264e-14 1.00001 0
4.35471e-14 1.00001 0
-5.95428e-14 1.00001 0
-4.91238e-14 1.00001 0
7.45479e-14 1 0
5.78503e-14 1 0
-4.91238e-14 1.00001 0
-8.05172e-16 1.00001 0
5.78503e-14 1 0
1.08523e-14 1 0
-3.76891e-14 1 0
-3.74026e-14 1 0
4.35471e-14 1.00001 0
3.29753e-14 1.00001 0
-3.74026e-14 1 0
-3.82322e-14 1 0
3.29753e-14 1.00001 0
5.07446e-14 1.00001 0
-8.05172e-16 1.00001 0
3.12523e-14 1.00001 0
1.08523e-14 1 0
-2.9109e-14 1 0
3.12523e-14 1.00001 0
-2.09857e-14 1.00001 0
-2.9109e-14 1 0
2.57001e-14 1 0
-5.46038e-14 1 0
-2.23751e-14 1 0
4.12023e-14 1.00001 0
1.70929e-14 1.00001 0
-2.23751e-14 1 0
-2.91057e-14 1 0
1.70929e-14 1.00001 0
4.25914e-14 1.00001 0
-3.46921e-14 1.00001 0
-1.88826e-14 1.00001 0
3.73974e-14 1 0
1.91133e-14 1 0
-1.88826e-14 1.00001 0
-6.32687e-14 1.00001 0
1.91133e-14 1 0
5.53394e-14 1 0
-2.91057e-14 1 0
1.14496e-14 1 0
4.25914e-14 1.00001 0
4.08935e-15 1.00001 0
1.14496e-14 1 0
-2.23794e-14 1 0
4.08935e-15 1.00001 0
2.20734e-14 1.00001 0
-6.32687e-14 1.00001 0
-2.76297e-14 1.00001 0
5.53394e-14 1 0
3.33978e-14 1 0
-2.76297e-14 1.00001 0
-2.28891e-14 1.00001 0
3.33978e-14 1 0
1.26102e-14 1 0
-3.82322e-14 1 0
-1.96544e-14 1 0
5.07446e-14 1.00001 0
2.93394e-14 1.00001 0
-1.96544e-14 1 0
-6.52275e-15 1 0
2.93394e-14 1.00001 0
2.19427e-14 1.00001 0
-2.09857e-14 1.00001 0
-2.09229e-14 1.00001 0
2.57001e-14 1 0
2.64722e-14 1 0
-2.09229e-14 1.00001 0
-5.50975e-14 1.00001 0
2.64722e-14 1 0
7.12087e-14 1 0
-6.52275e-15 1 0
-1.3341e-14 1 0
2.19427e-14 1.00001 0
2.65816e-14 1.00001 0
-1.3341e-14 1 0
-3.28768e-15 1 0
2.65816e-14 1.00001 0
1.20775e-14 1.00001 0
-5.50975e-14 1.00001 0
-4.22165e-14 1.00001 0
7.12087e-14 1 0
5.83177e-14 1 0
-4.22165e-14 1.00001 0
-2.40796e-14 1.00001 0
5.83177e-14 1 0
3.13148e-14 1 0
-2.23794e-14 1 0
-2.50136e-14 1 0
2.20734e-14 1.00001 0
2.79112e-14 1.00001 0
-2.50136e-14 1 0
-5.65614e-14 1 0
2.79112e-14 1.00001 0
4.78103e-14 1.00001 0
-2.28891e-14 1.00001 0
-3.23495e-14 1.00001 0
1.26102e-14 1 0
3.10484e-14 1 0
-3.23495e-14 1.00001 0
-2.33005e-14 1.00001 0
3.10484e-14 1 0
2.35919e-14 1 0
-5.65614e-14 1 0
-4.90305e-14 1 0
4.78103e-14 1.00001 0
3.92754e-14 1.00001 0
-4.90305e-14 1 0
-2.98286e-14 1 0
3.92754e-14 1.00001 0
5.08857e-14 1.00001 0
-2.33005e-14 1.00001 0
-1.92834e-14 1.00001 0
2.35919e-14 1 0
1.46831e-14 1 0
-1.92834e-14 1.00001 0
-8.94706e-14 1.00001 0
1.46831e-14 1 0
7.03801e-14 1 0
-3.62183e-14 1 0
-1.25506e-14 1 0
3.42592e-14 1 0
3.39433e-15 1 0
-1.25506e-14 1 0
-3.17138e-14 1 0
3.39433e-15 1 0
2.9578e-14 1 0
-3.45257e-14 1 0
1.95613e-15 1 0
4.03456e-14 1 0
-4.09831e-15 1 0
1.95613e-15 1 0
-3.5898e-14 1 0
-4.09831e-15 1 0
4.07714e-14 1 0
-3.17138e-14 1 0
-3.0254e-14 1 0