# vtk DataFile Version 3.0
#This file was generated by the deal.II library on 2018/10/14 at 18:47:22
ASCII
DATASET UNSTRUCTURED_GRID

POINTS 20480 double
0 0 0
0.19635 0 0
0 0.310867 0
0.19635 0.310867 0
0.19635 0 0
0.392699 0 0
0.19635 0.310867 0
0.392699 0.310867 0
0 0.310867 0
0.19635 0.310867 0
0 0.623447 0
0.19635 0.623447 0
0.19635 0.310867 0
0.392699 0.310867 0
0.19635 0.623447 0
0.392699 0.623447 0
0.392699 0 0
0.589049 0 0
0.392699 0.310867 0
0.589049 0.310867 0
0.589049 0 0
0.785398 0 0
0.589049 0.310867 0
0.785398 0.310867 0
0.392699 0.310867 0
0.589049 0.310867 0
0.392699 0.623447 0
0.589049 0.623447 0
0.589049 0.310867 0
0.785398 0.310867 0
0.589049 0.623447 0
0.785398 0.623447 0
0 0.623447 0
0.19635 0.623447 0
0 0.93596 0
0.19635 0.93596 0
0.19635 0.623447 0
0.392699 0.623447 0
0.19635 0.93596 0
0.392699 0.93596 0
0 0.93596 0
0.19635 0.93596 0
0 1.24853 0
0.19635 1.24853 0
0.19635 0.93596 0
0.392699 0.93596 0
0.19635 1.24853 0
0.392699 1.24853 0
0.392699 0.623447 0
0.589049 0.623447 0
0.392699 0.93596 0
0.589049 0.93596 0
0.589049 0.623447 0
0.785398 0.623447 0
0.589049 0.93596 0
0.785398 0.93596 0
0.392699 0.93596 0
0.589049 0.93596 0
0.392699 1.24853 0
0.589049 1.24853 0
0.589049 0.93596 0
0.785398 0.93596 0
0.589049 1.24853 0
0.785398 1.24853 0
0.785398 0 0
0.981748 0 0
0.785398 0.310867 0
0.981748 0.310867 0
0.981748 0 0
1.1781 0 0
0.981748 0.310867 0
1.1781 0.310867 0
0.785398 0.310867 0
0.981748 0.310867 0
0.785398 0.623447 0
0.981748 0.623447 0
0.981748 0.310867 0
1.1781 0.310867 0
0.981748 0.623447 0
1.1781 0.623447 0
1.1781 0 0
1.37445 0 0
1.1781 0.310867 0
1.37445 0.310867 0
1.37445 0 0
1.5708 0 0
1.37445 0.310867 0
1.5708 0.310867 0
1.1781 0.310867 0
1.37445 0.310867 0
1.1781 0.623447 0
1.37445 0.623447 0
1.37445 0.310867 0
1.5708 0.310867 0
1.37445 0.623447 0
1.5708 0.623447 0
0.785398 0.623447 0
0.981748 0.623447 0
0.785398 0.93596 0
0.981748 0.93596 0
0.981748 0.623447 0
1.1781 0.623447 0
0.981748 0.93596 0
1.1781 0.93596 0
0.785398 0.93596 0
0.981748 0.93596 0
0.785398 1.24853 0
0.981748 1.24853 0
0.981748 0.93596 0
1.1781 0.93596 0
0.981748 1.24853 0
1.1781 1.24853 0
1.1781 0.623447 0
1.37445 0.623447 0
1.1781 0.93596 0
1.37445 0.93596 0
1.37445 0.623447 0
1.5708 0.623447 0
1.37445 0.93596 0
1.5708 0.93596 0
1.1781 0.93596 0
1.37445 0.93596 0
1.1781 1.24853 0
1.37445 1.24853 0
1.37445 0.93596 0
1.5708 0.93596 0
1.37445 1.24853 0
1.5708 1.24853 0
0 1.24853 0
0.19635 1.24853 0
0 1.56109 0
0.19635 1.56109 0
0.19635 1.24853 0
0.392699 1.24853 0
0.19635 1.56109 0
0.392699 1.56109 0
0 1.56109 0
0.19635 1.56109 0
0 1.87365 0
0.19635 1.87365 0
0.19635 1.56109 0
0.392699 1.56109 0
0.19635 1.87365 0
0.392699 1.87365 0
0.392699 1.24853 0
0.589049 1.24853 0
0.392699 1.56109 0
0.589049 1.56109 0
0.589049 1.24853 0
0.785398 1.24853 0
0.589049 1.56109 0
0.785398 1.56109 0
0.392699 1.56109 0
0.589049 1.56109 0
0.392699 1.87365 0
0.589049 1.87365 0
0.589049 1.56109 0
0.785398 1.56109 0
0.589049 1.87365 0
0.785398 1.87365 0
0 1.87365 0
0.19635 1.87365 0
0 2.1862 0
0.19635 2.1862 0
0.19635 1.87365 0
0.392699 1.87365 0
0.19635 2.1862 0
0.392699 2.1862 0
0 2.1862 0
0.19635 2.1862 0
0 2.49876 0
0.19635 2.49876 0
0.19635 2.1862 0
0.392699 2.1862 0
0.19635 2.49876 0
0.392699 2.49876 0
0.392699 1.87365 0
0.589049 1.87365 0
0.392699 2.1862 0
0.589049 2.1862 0
0.589049 1.87365 0
0.785398 1.87365 0
0.589049 2.1862 0
0.785398 2.1862 0
0.392699 2.1862 0
0.589049 2.1862 0
0.392699 2.49876 0
0.589049 2.49876 0
0.589049 2.1862 0
0.785398 2.1862 0
0.589049 2.49876 0
0.785398 2.49876 0
0.785398 1.24853 0
0.981748 1.24853 0
0.785398 1.56109 0
0.981748 1.56109 0
0.981748 1.24853 0
1.1781 1.24853 0
0.981748 1.56109 0
1.1781 1.56109 0
0.785398 1.56109 0
0.981748 1.56109 0
0.785398 1.87365 0
0.981748 1.87365 0
0.981748 1.56109 0
1.1781 1.56109 0
0.981748 1.87365 0
1.1781 1.87365 0
1.1781 1.24853 0
1.37445 1.24853 0
1.1781 1.56109 0
1.37445 1.56109 0
1.37445 1.24853 0
1.5708 1.24853 0
1.37445 1.56109 0
1.5708 1.56109 0
1.1781 1.56109 0
1.37445 1.56109 0
1.1781 1.87365 0
1.37445 1.87365 0
1.37445 1.56109 0
1.5708 1.56109 0
1.37445 1.87365 0
1.5708 1.87365 0
0.785398 1.87365 0
0.981748 1.87365 0
0.785398 2.1862 0
0.981748 2.1862 0
0.981748 1.87365 0
1.1781 1.87365 0
0.981748 2.1862 0
1.1781 2.1862 0
0.785398 2.1862 0
0.981748 2.1862 0
0.785398 2.49876 0
0.981748 2.49876 0
0.981748 2.1862 0
1.1781 2.1862 0
0.981748 2.49876 0
1.1781 2.49876 0
1.1781 1.87365 0
1.37445 1.87365 0
1.1781 2.1862 0
1.37445 2.1862 0
1.37445 1.87365 0
1.5708 1.87365 0
1.37445 2.1862 0
1.5708 2.1862 0
1.1781 2.1862 0
1.37445 2.1862 0
1.1781 2.49876 0
1.37445 2.49876 0
1.37445 2.1862 0
1.5708 2.1862 0
1.37445 2.49876 0
1.5708 2.49876 0
1.5708 0 0
1.76715 0 0
1.5708 0.310867 0
1.76715 0.310867 0
1.76715 0 0
1.9635 0 0
1.76715 0.310867 0
1.9635 0.310867 0
1.5708 0.310867 0
1.76715 0.310867 0
1.5708 0.623447 0
1.76715 0.623447 0
1.76715 0.310867 0
1.9635 0.310867 0
1.76715 0.623447 0
1.9635 0.623447 0
1.9635 0 0
2.15984 0 0
1.9635 0.310867 0
2.15984 0.310867 0
2.15984 0 0
2.35619 0 0
2.15984 0.310867 0
2.35619 0.310867 0
1.9635 0.310867 0
2.15984 0.310867 0
1.9635 0.623447 0
2.15984 0.623447 0
2.15984 0.310867 0
2.35619 0.310867 0
2.15984 0.623447 0
2.35619 0.623447 0
1.5708 0.623447 0
1.76715 0.623447 0
1.5708 0.93596 0
1.76715 0.93596 0
1.76715 0.623447 0
1.9635 0.623447 0
1.76715 0.93596 0
1.9635 0.93596 0
1.5708 0.93596 0
1.76715 0.93596 0
1.5708 1.24853 0
1.76715 1.24853 0
1.76715 0.93596 0
1.9635 0.93596 0
1.76715 1.24853 0
1.9635 1.24853 0
1.9635 0.623447 0
2.15984 0.623447 0
1.9635 0.93596 0
2.15984 0.93596 0
2.15984 0.623447 0
2.35619 0.623447 0
2.15984 0.93596 0
2.35619 0.93596 0
1.9635 0.93596 0
2.15984 0.93596 0
1.9635 1.24853 0
2.15984 1.24853 0
2.15984 0.93596 0
2.35619 0.93596 0
2.15984 1.24853 0
2.35619 1.24853 0
2.35619 0 0
2.55254 0 0
2.35619 0.310867 0
2.55254 0.310867 0
2.55254 0 0
2.74889 0 0
2.55254 0.310867 0
2.74889 0.310867 0
2.35619 0.310867 0
2.55254 0.310867 0
2.35619 0.623447 0
2.55254 0.623447 0
2.55254 0.310867 0
2.74889 0.310867 0
2.55254 0.623447 0
2.74889 0.623447 0
2.74889 0 0
2.94524 0 0
2.74889 0.310867 0
2.94524 0.310867 0
2.94524 0 0
3.14159 0 0
2.94524 0.310867 0
3.14159 0.310867 0
2.74889 0.310867 0
2.94524 0.310867 0
2.74889 0.623447 0
2.94524 0.623447 0
2.94524 0.310867 0
3.14159 0.310867 0
2.94524 0.623447 0
3.14159 0.623447 0
2.35619 0.623447 0
2.55254 0.623447 0
2.35619 0.93596 0
2.55254 0.93596 0
2.55254 0.623447 0
2.74889 0.623447 0
2.55254 0.93596 0
2.74889 0.93596 0
2.35619 0.93596 0
2.55254 0.93596 0
2.35619 1.24853 0
2.55254 1.24853 0
2.55254 0.93596 0
2.74889 0.93596 0
2.55254 1.24853 0
2.74889 1.24853 0
2.74889 0.623447 0
2.94524 0.623447 0
2.74889 0.93596 0
2.94524 0.93596 0
2.94524 0.623447 0
3.14159 0.623447 0
2.94524 0.93596 0
3.14159 0.93596 0
2.74889 0.93596 0
2.94524 0.93596 0
2.74889 1.24853 0
2.94524 1.24853 0
2.94524 0.93596 0
3.14159 0.93596 0
2.94524 1.24853 0
3.14159 1.24853 0
1.5708 1.24853 0
1.76715 1.24853 0
1.5708 1.56109 0
1.76715 1.56109 0
1.76715 1.24853 0
1.9635 1.24853 0
1.76715 1.56109 0
1.9635 1.56109 0
1.5708 1.56109 0
1.76715 1.56109 0
1.5708 1.87365 0
1.76715 1.87365 0
1.76715 1.56109 0
1.9635 1.56109 0
1.76715 1.87365 0
1.9635 1.87365 0
1.9635 1.24853 0
2.15984 1.24853 0
1.9635 1.56109 0
2.15984 1.56109 0
2.15984 1.24853 0
2.35619 1.24853 0
2.15984 1.56109 0
2.35619 1.56109 0
1.9635 1.56109 0
2.15984 1.56109 0
1.9635 1.87365 0
2.15984 1.87365 0
2.15984 1.56109 0
2.35619 1.56109 0
2.15984 1.87365 0
2.35619 1.87365 0
1.5708 1.87365 0
1.76715 1.87365 0
1.5708 2.1862 0
1.76715 2.1862 0
1.76715 1.87365 0
1.9635 1.87365 0
1.76715 2.1862 0
1.9635 2.1862 0
1.5708 2.1862 0
1.76715 2.1862 0
1.5708 2.49876 0
1.76715 2.49876 0
1.76715 2.1862 0
1.9635 2.1862 0
1.76715 2.49876 0
1.9635 2.49876 0
1.9635 1.87365 0
2.15984 1.87365 0
1.9635 2.1862 0
2.15984 2.1862 0
2.15984 1.87365 0
2.35619 1.87365 0
2.15984 2.1862 0
2.35619 2.1862 0
1.9635 2.1862 0
2.15984 2.1862 0
1.9635 2.49876 0
2.15984 2.49876 0
2.15984 2.1862 0
2.35619 2.1862 0
2.15984 2.49876 0
2.35619 2.49876 0
2.35619 1.24853 0
2.55254 1.24853 0
2.35619 1.56109 0
2.55254 1.56109 0
2.55254 1.24853 0
2.74889 1.24853 0
2.55254 1.56109 0
2.74889 1.56109 0
2.35619 1.56109 0
2.55254 1.56109 0
2.35619 1.87365 0
2.55254 1.87365 0
2.55254 1.56109 0
2.74889 1.56109 0
2.55254 1.87365 0
2.74889 1.87365 0
2.74889 1.24853 0
2.94524 1.24853 0
2.74889 1.56109 0
2.94524 1.56109 0
2.94524 1.24853 0
3.14159 1.24853 0
2.94524 1.56109 0
3.14159 1.56109 0
2.74889 1.56109 0
2.94524 1.56109 0
2.74889 1.87365 0
2.94524 1.87365 0
2.94524 1.56109 0
3.14159 1.56109 0
2.94524 1.87365 0
3.14159 1.87365 0
2.35619 1.87365 0
2.55254 1.87365 0
2.35619 2.1862 0
2.55254 2.1862 0
2.55254 1.87365 0
2.74889 1.87365 0
2.55254 2.1862 0
2.74889 2.1862 0
2.35619 2.1862 0
2.55254 2.1862 0
2.35619 2.49876 0
2.55254 2.49876 0
2.55254 2.1862 0
2.74889 2.1862 0
2.55254 2.49876 0
2.74889 2.49876 0
2.74889 1.87365 0
2.94524 1.87365 0
2.74889 2.1862 0
2.94524 2.1862 0
2.94524 1.87365 0
3.14159 1.87365 0
2.94524 2.1862 0
3.14159 2.1862 0
2.74889 2.1862 0
2.94524 2.1862 0
2.74889 2.49876 0
2.94524 2.49876 0
2.94524 2.1862 0
3.14159 2.1862 0
2.94524 2.49876 0
3.14159 2.49876 0
0 2.49876 0
0.19635 2.49876 0
0 2.81132 0
0.19635 2.81132 0
0.19635 2.49876 0
0.392699 2.49876 0
0.19635 2.81132 0
0.392699 2.81132 0
0 2.81132 0
0.19635 2.81132 0
0 3.12387 0
0.19635 3.12387 0
0.19635 2.81132 0
0.392699 2.81132 0
0.19635 3.12387 0
0.392699 3.12387 0
0.392699 2.49876 0
0.589049 2.49876 0
0.392699 2.81132 0
0.589049 2.81132 0
0.589049 2.49876 0
0.785398 2.49876 0
0.589049 2.81132 0
0.785398 2.81132 0
0.392699 2.81132 0
0.589049 2.81132 0
0.392699 3.12387 0
0.589049 3.12387 0
0.589049 2.81132 0
0.785398 2.81132 0
0.589049 3.12387 0
0.785398 3.12387 0
0 3.12387 0
0.19635 3.12387 0
0 3.43643 0
0.19635 3.43643 0
0.19635 3.12387 0
0.392699 3.12387 0
0.19635 3.43643 0
0.392699 3.43643 0
0 3.43643 0
0.19635 3.43643 0
0 3.74898 0
0.19635 3.74898 0
0.19635 3.43643 0
0.392699 3.43643 0
0.19635 3.74898 0
[...]
POINT_DATA 20480
VECTORS uf double
0 1 0
-2.7673e-14 1 0
0 1.00001 0
3.14743e-14 1.00001 0
-2.7673e-14 1 0
-2.14816e-14 1 0
3.14743e-14 1.00001 0
2.24805e-14 1.00001 0
0 1.00001 0
-7.31016e-16 1.00001 0
0 1 0
-8.37516e-15 1 0
-7.31016e-16 1.00001 0
-2.28107e-15 1.00001 0
-8.37516e-15 1 0
1.76967e-15 1 0
-2.14816e-14 1 0
-2.57372e-14 1 0
2.24805e-14 1.00001 0
3.98236e-14 1.00001 0
-2.57372e-14 1 0
-1.92303e-14 1 0
3.98236e-14 1.00001 0
1.84471e-14 1.00001 0
-2.28107e-15 1.00001 0
-3.76163e-14 1.00001 0
1.76967e-15 1 0
3.0375e-14 1 0
-3.76163e-14 1.00001 0
-1.75077e-14 1.00001 0
3.0375e-14 1 0
2.57899e-14 1 0
0 1 0
-2.31503e-15 1 0
0 1.00001 0
8.80206e-15 1.00001 0
-2.31503e-15 1 0
-1.17769e-14 1 0
8.80206e-15 1.00001 0
2.24971e-14 1.00001 0
0 1.00001 0
-1.53819e-14 1.00001 0
0 1 0
2.20243e-14 1 0
-1.53819e-14 1.00001 0
-6.74265e-14 1.00001 0
2.20243e-14 1 0
7.14132e-14 1 0
-1.17769e-14 1 0
-2.83726e-14 1 0
2.24971e-14 1.00001 0
3.97438e-14 1.00001 0
-2.83726e-14 1 0
-2.91827e-14 1 0
3.97438e-14 1.00001 0
3.91905e-14 1.00001 0
-6.74265e-14 1.00001 0
-4.3728e-14 1.00001 0
7.14132e-14 1 0
3.07459e-14 1 0
-4.3728e-14 1.00001 0
-4.65542e-14 1.00001 0
3.07459e-14 1 0
5.12369e-14 1 0
-1.92303e-14 1 0
-3.51504e-14 1 0
1.84471e-14 1.00001 0
4.34685e-14 1.00001 0
-3.51504e-14 1 0
-4.70455e-14 1 0
4.34685e-14 1.00001 0
6.10665e-14 1.00001 0
-1.75077e-14 1.00001 0
-4.21164e-14 1.00001 0
2.57899e-14 1 0
4.86838e-14 1 0
-4.21164e-14 1.00001 0
-3.96823e-14 1.00001 0
4.86838e-14 1 0
4.00382e-14 1 0
-4.70455e-14 1 0
-5.52165e-14 1 0
6.10665e-14 1.00001 0
6.28344e-14 1.00001 0
-5.52165e-14 1 0
-3.75715e-14 1 0
6.28344e-14 1.00001 0
3.52358e-14 1.00001 0
-3.96823e-14 1.00001 0
-3.95385e-14 1.00001 0
4.00382e-14 1 0
5.10771e-14 1 0
-3.95385e-14 1.00001 0
-6.70853e-15 1.00001 0
5.10771e-14 1 0
1.29667e-14 1 0
-2.91827e-14 1 0
-5.15129e-14 1 0
3.91905e-14 1.00001 0
4.83847e-14 1.00001 0
-5.15129e-14 1 0
-3.3092e-14 1 0
4.83847e-14 1.00001 0
3.33286e-14 1.00001 0
-4.65542e-14 1.00001 0
-3.19574e-14 1.00001 0
5.12369e-14 1 0
3.30142e-14 1 0
-3.19574e-14 1.00001 0
-5.07874e-14 1.00001 0
3.30142e-14 1 0
6.20066e-14 1 0
-3.3092e-14 1 0
-3.59644e-14 1 0
3.33286e-14 1.00001 0
2.24434e-14 1.00001 0
-3.59644e-14 1 0
-3.38277e-14 1 0
2.24434e-14 1.00001 0
4.18413e-14 1.00001 0
-5.07874e-14 1.00001 0
-1.10848e-14 1.00001 0
6.20066e-14 1 0
1.49833e-14 1 0
-1.10848e-14 1.00001 0
-2.03069e-14 1.00001 0
1.49833e-14 1 0
2.26778e-14 1 0
0 1 0
-3.05944e-14 1 0
0 1 0
2.29299e-14 1 0
-3.05944e-14 1 0
-2.72007e-14 1 0
2.29299e-14 1 0
1.4845e-14 1 0
0 1 0
1.32781e-14 1 0
0 1 0
-1.87192e-14 1 0
1.32781e-14 1 0
-2.52425e-14 1 0
-1.87192e-14 1 0
3.50761e-14 1 0
-2.72007e-14 1 0
6.47561e-16 1 0
1.4845e-14 1 0
3.35815e-15 1 0
6.47561e-16 1 0
-6.07213e-14 1 0
3.35815e-15 1 0
6.71303e-14 1 0
-2.52425e-14 1 0
-3.17977e-14 1 0
3.50761e-14 1 0
3.92364e-14 1 0
-3.17977e-14 1 0
-7.94157e-14 1 0
3.92364e-14 1 0
7.63487e-14 1 0
0 1 0
-1.32491e-14 1 0
0 1 0
2.57519e-14 1 0
-1.32491e-14 1 0
-2.5918e-14 1 0
2.57519e-14 1 0
1.89656e-14 1 0
0 1 0
-2.39001e-14 1 0
0 1 0
2.61103e-14 1 0
-2.39001e-14 1 0
-3.40767e-14 1 0
2.61103e-14 1 0
3.97034e-14 1 0
-2.5918e-14 1 0
-3.63191e-14 1 0
1.89656e-14 1 0
3.31453e-14 1 0
-3.63191e-14 1 0
-4.58959e-14 1 0
3.31453e-14 1 0
3.06758e-14 1 0
-3.40767e-14 1 0
-2.57234e-14 1 0
3.97034e-14 1 0
1.50308e-14 1 0
-2.57234e-14 1 0
-3.2326e-14 1 0
1.50308e-14 1 0
3.4182e-14 1 0
-6.07213e-14 1 0
-3.01075e-14 1 0
6.71303e-14 1 0
3.95575e-14 1 0
-3.01075e-14 1 0
-4.03956e-14 1 0
3.95575e-14 1 0
4.16319e-14 1 0
-7.94157e-14 1 0
-4.68817e-14 1 0
7.63487e-14 1 0
3.87898e-14 1 0
-4.68817e-14 1 0
-6.13438e-14 1 0
3.87898e-14 1 0
5.11674e-14 1 0
-4.03956e-14 1 0
-1.39531e-14 1 0
4.16319e-14 1 0
2.20526e-14 1 0
-1.39531e-14 1 0
-1.89576e-14 1 0
2.20526e-14 1 0
1.88973e-14 1 0
-6.13438e-14 1 0
-1.48215e-14 1 0
5.11674e-14 1 0
4.10439e-15 1 0
-1.48215e-14 1 0
-2.47911e-14 1 0
4.10439e-15 1 0
1.91141e-14 1 0
-4.58959e-14 1 0
-2.85508e-14 1 0
3.06758e-14 1 0
3.37012e-14 1 0
-2.85508e-14 1 0
-3.38702e-14 1 0
3.37012e-14 1 0
3.98798e-14 1 0
-3.2326e-14 1 0
-7.09214e-14 1 0
3.4182e-14 1 0
7.30492e-14 1 0
-7.09214e-14 1 0
-5.4362e-14 1 0
7.30492e-14 1 0
5.92138e-14 1 0
-3.38702e-14 1 0
-1.26969e-14 1 0
3.98798e-14 1 0
1.91717e-14 1 0
-1.26969e-14 1 0
-1.66921e-14 1 0
1.91717e-14 1 0
2.53991e-14 1 0
-5.4362e-14 1 0
-2.73219e-14 1 0
5.92138e-14 1 0
3.8169e-14 1 0
-2.73219e-14 1 0
-3.50521e-14 1 0
3.8169e-14 1 0
3.99734e-14 1 0
-3.75715e-14 1 0
-5.8044e-14 1 0
3.52358e-14 1.00001 0
7.67068e-14 1.00001 0
-5.8044e-14 1 0
-3.95407e-14 1 0
7.67068e-14 1.00001 0
5.50375e-14 1.00001 0
-6.70853e-15 1.00001 0
-5.23645e-14 1.00001 0
1.29667e-14 1 0
5.37476e-14 1 0
-5.23645e-14 1.00001 0
-3.79719e-14 1.00001 0
5.37476e-14 1 0
3.45118e-14 1 0
-3.95407e-14 1 0
-1.8058e-14 1 0
5.50375e-14 1.00001 0
2.64454e-14 1.00001 0
-1.8058e-14 1 0
-1.7578e-14 1 0
2.64454e-14 1.00001 0
3.04613e-14 1.00001 0
-3.79719e-14 1.00001 0
-3.52463e-14 1.00001 0
3.45118e-14 1 0
3.4078e-14 1 0
-3.52463e-14 1.00001 0
-2.81397e-14 1.00001 0
3.4078e-14 1 0
1.1108e-14 1 0
-3.38277e-14 1 0
-5.76411e-14 1 0
4.18413e-14 1.00001 0
5.37285e-14 1.00001 0
-5.76411e-14 1 0
-2.76223e-14 1 0
5.37285e-14 1.00001 0
2.88285e-14 1.00001 0
-2.03069e-14 1.00001 0
-4.65126e-14 1.00001 0
2.26778e-14 1 0
5.36772e-14 1 0
-4.65126e-14 1.00001 0
-3.15134e-14 1.00001 0
5.36772e-14 1 0
3.508e-14 1 0
-2.76223e-14 1 0
-1.04403e-14 1 0
2.88285e-14 1.00001 0
2.41828e-14 1.00001 0
-1.04403e-14 1 0
1.76602e-14 1 0
2.41828e-14 1.00001 0
-1.90075e-14 1.00001 0
-3.15134e-14 1.00001 0
-5.27341e-14 1.00001 0
3.508e-14 1 0
4.90053e-14 1 0
-5.27341e-14 1.00001 0
1.00757e-14 1.00001 0
4.90053e-14 1 0
-4.01388e-15 1 0
-1.7578e-14 1 0
-2.13269e-14 1 0
3.04613e-14 1.00001 0
3.20182e-14 1.00001 0
-2.13269e-14 1 0
-4.83782e-14 1 0
3.20182e-14 1.00001 0
6.49327e-14 1.00001 0
-2.81397e-14 1.00001 0
-6.08743e-15 1.00001 0
1.1108e-14 1 0
-3.35899e-15 1 0
-6.08743e-15 1.00001 0
-3.956e-14 1.00001 0
-3.35899e-15 1 0
3.71558e-14 1 0
-4.83782e-14 1 0
-1.91169e-14 1 0
6.49327e-14 1.00001 0
3.2037e-14 1.00001 0
-1.91169e-14 1 0
-1.71844e-14 1 0
3.2037e-14 1.00001 0
3.42726e-14 1.00001 0
-3.956e-14 1.00001 0
-4.96546e-14 1.00001 0
3.71558e-14 1 0
5.47763e-14 1 0
-4.96546e-14 1.00001 0
-7.53776e-14 1.00001 0
5.47763e-14 1 0
8.79167e-14 1 0
1.76602e-14 1 0
-6.82365e-15 1 0
-1.90075e-14 1.00001 0
9.50199e-15 1.00001 0
-6.82365e-15 1 0
-3.4657e-14 1 0
9.50199e-15 1.00001 0
4.20077e-14 1.00001 0
1.00757e-14 1.00001 0
1.50729e-14 1.00001 0
-4.01388e-15 1 0
-1.76464e-14 1 0
1.50729e-14 1.00001 0
-4.26147e-14 1.00001 0
-1.76464e-14 1 0
4.45448e-14 1 0
-3.4657e-14 1 0
-4.40193e-14 1 0
4.20077e-14 1.00001 0
4.97551e-14 1.00001 0
-4.40193e-14 1 0
-5.85279e-14 1 0
4.97551e-14 1.00001 0
4.21238e-14 1.00001 0
-4.26147e-14 1.00001 0
-6.0786e-14 1.00001 0
4.45448e-14 1 0
7.51674e-14 1 0
-6.0786e-14 1.00001 0
-1.62215e-14 1.00001 0
7.51674e-14 1 0
3.4654e-14 1 0
-1.89576e-14 1 0
-4.19057e-14 1 0
1.88973e-14 1 0
4.23535e-14 1 0
-4.19057e-14 1 0
-2.29156e-14 1 0
4.23535e-14 1 0
3.40797e-14 1 0
-2.47911e-14 1 0
-4.20366e-14 1 0
1.91141e-14 1 0
4.02646e-14 1 0
-4.20366e-14 1 0
-5.52653e-14 1 0
4.02646e-14 1 0
5.95813e-14 1 0
-2.29156e-14 1 0
-2.89277e-14 1 0
3.40797e-14 1 0
4.10114e-14 1 0
-2.89277e-14 1 0
7.92994e-15 1 0
4.10114e-14 1 0
1.03797e-14 1 0
-5.52653e-14 1 0
-4.48688e-14 1 0
5.95813e-14 1 0
3.69867e-14 1 0
-4.48688e-14 1 0
-2.03214e-14 1 0
3.69867e-14 1 0
2.22501e-14 1 0
-1.66921e-14 1 0
-3.57593e-14 1 0
2.53991e-14 1 0
3.15252e-14 1 0
-3.57593e-14 1 0
-5.80945e-14 1 0
3.15252e-14 1 0
5.5507e-14 1 0
-3.50521e-14 1 0
-3.36752e-14 1 0
3.99734e-14 1 0
4.26727e-14 1 0
-3.36752e-14 1 0
-6.96344e-14 1 0
4.26727e-14 1 0
7.67942e-14 1 0
-5.80945e-14 1 0
-5.7167e-14 1 0
5.5507e-14 1 0
6.40954e-14 1 0
-5.7167e-14 1 0
-2.13661e-14 1 0
6.40954e-14 1 0
1.59837e-14 1 0
-6.96344e-14 1 0
-3.66697e-14 1 0
7.67942e-14 1 0
2.98363e-14 1 0
-3.66697e-14 1 0
-2.5232e-15 1 0
2.98363e-14 1 0
6.74712e-15 1 0
7.92994e-15 1 0
6.37708e-15 1 0
1.03797e-14 1 0
3.54725e-15 1 0
6.37708e-15 1 0
-2.10617e-14 1 0
3.54725e-15 1 0
1.11637e-14 1 0
-2.03214e-14 1 0
5.79929e-15 1 0
2.22501e-14 1 0
-2.22039e-15 1 0
5.79929e-15 1 0
-1.95352e-14 1 0
-2.22039e-15 1 0
2.4285e-14 1 0
-2.10617e-14 1 0
-5.11435e-14 1 0
1.11637e-14 1 0
2.83945e-14 1 0
-5.11435e-14 1 0
-3.90366e-14 1 0
2.83945e-14 1 0
3.08924e-14 1 0
-1.95352e-14 1 0
-3.00498e-14 1 0
2.4285e-14 1 0
3.50327e-14 1 0
-3.00498e-14 1 0
-3.56886e-14 1 0
3.50327e-14 1 0
3.62605e-14 1 0
-2.13661e-14 1 0
-1.73581e-15 1 0
1.59837e-14 1 0
9.72933e-15 1 0
-1.73581e-15 1 0
-1.98991e-15 1 0
9.72933e-15 1 0
8.53782e-15 1 0
-2.5232e-15 1 0
-2.82325e-14 1 0
6.74712e-15 1 0
2.68858e-14 1 0
-2.82325e-14 1 0
-3.86996e-14 1 0
2.68858e-14 1 0
2.84056e-14 1 0
-1.98991e-15 1 0
-3.16608e-14 1 0
8.53782e-15 1 0
3.61571e-14 1 0
-3.16608e-14 1 0
-4.95547e-14 1 0
3.61571e-14 1 0
5.85917e-14 1 0
-3.86996e-14 1 0
-2.86027e-14 1 0
2.84056e-14 1 0
2.81842e-14 1 0
-2.86027e-14 1 0
-3.81747e-14 1 0
2.81842e-14 1 0
3.52007e-14 1 0
0 1 0
-2.96611e-14 1 0
0 1 0
3.67694e-14 1 0
-2.96611e-14 1 0
-3.29307e-14 1 0
3.67694e-14 1 0
3.99763e-14 1 0
0 1 0
-3.71798e-14 1 0
0 1 0
2.18415e-14 1 0
-3.71798e-14 1 0
-4.17714e-14 1 0
2.18415e-14 1 0
1.5151e-14 1 0
-3.29307e-14 1 0
-6.52601e-15 1 0
3.99763e-14 1 0
1.1022e-14 1 0
-6.52601e-15 1 0
-2.6458e-14 1 0
1.1022e-14 1 0
2.46586e-14 1 0
-4.17714e-14 1 0
-1.85019e-14 1 0
1.5151e-14 1 0
1.26888e-14 1 0
-1.85019e-14 1 0
-2.35607e-14 1 0
1.26888e-14 1 0
1.92197e-14 1 0
0 1 0
-3.72193e-15 1 0
0 1 0
-2.30203e-16 1 0
-3.72193e-15 1 0
1.07422e-14 1 0
-2.30203e-16 1 0
-1.119e-14 1 0
0 1 0
-1.12607e-14 1 0
0 1 0
2.20425e-14 1 0
-1.12607e-14 1 0
-2.47998e-15 1 0
2.20425e-14 1 0
1.39229e-14 1 0
1.07422e-14 1 0
-6.5975e-15 1 0
-1.119e-14 1 0
2.10205e-14 1 0
-6.5975e-15 1 0
-1.75139e-14 1 0
2.10205e-14 1 0
1.32991e-14 1 0
-2.47998e-15 1 0
-2.94026e-14 1 0
1.39229e-14 1 0
2.51538e-14 1 0
-2.94026e-14 1 0
-2.28716e-14 1 0
2.51538e-14 1 0
3.92844e-14 1 0
-2.6458e-14 1 0
-4.20108e-14 1 0
2.46586e-14 1 0
4.47196e-14 1 0
-4.20108e-14 1 0
-6.05087e-14 1 0
4.47196e-14 1 0
5.33173e-14 1 0
-2.35607e-14 1 0
-5.97372e-14 1 0
1.92197e-14 1 0
6.31119e-14 1 0
-5.97372e-14 1 0
-2.85762e-14 1 0
6.31119e-14 1 0
3.44511e-14 1 0
-6.05087e-14 1 0
-4.75315e-14 1 0
5.33173e-14 1 0
3.61911e-14 1 0
-4.75315e-14 1 0
-5.39022e-14 1 0
3.61911e-14 1 0
6.09051e-14 1 0
-2.85762e-14 1 0
-1.54889e-14 1 0
3.44511e-14 1 0
2.13753e-14 1 0
-1.54889e-14 1 0
-4.23231e-14 1 0
2.13753e-14 1 0
3.76332e-14 1 0
-1.75139e-14 1 0
-6.41239e-14 1 0
1.32991e-14 1 0
5.08861e-14 1 0
-6.41239e-14 1 0
-6.27082e-14 1 0
5.08861e-14 1 0
5.55463e-14 1 0
-2.28716e-14 1 0
-1.83372e-14 1 0
3.92844e-14 1 0
1.81818e-14 1 0
-1.83372e-14 1 0
-9.61253e-15 1 0
1.81818e-14 1 0
-7.8589e-15 1 0
-6.27082e-14 1 0
-1.62131e-14 1 0
5.55463e-14 1 0
1.56191e-14 1 0
-1.62131e-14 1 0
-2.98712e-14 1 0
1.56191e-14 1 0
3.26383e-14 1 0
-9.61253e-15 1 0
-4.63182e-14 1 0
-7.8589e-15 1 0
5.30873e-14 1 0
-4.63182e-14 1 0
-5.2945e-14 1 0
5.30873e-14 1 0
5.05353e-14 1 0
0 1 0
-2.66389e-14 1 0
0 1 0
1.89912e-14 1 0
-2.66389e-14 1 0
-3.03297e-14 1 0
1.89912e-14 1 0
2.79995e-14 1 0
0 1 0
-2.07498e-15 1 0
0 1 0
7.83924e-15 1 0
-2.07498e-15 1 0
-4.18443e-15 1 0
7.83924e-15 1 0
5.78428e-15 1 0
-3.03297e-14 1 0
-3.82115e-14 1 0
2.79995e-14 1 0
3.53123e-14 1 0
-3.82115e-14 1 0
-5.4165e-14 1 0
3.53123e-14 1 0
3.41109e-14 1 0
-4.18443e-15 1 0
-1.87754e-14 1 0
5.78428e-15 1 0
3.03929e-14 1 0
-1.87754e-14 1 0
-2.88812e-14 1 0
3.03929e-14 1 0
4.63665e-14 1 0
0 1 0
-1.37612e-14 1 0
0 1 0
1.44274e-14 1 0
-1.37612e-14 1 0
-2.17148e-14 1 0
1.44274e-14 1 0
2.16426e-14 1 0
0 1 0
-2.64876e-14 1 0
0 1 0
1.9601e-14 1 0
-2.64876e-14 1 0
-2.51923e-14 1 0
1.9601e-14 1 0
2.10712e-14 1 0
-2.17148e-14 1 0
-4.13773e-14 1 0
2.16426e-14 1 0
2.36027e-14 1 0
-4.13773e-14 1 0
-2.81064e-14 1 0
2.36027e-14 1 0
1.0938e-14 1 0
-2.51923e-14 1 0
-2.31543e-14 1 0
2.10712e-14 1 0
3.30166e-14 1 0
-2.31543e-14 1 0
-1.46525e-14 1 0
3.30166e-14 1 0
1.24672e-14 1 0
-5.4165e-14 1 0
-7.23551e-14 1 0
3.41109e-14 1 0
6.84773e-14 1 0
-7.23551e-14 1 0
4.07576e-15 1 0
6.84773e-14 1 0
4.78673e-15 1 0
-2.88812e-14 1 0
-4.63798e-14 1 0
4.63665e-14 1 0
4.57514e-14 1 0
-4.63798e-14 1 0
-3.24938e-14 1 0
4.57514e-14 1 0
3.89147e-14 1 0
4.07576e-15 1 0
-3.61788e-14 1 0
4.78673e-15 1 0
2.48107e-14 1 0
-3.61788e-14 1 0
-5.03164e-14 1 0
2.48107e-14 1 0
4.86611e-14 1 0
-3.24938e-14 1 0
-2.98518e-14 1 0
3.89147e-14 1 0
1.86543e-14 1 0
-2.98518e-14 1 0
-4.16613e-14 1 0
1.86543e-14 1 0
3.63752e-14 1 0
-2.81064e-14 1 0
-4.73798e-14 1 0
1.0938e-14 1 0
3.71464e-14 1 0
-4.73798e-14 1 0
-2.66787e-14 1 0
3.71464e-14 1 0
2.30998e-14 1 0
-1.46525e-14 1 0
-3.00049e-14 1 0
1.24672e-14 1 0
1.96521e-14 1 0
-3.00049e-14 1 0
-1.3743e-14 1 0
1.96521e-14 1 0
1.80619e-14 1 0
-2.66787e-14 1 0
-2.11217e-14 1 0
2.30998e-14 1 0
4.35355e-14 1 0
-2.11217e-14 1 0
-5.63625e-14 1 0
4.35355e-14 1 0
7.16433e-14 1 0
-1.3743e-14 1 0
-4.94095e-14 1 0
1.80619e-14 1 0
3.09445e-14 1 0
-4.94095e-14 1 0
-6.31303e-14 1 0
3.09445e-14 1 0
2.86403e-14 1 0
-5.39022e-14 1 0
-3.77883e-14 1 0
6.09051e-14 1 0
3.01276e-14 1 0
-3.77883e-14 1 0
-7.71184e-14 1 0
3.01276e-14 1 0
6.03624e-14 1 0
-4.23231e-14 1 0
-2.8526e-14 1 0
3.76332e-14 1 0
2.86757e-14 1 0
-2.8526e-14 1 0
-3.04786e-15 1 0
2.86757e-14 1 0
-4.333e-15 1 0
-7.71184e-14 1 0
-4.1047e-14 1 0
6.03624e-14 1 0
4.70796e-14 1 0
-4.1047e-14 1 0
-3.32558e-14 1 0
4.70796e-14 1 0
3.86523e-14 1 0
-3.04786e-15 1 0
-2.32926e-14 1 0
-4.333e-15 1 0
1.96236e-14 1 0
-2.32926e-14 1 0
-2.31367e-14 1 0
1.96236e-14 1 0
2.71866e-14 1 0
-2.98712e-14 1 0
-2.20433e-14 1 0
3.26383e-14 1 0
3.3779e-14 1 0
-2.20433e-14 1 0
8.61867e-16 1 0
3.3779e-14 1 0
3.66545e-15 1 0
-5.2945e-14 1 0
-4.95488e-14 1 0
5.05353e-14 1 0
4.96467e-14 1 0
-4.95488e-14 1 0
-1.52029e-14 1 0
4.96467e-14 1 0
2.10373e-14 1 0
8.61867e-16 1 0
-2.18814e-14 1 0
3.66545e-15 1 0
2.31907e-14 1 0
-2.18814e-14 1 0
-3.4917e-14 1 0
2.31907e-14 1 0
2.99529e-14 1 0
-1.52029e-14 1 0
-3.22997e-14 1 0
2.10373e-14 1 0
3.48777e-14 1 0
-3.22997e-14 1 0
-1.94546e-14 1 0
3.48777e-14 1 0
2.89881e-14 1 0
-3.32558e-14 1 0
-1.66144e-14 1 0
3.86523e-14 1 0
1.74908e-14 1 0
-1.66144e-14 1 0
1.50403e-15 1 0
1.74908e-14 1 0
-2.48661e-15 1 0
-2.31367e-14 1 0
-1.19955e-14 1 0
2.71866e-14 1 0
1.51708e-14 1 0
-1.19955e-14 1 0
1.18317e-14 1 0
1.51708e-14 1 0
-8.52125e-15 1 0
1.50403e-15 1 0
-2.42568e-14 1 0
-2.48661e-15 1 0
2.38616e-14 1 0
-2.42568e-14 1 0
-1.18403e-14 1 0
2.38616e-14 1 0
5.4385e-15 1 0
1.18317e-14 1 0
6.74137e-16 1 0
-8.52125e-15 1 0
3.28046e-15 1 0
6.74137e-16 1 0
8.07221e-15 1 0
3.28046e-15 1 0
8.15569e-16 1 0
-3.4917e-14 1 0
1.10722e-14 1 0
2.99529e-14 1 0
-1.63588e-14 1 0
1.10722e-14 1 0
9.48393e-15 1 0
-1.63588e-14 1 0
7.29522e-15 1 0
-1.94546e-14 1 0
1.57088e-15 1 0
2.89881e-14 1 0
1.06321e-14 1 0
1.57088e-15 1 0
-7.97126e-15 1 0
1.06321e-14 1 0
-1.67739e-15 1 0
9.48393e-15 1 0
-7.58139e-15 1 0
7.29522e-15 1 0
1.23655e-14 1 0
-7.58139e-15 1 0
4.59519e-15 1 0
1.23655e-14 1 0
-5.10811e-15 1 0
-7.97126e-15 1 0
-1.71536e-14 1 0
-1.67739e-15 1 0
2.13805e-14 1 0
-1.71536e-14 1 0
-1.38259e-14 1 0
2.13805e-14 1 0
2.12251e-14 1 0
-5.03164e-14 1 0
-4.36759e-14 1 0
4.86611e-14 1 0
4.35306e-14 1 0
-4.36759e-14 1 0
-3.0412e-14 1 0
4.35306e-14 1 0
3.45433e-14 1 0
-4.16613e-14 1 0
-4.61522e-14 1 0
3.63752e-14 1 0
4.36328e-14 1 0
-4.61522e-14 1 0
-5.14266e-14 1 0
4.36328e-14 1 0
3.53717e-14 1 0
-3.0412e-14 1 0
-2.52273e-14 1 0
3.45433e-14 1 0
2.57918e-14 1 0
-2.52273e-14 1 0
-3.57289e-14 1 0
2.57918e-14 1 0
3.26743e-14 1 0
-5.14266e-14 1 0
-3.4848e-14 1 0
3.53717e-14 1 0
3.38398e-14 1 0
-3.4848e-14 1 0
-3.70249e-14 1 0
3.38398e-14 1 0
2.58796e-14 1 0
-5.63625e-14 1 0
-7.00451e-14 1 0
7.16433e-14 1 0
6.01931e-14 1 0
-7.00451e-14 1 0
-4.28771e-14 1 0
6.01931e-14 1 0
3.46635e-14 1 0
-6.31303e-14 1 0
-5.606e-14 1 0
2.86403e-14 1 0
2.84373e-14 1 0
-5.606e-14 1 0
-3.17862e-14 1 0
2.84373e-14 1 0
1.64482e-14 1 0
-4.28771e-14 1 0
-3.19382e-14 1 0
3.46635e-14 1 0
3.80605e-14 1 0
-3.19382e-14 1 0
-1.03319e-14 1 0
3.80605e-14 1 0
2.05705e-14 1 0
-3.17862e-14 1 0
-2.90535e-14 1 0
1.64482e-14 1 0
1.94057e-14 1 0
-2.90535e-14 1 0
-2.35923e-14 1 0
1.94057e-14 1 0
1.90091e-14 1 0
-3.57289e-14 1 0
-3.41432e-14 1 0
3.26743e-14 1 0
3.06176e-14 1 0
-3.41432e-14 1 0
-1.80111e-14 1 0
3.06176e-14 1 0
3.31628e-14 1 0
-3.70249e-14 1 0
-1.96596e-14 1 0
2.58796e-14 1 0
2.69732e-14 1 0
-1.96596e-14 1 0
-3.60674e-14 1 0
2.69732e-14 1 0
3.57688e-14 1 0
-1.80111e-14 1 0
-3.67383e-14 1 0
3.31628e-14 1 0
3.47078e-14 1 0
-3.67383e-14 1 0
-3.96639e-14 1 0
3.47078e-14 1 0
3.95817e-14 1 0
-3.60674e-14 1 0
-1.69135e-14 1 0
3.57688e-14 1 0
1.97848e-14 1 0
-1.69135e-14 1 0
-2.54341e-14 1 0
1.97848e-14 1 0
3.73797e-14 1 0
-1.03319e-14 1 0
-2.82395e-14 1 0
2.05705e-14 1 0
2.50086e-14 1 0
-2.82395e-14 1 0
-3.22015e-14 1 0
2.50086e-14 1 0
2.01068e-14 1 0
-2.35923e-14 1 0
-3.24099e-14 1 0
1.90091e-14 1 0
3.8818e-14 1 0
-3.24099e-14 1 0
-8.06605e-15 1 0
3.8818e-14 1 0
1.40065e-14 1 0
-3.22015e-14 1 0
-3.99816e-14 1 0
2.01068e-14 1 0
4.78105e-14 1 0
-3.99816e-14 1 0
-5.43501e-14 1 0
4.78105e-14 1 0
4.44095e-14 1 0
-8.06605e-15 1 0
-2.94195e-14 1 0
1.40065e-14 1 0
2.85131e-14 1 0
-2.94195e-14 1 0
-6.94441e-15 1 0
2.85131e-14 1 0
1.29535e-14 1 0
-1.71844e-14 1 0
-2.23268e-14 1 0
3.42726e-14 1.00001 0
3.27419e-14 1.00001 0
-2.23268e-14 1 0
-3.52698e-14 1 0
3.27419e-14 1.00001 0
3.38297e-14 1.00001 0
-7.53776e-14 1.00001 0
-5.58942e-14 1.00001 0
8.79167e-14 1 0
5.88917e-14 1 0
-5.58942e-14 1.00001 0
-8.38937e-15 1.00001 0
5.88917e-14 1 0
2.60849e-14 1 0
-3.52698e-14 1 0
-5.56265e-14 1 0
3.38297e-14 1.00001 0
6.34871e-14 1.00001 0
-5.56265e-14 1 0
-3.48383e-14 1 0
6.34871e-14 1.00001 0
4.12898e-14 1.00001 0
-8.38937e-15 1.00001 0
-4.49053e-15 1.00001 0
2.60849e-14 1 0
2.95288e-16 1 0
-4.49053e-15 1.00001 0
-1.56832e-14 1.00001 0
2.95288e-16 1 0
1.76691e-14 1 0
-5.85279e-14 1 0
-1.41349e-14 1 0
4.21238e-14 1.00001 0
1.5776e-14 1.00001 0
-1.41349e-14 1 0
-3.26009e-14 1 0
1.5776e-14 1.00001 0
3.8645e-14 1.00001 0
-1.62215e-14 1.00001 0
-1.31655e-14 1.00001 0
3.4654e-14 1 0
1.52279e-14 1 0
-1.31655e-14 1.00001 0
-6.09178e-14 1.00001 0
1.52279e-14 1 0
6.9142e-14 1 0
-3.26009e-14 1 0
4.42581e-15 1 0
3.8645e-14 1.00001 0
3.93581e-15 1.00001 0
4.42581e-15 1 0
-2.20005e-14 1 0
3.93581e-15 1.00001 0
2.62308e-14 1.00001 0
-6.09178e-14 1.00001 0
-2.3415e-14 1.00001 0
6.9142e-14 1 0
2.83818e-14 1 0
-2.3415e-14 1.00001 0
-2.92045e-14 1.00001 0
2.83818e-14 1 0
3.24995e-14 1 0
-3.48383e-14 1 0
-2.34835e-14 1 0
4.12898e-14 1.00001 0
2.43987e-14 1.00001 0
-2.34835e-14 1 0
-1.60008e-14 1 0
2.43987e-14 1.00001 0
2.77056e-14 1.00001 0
-1.56832e-14 1.00001 0
-1.78529e-14 1.00001 0
1.76691e-14 1 0
1.76155e-14 1 0
-1.78529e-14 1.00001 0
-5.99997e-14 1.00001 0
1.76155e-14 1 0
6.78151e-14 1 0
-1.60008e-14 1 0
-4.80087e-15 1 0
2.77056e-14 1.00001 0
1.18534e-14 1.00001 0
-4.80087e-15 1 0
-6.5012e-15 1 0
1.18534e-14 1.00001 0
2.45478e-15 1.00001 0
-5.99997e-14 1.00001 0
-5.11605e-14 1.00001 0
6.78151e-14 1 0
5.88161e-14 1 0
-5.11605e-14 1.00001 0
-2.55754e-14 1.00001 0
5.88161e-14 1 0
4.60157e-14 1 0
-2.20005e-14 1 0
-2.18073e-14 1 0
2.62308e-14 1.00001 0
3.31057e-14 1.00001 0
-2.18073e-14 1 0
-5.27589e-14 1 0
3.31057e-14 1.00001 0
5.5561e-14 1.00001 0
-2.92045e-14 1.00001 0
-2.53157e-14 1.00001 0
3.24995e-14 1 0
2.81175e-14 1 0
-2.53157e-14 1.00001 0
-3.19819e-14 1.00001 0
2.81175e-14 1 0
3.23026e-14 1 0
-5.27589e-14 1 0
-3.19143e-14 1 0
5.5561e-14 1.00001 0
2.63886e-14 1.00001 0
-3.19143e-14 1 0
-5.04728e-14 1 0
2.63886e-14 1.00001 0
6.70512e-14 1.00001 0
-3.19819e-14 1.00001 0
-1.47437e-14 1.00001 0
3.23026e-14 1 0
2.69137e-14 1 0
-1.47437e-14 1.00001 0
-8.34245e-14 1.00001 0
2.69137e-14 1 0
7.37305e-14 1 0
-3.90366e-14 1 0
7.23686e-15 1 0
3.08924e-14 1 0
-1.08733e-14 1 0
7.23686e-15 1 0
-4.42606e-14 1 0
-1.08733e-14 1 0
4.17284e-14 1 0
-3.56886e-14 1 0
-4.85114e-16 1 0
3.62605e-14 1 0
1.11546e-15 1 0
-4.85114e-16 1 0
-4.75561e-14 1 0
1.11546e-15 1 0