# vtk DataFile Version 3.0
#This file was generated by the deal.II library on 2018/10/14 at 17:49:22
ASCII
DATASET UNSTRUCTURED_GRID

POINTS 20480 double
0 0 0
0.19635 0 0
0 0.31183 0
0.19635 0.31183 0
0.19635 0 0
0.392699 0 0
0.19635 0.31183 0
0.392699 0.31183 0
0 0.31183 0
0.19635 0.31183 0
0 0.624364 0
0.19635 0.624364 0
0.19635 0.31183 0
0.392699 0.31183 0
0.19635 0.624364 0
0.392699 0.624364 0
0.392699 0 0
0.589049 0 0
0.392699 0.31183 0
0.589049 0.31183 0
0.589049 0 0
0.785398 0 0
0.589049 0.31183 0
0.785398 0.31183 0
0.392699 0.31183 0
0.589049 0.31183 0
0.392699 0.624364 0
0.589049 0.624364 0
0.589049 0.31183 0
0.785398 0.31183 0
0.589049 0.624364 0
0.785398 0.624364 0
0 0.624364 0
0.19635 0.624364 0
0 0.936869 0
0.19635 0.936869 0
0.19635 0.624364 0
0.392699 0.624364 0
0.19635 0.936869 0
0.392699 0.936869 0
0 0.936869 0
0.19635 0.936869 0
0 1.2494 0
0.19635 1.2494 0
0.19635 0.936869 0
0.392699 0.936869 0
0.19635 1.2494 0
0.392699 1.2494 0
0.392699 0.624364 0
0.589049 0.624364 0
0.392699 0.936869 0
0.589049 0.936869 0
0.589049 0.624364 0
0.785398 0.624364 0
0.589049 0.936869 0
0.785398 0.936869 0
0.392699 0.936869 0
0.589049 0.936869 0
0.392699 1.2494 0
0.589049 1.2494 0
0.589049 0.936869 0
0.785398 0.936869 0
0.589049 1.2494 0
0.785398 1.2494 0
0.785398 0 0
0.981748 0 0
0.785398 0.31183 0
0.981748 0.31183 0
0.981748 0 0
1.1781 0 0
0.981748 0.31183 0
1.1781 0.31183 0
0.785398 0.31183 0
0.981748 0.31183 0
0.785398 0.624364 0
0.981748 0.624364 0
0.981748 0.31183 0
1.1781 0.31183 0
0.981748 0.624364 0
1.1781 0.624364 0
1.1781 0 0
1.37445 0 0
1.1781 0.31183 0
1.37445 0.31183 0
1.37445 0 0
1.5708 0 0
1.37445 0.31183 0
1.5708 0.31183 0
1.1781 0.31183 0
1.37445 0.31183 0
1.1781 0.624364 0
1.37445 0.624364 0
1.37445 0.31183 0
1.5708 0.31183 0
1.37445 0.624364 0
1.5708 0.624364 0
0.785398 0.624364 0
0.981748 0.624364 0
0.785398 0.936869 0
0.981748 0.936869 0
0.981748 0.624364 0
1.1781 0.624364 0
0.981748 0.936869 0
1.1781 0.936869 0
0.785398 0.936869 0
0.981748 0.936869 0
0.785398 1.2494 0
0.981748 1.2494 0
0.981748 0.936869 0
1.1781 0.936869 0
0.981748 1.2494 0
1.1781 1.2494 0
1.1781 0.624364 0
1.37445 0.624364 0
1.1781 0.936869 0
1.37445 0.936869 0
1.37445 0.624364 0
1.5708 0.624364 0
1.37445 0.936869 0
1.5708 0.936869 0
1.1781 0.936869 0
1.37445 0.936869 0
1.1781 1.2494 0
1.37445 1.2494 0
1.37445 0.936869 0
1.5708 0.936869 0
1.37445 1.2494 0
1.5708 1.2494 0
0 1.2494 0
0.19635 1.2494 0
0 1.56192 0
0.19635 1.56192 0
0.19635 1.2494 0
0.392699 1.2494 0
0.19635 1.56192 0
0.392699 1.56192 0
0 1.56192 0
0.19635 1.56192 0
0 1.87444 0
0.19635 1.87444 0
0.19635 1.56192 0
0.392699 1.56192 0
0.19635 1.87444 0
0.392699 1.87444 0
0.392699 1.2494 0
0.589049 1.2494 0
0.392699 1.56192 0
0.589049 1.56192 0
0.589049 1.2494 0
0.785398 1.2494 0
0.589049 1.56192 0
0.785398 1.56192 0
0.392699 1.56192 0
0.589049 1.56192 0
0.392699 1.87444 0
0.589049 1.87444 0
0.589049 1.56192 0
0.785398 1.56192 0
0.589049 1.87444 0
0.785398 1.87444 0
0 1.87444 0
0.19635 1.87444 0
0 2.18697 0
0.19635 2.18697 0
0.19635 1.87444 0
0.392699 1.87444 0
0.19635 2.18697 0
0.392699 2.18697 0
0 2.18697 0
0.19635 2.18697 0
0 2.49949 0
0.19635 2.49949 0
0.19635 2.18697 0
0.392699 2.18697 0
0.19635 2.49949 0
0.392699 2.49949 0
0.392699 1.87444 0
0.589049 1.87444 0
0.392699 2.18697 0
0.589049 2.18697 0
0.589049 1.87444 0
0.785398 1.87444 0
0.589049 2.18697 0
0.785398 2.18697 0
0.392699 2.18697 0
0.589049 2.18697 0
0.392699 2.49949 0
0.589049 2.49949 0
0.589049 2.18697 0
0.785398 2.18697 0
0.589049 2.49949 0
0.785398 2.49949 0
0.785398 1.2494 0
0.981748 1.2494 0
0.785398 1.56192 0
0.981748 1.56192 0
0.981748 1.2494 0
1.1781 1.2494 0
0.981748 1.56192 0
1.1781 1.56192 0
0.785398 1.56192 0
0.981748 1.56192 0
0.785398 1.87444 0
0.981748 1.87444 0
0.981748 1.56192 0
1.1781 1.56192 0
0.981748 1.87444 0
1.1781 1.87444 0
1.1781 1.2494 0
1.37445 1.2494 0
1.1781 1.56192 0
1.37445 1.56192 0
1.37445 1.2494 0
1.5708 1.2494 0
1.37445 1.56192 0
1.5708 1.56192 0
1.1781 1.56192 0
1.37445 1.56192 0
1.1781 1.87444 0
1.37445 1.87444 0
1.37445 1.56192 0
1.5708 1.56192 0
1.37445 1.87444 0
1.5708 1.87444 0
0.785398 1.87444 0
0.981748 1.87444 0
0.785398 2.18697 0
0.981748 2.18697 0
0.981748 1.87444 0
1.1781 1.87444 0
0.981748 2.18697 0
1.1781 2.18697 0
0.785398 2.18697 0
0.981748 2.18697 0
0.785398 2.49949 0
0.981748 2.49949 0
0.981748 2.18697 0
1.1781 2.18697 0
0.981748 2.49949 0
1.1781 2.49949 0
1.1781 1.87444 0
1.37445 1.87444 0
1.1781 2.18697 0
1.37445 2.18697 0
1.37445 1.87444 0
1.5708 1.87444 0
1.37445 2.18697 0
1.5708 2.18697 0
1.1781 2.18697 0
1.37445 2.18697 0
1.1781 2.49949 0
1.37445 2.49949 0
1.37445 2.18697 0
1.5708 2.18697 0
1.37445 2.49949 0
1.5708 2.49949 0
1.5708 0 0
1.76715 0 0
1.5708 0.31183 0
1.76715 0.31183 0
1.76715 0 0
1.9635 0 0
1.76715 0.31183 0
1.9635 0.31183 0
1.5708 0.31183 0
1.76715 0.31183 0
1.5708 0.624364 0
1.76715 0.624364 0
1.76715 0.31183 0
1.9635 0.31183 0
1.76715 0.624364 0
1.9635 0.624364 0
1.9635 0 0
2.15984 0 0
1.9635 0.31183 0
2.15984 0.31183 0
2.15984 0 0
2.35619 0 0
2.15984 0.31183 0
2.35619 0.31183 0
1.9635 0.31183 0
2.15984 0.31183 0
1.9635 0.624364 0
2.15984 0.624364 0
2.15984 0.31183 0
2.35619 0.31183 0
2.15984 0.624364 0
2.35619 0.624364 0
1.5708 0.624364 0
1.76715 0.624364 0
1.5708 0.936869 0
1.76715 0.936869 0
1.76715 0.624364 0
1.9635 0.624364 0
1.76715 0.936869 0
1.9635 0.936869 0
1.5708 0.936869 0
1.76715 0.936869 0
1.5708 1.2494 0
1.76715 1.2494 0
1.76715 0.936869 0
1.9635 0.936869 0
1.76715 1.2494 0
1.9635 1.2494 0
1.9635 0.624364 0
2.15984 0.624364 0
1.9635 0.936869 0
2.15984 0.936869 0
2.15984 0.624364 0
2.35619 0.624364 0
2.15984 0.936869 0
2.35619 0.936869 0
1.9635 0.936869 0
2.15984 0.936869 0
1.9635 1.2494 0
2.15984 1.2494 0
2.15984 0.936869 0
2.35619 0.936869 0
2.15984 1.2494 0
2.35619 1.2494 0
2.35619 0 0
2.55254 0 0
2.35619 0.31183 0
2.55254 0.31183 0
2.55254 0 0
2.74889 0 0
2.55254 0.31183 0
2.74889 0.31183 0
2.35619 0.31183 0
2.55254 0.31183 0
2.35619 0.624364 0
2.55254 0.624364 0
2.55254 0.31183 0
2.74889 0.31183 0
2.55254 0.624364 0
2.74889 0.624364 0
2.74889 0 0
2.94524 0 0
2.74889 0.31183 0
2.94524 0.31183 0
2.94524 0 0
3.14159 0 0
2.94524 0.31183 0
3.14159 0.31183 0
2.74889 0.31183 0
2.94524 0.31183 0
2.74889 0.624364 0
2.94524 0.624364 0
2.94524 0.31183 0
3.14159 0.31183 0
2.94524 0.624364 0
3.14159 0.624364 0
2.35619 0.624364 0
2.55254 0.624364 0
2.35619 0.936869 0
2.55254 0.936869 0
2.55254 0.624364 0
2.74889 0.624364 0
2.55254 0.936869 0
2.74889 0.936869 0
2.35619 0.936869 0
2.55254 0.936869 0
2.35619 1.2494 0
2.55254 1.2494 0
2.55254 0.936869 0
2.74889 0.936869 0
2.55254 1.2494 0
2.74889 1.2494 0
2.74889 0.624364 0
2.94524 0.624364 0
2.74889 0.936869 0
2.94524 0.936869 0
2.94524 0.624364 0
3.14159 0.624364 0
2.94524 0.936869 0
3.14159 0.936869 0
2.74889 0.936869 0
2.94524 0.936869 0
2.74889 1.2494 0
2.94524 1.2494 0
2.94524 0.936869 0
3.14159 0.936869 0
2.94524 1.2494 0
3.14159 1.2494 0
1.5708 1.2494 0
1.76715 1.2494 0
1.5708 1.56192 0
1.76715 1.56192 0
1.76715 1.2494 0
1.9635 1.2494 0
1.76715 1.56192 0
1.9635 1.56192 0
1.5708 1.56192 0
1.76715 1.56192 0
1.5708 1.87444 0
1.76715 1.87444 0
1.76715 1.56192 0
1.9635 1.56192 0
1.76715 1.87444 0
1.9635 1.87444 0
1.9635 1.2494 0
2.15984 1.2494 0
1.9635 1.56192 0
2.15984 1.56192 0
2.15984 1.2494 0
2.35619 1.2494 0
2.15984 1.56192 0
2.35619 1.56192 0
1.9635 1.56192 0
2.15984 1.56192 0
1.9635 1.87444 0
2.15984 1.87444 0
2.15984 1.56192 0
2.35619 1.56192 0
2.15984 1.87444 0
2.35619 1.87444 0
1.5708 1.87444 0
1.76715 1.87444 0
1.5708 2.18697 0
1.76715 2.18697 0
1.76715 1.87444 0
1.9635 1.87444 0
1.76715 2.18697 0
1.9635 2.18697 0
1.5708 2.18697 0
1.76715 2.18697 0
1.5708 2.49949 0
1.76715 2.49949 0
1.76715 2.18697 0
1.9635 2.18697 0
1.76715 2.49949 0
1.9635 2.49949 0
1.9635 1.87444 0
2.15984 1.87444 0
1.9635 2.18697 0
2.15984 2.18697 0
2.15984 1.87444 0
2.35619 1.87444 0
2.15984 2.18697 0
2.35619 2.18697 0
1.9635 2.18697 0
2.15984 2.18697 0
1.9635 2.49949 0
2.15984 2.49949 0
2.15984 2.18697 0
2.35619 2.18697 0
2.15984 2.49949 0
2.35619 2.49949 0
2.35619 1.2494 0
2.55254 1.2494 0
2.35619 1.56192 0
2.55254 1.56192 0
2.55254 1.2494 0
2.74889 1.2494 0
2.55254 1.56192 0
2.74889 1.56192 0
2.35619 1.56192 0
2.55254 1.56192 0
2.35619 1.87444 0
2.55254 1.87444 0
2.55254 1.56192 0
2.74889 1.56192 0
2.55254 1.87444 0
2.74889 1.87444 0
2.74889 1.2494 0
2.94524 1.2494 0
2.74889 1.56192 0
2.94524 1.56192 0
2.94524 1.2494 0
3.14159 1.2494 0
2.94524 1.56192 0
3.14159 1.56192 0
2.74889 1.56192 0
2.94524 1.56192 0
2.74889 1.87444 0
2.94524 1.87444 0
2.94524 1.56192 0
3.14159 1.56192 0
2.94524 1.87444 0
3.14159 1.87444 0
2.35619 1.87444 0
2.55254 1.87444 0
2.35619 2.18697 0
2.55254 2.18697 0
2.55254 1.87444 0
2.74889 1.87444 0
2.55254 2.18697 0
2.74889 2.18697 0
2.35619 2.18697 0
2.55254 2.18697 0
2.35619 2.49949 0
2.55254 2.49949 0
2.55254 2.18697 0
2.74889 2.18697 0
2.55254 2.49949 0
2.74889 2.49949 0
2.74889 1.87444 0
2.94524 1.87444 0
2.74889 2.18697 0
2.94524 2.18697 0
2.94524 1.87444 0
3.14159 1.87444 0
2.94524 2.18697 0
3.14159 2.18697 0
2.74889 2.18697 0
2.94524 2.18697 0
2.74889 2.49949 0
2.94524 2.49949 0
2.94524 2.18697 0
3.14159 2.18697 0
2.94524 2.49949 0
3.14159 2.49949 0
0 2.49949 0
0.19635 2.49949 0
0 2.81201 0
0.19635 2.81201 0
0.19635 2.49949 0
0.392699 2.49949 0
0.19635 2.81201 0
0.392699 2.81201 0
0 2.81201 0
0.19635 2.81201 0
0 3.12453 0
0.19635 3.12453 0
0.19635 2.81201 0
0.392699 2.81201 0
0.19635 3.12453 0
0.392699 3.12453 0
0.392699 2.49949 0
0.589049 2.49949 0
0.392699 2.81201 0
0.589049 2.81201 0
0.589049 2.49949 0
0.785398 2.49949 0
0.589049 2.81201 0
0.785398 2.81201 0
0.392699 2.81201 0
0.589049 2.81201 0
0.392699 3.12453 0
0.589049 3.12453 0
0.589049 2.81201 0
0.785398 2.81201 0
0.589049 3.12453 0
0.785398 3.12453 0
0 3.12453 0
0.19635 3.12453 0
0 3.43706 0
0.19635 3.43706 0
0.19635 3.12453 0
0.392699 3.12453 0
0.19635 3.43706 0
0.392699 3.43706 0
0 3.43706 0
0.19635 3.43706 0
0 3.74958 0
0.19635 3.74958 0
0.19635 3.43706 0
0.392699 3.43706 0
0.19635 3.74958 0
[...]
POINT_DATA 20480
VECTORS uf double
0 1 0
-3.67875e-14 1 0
0 1.00001 0
5.90773e-14 1.00001 0
-3.67875e-14 1 0
-2.21124e-14 1 0
5.90773e-14 1.00001 0
2.74329e-14 1.00001 0
0 1.00001 0
-4.10234e-14 1.00001 0
0 1 0
2.10495e-14 1 0
-4.10234e-14 1.00001 0
-1.10091e-14 1.00001 0
2.10495e-14 1 0
1.2999e-14 1 0
-2.21124e-14 1 0
-3.10343e-14 1 0
2.74329e-14 1.00001 0
3.89808e-14 1.00001 0
-3.10343e-14 1 0
-2.6091e-14 1 0
3.89808e-14 1.00001 0
3.10826e-14 1.00001 0
-1.10091e-14 1.00001 0
-3.03956e-14 1.00001 0
1.2999e-14 1 0
2.96546e-14 1 0
-3.03956e-14 1.00001 0
-3.08462e-14 1.00001 0
2.96546e-14 1 0
3.21161e-14 1 0
0 1 0
-9.31029e-15 1 0
0 1 0
1.01735e-14 1 0
-9.31029e-15 1 0
-4.19134e-14 1 0
1.01735e-14 1 0
6.04724e-14 1 0
0 1 0
-1.5668e-14 1 0
0 1 0
1.70791e-14 1 0
-1.5668e-14 1 0
-8.14703e-14 1 0
1.70791e-14 1 0
6.50599e-14 1 0
-4.19134e-14 1 0
-3.29058e-14 1 0
6.04724e-14 1 0
3.98979e-14 1 0
-3.29058e-14 1 0
-1.59081e-14 1 0
3.98979e-14 1 0
2.07434e-14 1 0
-8.14703e-14 1 0
-4.94951e-14 1 0
6.50599e-14 1 0
4.8637e-14 1 0
-4.94951e-14 1 0
-3.83913e-14 1 0
4.8637e-14 1 0
4.25274e-14 1 0
-2.6091e-14 1 0
-3.70149e-14 1 0
3.10826e-14 1.00001 0
4.1722e-14 1.00001 0
-3.70149e-14 1 0
-4.14783e-14 1 0
4.1722e-14 1.00001 0
4.39656e-14 1.00001 0
-3.08462e-14 1.00001 0
-3.48504e-14 1.00001 0
3.21161e-14 1 0
4.22076e-14 1 0
-3.48504e-14 1.00001 0
-3.05963e-14 1.00001 0
4.22076e-14 1 0
3.81575e-14 1 0
-4.14783e-14 1 0
-4.65739e-14 1 0
4.39656e-14 1.00001 0
6.11966e-14 1.00001 0
-4.65739e-14 1 0
-2.52182e-14 1 0
6.11966e-14 1.00001 0
4.19534e-14 1.00001 0
-3.05963e-14 1.00001 0
-5.00462e-14 1.00001 0
3.81575e-14 1 0
4.14399e-14 1 0
-5.00462e-14 1.00001 0
-3.05984e-14 1.00001 0
4.14399e-14 1 0
2.05368e-14 1 0
-1.59081e-14 1 0
-4.33992e-14 1 0
2.07434e-14 1 0
4.9587e-14 1 0
-4.33992e-14 1 0
-3.77026e-14 1 0
4.9587e-14 1 0
3.99129e-14 1 0
-3.83913e-14 1 0
-5.81001e-14 1 0
4.25274e-14 1 0
4.8921e-14 1 0
-5.81001e-14 1 0
-5.67552e-14 1 0
4.8921e-14 1 0
6.14317e-14 1 0
-3.77026e-14 1 0
-1.5471e-14 1 0
3.99129e-14 1 0
7.5315e-15 1 0
-1.5471e-14 1 0
-3.08016e-14 1 0
7.5315e-15 1 0
3.28661e-14 1 0
-5.67552e-14 1 0
-1.04857e-14 1 0
6.14317e-14 1 0
1.89268e-14 1 0
-1.04857e-14 1 0
-1.79962e-14 1 0
1.89268e-14 1 0
1.51944e-14 1 0
0 1 0
-1.85776e-14 1 0
0 1 0
2.31712e-14 1 0
-1.85776e-14 1 0
-2.3001e-14 1 0
2.31712e-14 1 0
3.12743e-14 1 0
0 1 0
1.71309e-15 1 0
0 1 0
-1.38228e-14 1 0
1.71309e-15 1 0
-6.6691e-14 1 0
-1.38228e-14 1 0
6.46168e-14 1 0
-2.3001e-14 1 0
-2.64738e-14 1 0
3.12743e-14 1 0
2.50889e-14 1 0
-2.64738e-14 1 0
-6.71866e-14 1 0
2.50889e-14 1 0
7.52485e-14 1 0
-6.6691e-14 1 0
-5.38101e-14 1 0
6.46168e-14 1 0
5.72949e-14 1 0
-5.38101e-14 1 0
-7.95608e-14 1 0
5.72949e-14 1 0
8.12021e-14 1 0
0 1 0
-1.6102e-14 1 0
0 1 0
3.00171e-14 1 0
-1.6102e-14 1 0
-4.95408e-14 1 0
3.00171e-14 1 0
5.06113e-14 1 0
0 1 0
-2.42095e-14 1 0
0 1 0
1.74206e-14 1 0
-2.42095e-14 1 0
-6.45889e-14 1 0
1.74206e-14 1 0
5.47863e-14 1 0
-4.95408e-14 1 0
-2.6154e-14 1 0
5.06113e-14 1 0
2.47371e-14 1 0
-2.6154e-14 1 0
-5.05657e-14 1 0
2.47371e-14 1 0
4.4248e-14 1 0
-6.45889e-14 1 0
-3.28179e-14 1 0
5.47863e-14 1 0
1.93205e-14 1 0
-3.28179e-14 1 0
-3.48439e-14 1 0
1.93205e-14 1 0
2.17051e-14 1 0
-6.71866e-14 1 0
-2.56831e-14 1 0
7.52485e-14 1 0
2.34773e-14 1 0
-2.56831e-14 1 0
-2.69111e-14 1 0
2.34773e-14 1 0
2.87253e-14 1 0
-7.95608e-14 1 0
-3.0786e-14 1 0
8.12021e-14 1 0
3.83402e-14 1 0
-3.0786e-14 1 0
-4.78071e-14 1 0
3.83402e-14 1 0
4.58132e-14 1 0
-2.69111e-14 1 0
-2.29413e-14 1 0
2.87253e-14 1 0
3.08098e-14 1 0
-2.29413e-14 1 0
-2.46898e-14 1 0
3.08098e-14 1 0
4.52942e-14 1 0
-4.78071e-14 1 0
-6.30205e-15 1 0
4.58132e-14 1 0
3.28047e-15 1 0
-6.30205e-15 1 0
-4.15463e-14 1 0
3.28047e-15 1 0
2.73347e-14 1 0
-5.05657e-14 1 0
-1.08459e-14 1 0
4.4248e-14 1 0
1.79195e-14 1 0
-1.08459e-14 1 0
-2.31157e-14 1 0
1.79195e-14 1 0
3.40184e-14 1 0
-3.48439e-14 1 0
-7.76458e-14 1 0
2.17051e-14 1 0
7.84145e-14 1 0
-7.76458e-14 1 0
-7.0741e-14 1 0
7.84145e-14 1 0
7.54416e-14 1 0
-2.31157e-14 1 0
-1.66218e-15 1 0
3.40184e-14 1 0
1.52117e-15 1 0
-1.66218e-15 1 0
-7.82217e-15 1 0
1.52117e-15 1 0
1.08529e-14 1 0
-7.0741e-14 1 0
-1.50629e-15 1 0
7.54416e-14 1 0
5.19955e-15 1 0
-1.50629e-15 1 0
-1.54789e-14 1 0
5.19955e-15 1 0
1.97645e-14 1 0
-2.52182e-14 1 0
-5.86013e-14 1 0
4.19534e-14 1.00001 0
8.82549e-14 1.00001 0
-5.86013e-14 1 0
-4.18987e-14 1 0
8.82549e-14 1.00001 0
5.43312e-14 1.00001 0
-3.05984e-14 1.00001 0
-7.84569e-14 1.00001 0
2.05368e-14 1 0
7.50668e-14 1 0
-7.84569e-14 1.00001 0
-2.75961e-14 1.00001 0
7.50668e-14 1 0
2.64412e-14 1 0
-4.18987e-14 1 0
-2.32362e-14 1 0
5.43312e-14 1.00001 0
3.39255e-14 1.00001 0
-2.32362e-14 1 0
-2.00224e-14 1 0
3.39255e-14 1.00001 0
2.81183e-14 1.00001 0
-2.75961e-14 1.00001 0
-2.36922e-14 1.00001 0
2.64412e-14 1 0
1.81988e-14 1 0
-2.36922e-14 1.00001 0
-1.92645e-14 1.00001 0
1.81988e-14 1 0
3.94424e-15 1 0
-3.08016e-14 1 0
-5.68938e-14 1 0
3.28661e-14 1 0
4.54751e-14 1 0
-5.68938e-14 1 0
-3.74789e-14 1 0
4.54751e-14 1 0
4.52393e-14 1 0
-1.79962e-14 1 0
-4.40778e-14 1 0
1.51944e-14 1 0
4.67161e-14 1 0
-4.40778e-14 1 0
-2.93987e-14 1 0
4.67161e-14 1 0
2.75493e-14 1 0
-3.74789e-14 1 0
-7.15296e-16 1 0
4.52393e-14 1 0
1.31511e-14 1 0
-7.15296e-16 1 0
2.99637e-14 1 0
1.31511e-14 1 0
-1.78542e-14 1 0
-2.93987e-14 1 0
-3.63544e-14 1 0
2.75493e-14 1 0
4.41847e-14 1 0
-3.63544e-14 1 0
-7.68422e-15 1 0
4.41847e-14 1 0
1.27812e-14 1 0
-2.00224e-14 1 0
-1.30755e-14 1 0
2.81183e-14 1.00001 0
2.23623e-14 1.00001 0
-1.30755e-14 1 0
-6.40787e-14 1 0
2.23623e-14 1.00001 0
9.371e-14 1.00001 0
-1.92645e-14 1.00001 0
5.61224e-15 1.00001 0
3.94424e-15 1 0
-1.02501e-14 1 0
5.61224e-15 1.00001 0
-4.91767e-14 1.00001 0
-1.02501e-14 1 0
3.941e-14 1 0
-6.40787e-14 1 0
-2.10533e-14 1 0
9.371e-14 1.00001 0
4.26174e-14 1.00001 0
-2.10533e-14 1 0
-1.35988e-14 1 0
4.26174e-14 1.00001 0
2.91325e-14 1.00001 0
-4.91767e-14 1.00001 0
-4.2081e-14 1.00001 0
3.941e-14 1 0
3.83153e-14 1 0
-4.2081e-14 1.00001 0
-3.96584e-14 1.00001 0
3.83153e-14 1 0
4.42607e-14 1 0
2.99637e-14 1 0
-1.49282e-14 1 0
-1.78542e-14 1 0
1.84122e-14 1 0
-1.49282e-14 1 0
-4.57409e-14 1 0
1.84122e-14 1 0
5.10925e-14 1 0
-7.68422e-15 1 0
9.28197e-15 1 0
1.27812e-14 1 0
-1.24196e-14 1 0
9.28197e-15 1 0
-4.22174e-14 1 0
-1.24196e-14 1 0
4.5798e-14 1 0
-4.57409e-14 1 0
-3.58108e-14 1 0
5.10925e-14 1 0
4.15836e-14 1 0
-3.58108e-14 1 0
-3.51084e-14 1 0
4.15836e-14 1 0
3.66719e-14 1 0
-4.22174e-14 1 0
-5.06466e-14 1 0
4.5798e-14 1 0
5.68274e-14 1 0
-5.06466e-14 1 0
-1.93058e-14 1 0
5.68274e-14 1 0
2.77402e-14 1 0
-2.46898e-14 1 0
-4.20567e-14 1 0
4.52942e-14 1 0
4.32241e-14 1 0
-4.20567e-14 1 0
-2.64614e-14 1 0
4.32241e-14 1 0
3.76205e-14 1 0
-4.15463e-14 1 0
-1.72863e-14 1 0
2.73347e-14 1 0
1.77714e-14 1 0
-1.72863e-14 1 0
-5.00098e-14 1 0
1.77714e-14 1 0
4.96168e-14 1 0
-2.64614e-14 1 0
-2.31308e-14 1 0
3.76205e-14 1 0
2.2528e-14 1 0
-2.31308e-14 1 0
1.74586e-14 1 0
2.2528e-14 1 0
-1.50944e-14 1 0
-5.00098e-14 1 0
-2.9263e-14 1 0
4.96168e-14 1 0
2.15549e-14 1 0
-2.9263e-14 1 0
1.98056e-14 1 0
2.15549e-14 1 0
-2.51963e-14 1 0
-7.82217e-15 1 0
-3.95658e-14 1 0
1.08529e-14 1 0
4.89053e-14 1 0
-3.95658e-14 1 0
-5.07334e-14 1 0
4.89053e-14 1 0
5.26983e-14 1 0
-1.54789e-14 1 0
-4.3445e-14 1 0
1.97645e-14 1 0
4.93168e-14 1 0
-4.3445e-14 1 0
-5.84069e-14 1 0
4.93168e-14 1 0
6.76169e-14 1 0
-5.07334e-14 1 0
-4.47422e-14 1 0
5.26983e-14 1 0
5.51094e-14 1 0
-4.47422e-14 1 0
9.22361e-16 1 0
5.51094e-14 1 0
1.10018e-14 1 0
-5.84069e-14 1 0
-3.25614e-14 1 0
6.76169e-14 1 0
3.14118e-14 1 0
-3.25614e-14 1 0
-6.48898e-15 1 0
3.14118e-14 1 0
4.1869e-15 1 0
1.74586e-14 1 0
3.22963e-14 1 0
-1.50944e-14 1 0
-2.93386e-14 1 0
3.22963e-14 1 0
-3.65331e-14 1 0
-2.93386e-14 1 0
3.33749e-14 1 0
1.98056e-14 1 0
2.96948e-14 1 0
-2.51963e-14 1 0
-2.91256e-14 1 0
2.96948e-14 1 0
-3.84478e-14 1 0
-2.91256e-14 1 0
4.36198e-14 1 0
-3.65331e-14 1 0
-2.73605e-14 1 0
3.33749e-14 1 0
1.49945e-14 1 0
-2.73605e-14 1 0
-2.83938e-14 1 0
1.49945e-14 1 0
2.71968e-14 1 0
-3.84478e-14 1 0
-2.91245e-14 1 0
4.36198e-14 1 0
4.18386e-14 1 0
-2.91245e-14 1 0
-3.68929e-14 1 0
4.18386e-14 1 0
4.37902e-14 1 0
9.22361e-16 1 0
-2.6757e-15 1 0
1.10018e-14 1 0
1.05741e-14 1 0
-2.6757e-15 1 0
-2.61481e-14 1 0
1.05741e-14 1 0
1.21252e-14 1 0
-6.48898e-15 1 0
-1.2056e-14 1 0
4.1869e-15 1 0
1.5067e-14 1 0
-1.2056e-14 1 0
-2.65378e-14 1 0
1.5067e-14 1 0
2.26489e-14 1 0
-2.61481e-14 1 0
-5.00233e-14 1 0
1.21252e-14 1 0
5.28668e-14 1 0
-5.00233e-14 1 0
-6.23158e-14 1 0
5.28668e-14 1 0
5.50282e-14 1 0
-2.65378e-14 1 0
-4.58264e-14 1 0
2.26489e-14 1 0
2.58102e-14 1 0
-4.58264e-14 1 0
-1.06555e-14 1 0
2.58102e-14 1 0
-8.64773e-15 1 0
0 1 0
-2.96756e-14 1 0
0 1 0
4.23636e-14 1 0
-2.96756e-14 1 0
-2.39878e-14 1 0
4.23636e-14 1 0
2.17753e-14 1 0
0 1 0
-5.5913e-14 1 0
0 1 0
4.5638e-14 1 0
-5.5913e-14 1 0
-2.01503e-14 1 0
4.5638e-14 1 0
2.46968e-15 1 0
-2.39878e-14 1 0
-5.13788e-17 1 0
2.17753e-14 1 0
1.82999e-15 1 0
-5.13788e-17 1 0
-1.71506e-14 1 0
1.82999e-15 1 0
1.72488e-14 1 0
-2.01503e-14 1 0
-1.15531e-14 1 0
2.46968e-15 1 0
1.56473e-14 1 0
-1.15531e-14 1 0
-1.34965e-14 1 0
1.56473e-14 1 0
9.82977e-15 1 0
0 1 0
-3.10559e-14 1 0
0 1 0
4.14163e-14 1 0
-3.10559e-14 1 0
1.19621e-14 1 0
4.14163e-14 1 0
6.14147e-15 1 0
0 1 0
-3.97892e-14 1 0
0 1 0
2.83902e-14 1 0
-3.97892e-14 1 0
-2.04273e-14 1 0
2.83902e-14 1 0
1.9242e-14 1 0
1.19621e-14 1 0
-3.12453e-14 1 0
6.14147e-15 1 0
3.14023e-14 1 0
-3.12453e-14 1 0
-2.56213e-14 1 0
3.14023e-14 1 0
3.79521e-14 1 0
-2.04273e-14 1 0
-1.7413e-14 1 0
1.9242e-14 1 0
2.05387e-14 1 0
-1.7413e-14 1 0
-3.32701e-14 1 0
2.05387e-14 1 0
4.09378e-14 1 0
-1.71506e-14 1 0
-3.97683e-14 1 0
1.72488e-14 1 0
3.37827e-14 1 0
-3.97683e-14 1 0
-6.3377e-14 1 0
3.37827e-14 1 0
5.29664e-14 1 0
-1.34965e-14 1 0
-4.36216e-14 1 0
9.82977e-15 1 0
4.46853e-14 1 0
-4.36216e-14 1 0
-3.78486e-14 1 0
4.46853e-14 1 0
4.07037e-14 1 0
-6.3377e-14 1 0
-2.30743e-14 1 0
5.29664e-14 1 0
2.10763e-14 1 0
-2.30743e-14 1 0
-1.80354e-14 1 0
2.10763e-14 1 0
1.98962e-14 1 0
-3.78486e-14 1 0
-1.15488e-15 1 0
4.07037e-14 1 0
-1.09156e-14 1 0
-1.15488e-15 1 0
-2.00916e-14 1 0
-1.09156e-14 1 0
1.411e-14 1 0
-2.56213e-14 1 0
-5.8282e-14 1 0
3.79521e-14 1 0
5.63009e-14 1 0
-5.8282e-14 1 0
-6.73189e-14 1 0
5.63009e-14 1 0
5.59003e-14 1 0
-3.32701e-14 1 0
-2.92934e-14 1 0
4.09378e-14 1 0
3.19146e-14 1 0
-2.92934e-14 1 0
2.22696e-15 1 0
3.19146e-14 1 0
-5.91201e-15 1 0
-6.73189e-14 1 0
5.00984e-15 1 0
5.59003e-14 1 0
4.51651e-15 1 0
5.00984e-15 1 0
-2.28034e-14 1 0
4.51651e-15 1 0
2.40406e-14 1 0
2.22696e-15 1 0
-2.61107e-14 1 0
-5.91201e-15 1 0
2.90512e-14 1 0
-2.61107e-14 1 0
-3.6801e-14 1 0
2.90512e-14 1 0
3.75412e-14 1 0
0 1 0
-2.97662e-14 1 0
0 1 0
2.6116e-14 1 0
-2.97662e-14 1 0
-1.03757e-14 1 0
2.6116e-14 1 0
-6.63161e-16 1 0
0 1 0
-6.37159e-15 1 0
0 1 0
-1.01314e-15 1 0
-6.37159e-15 1 0
5.67314e-15 1 0
-1.01314e-15 1 0
3.42091e-15 1 0
-1.03757e-14 1 0
-2.9443e-14 1 0
-6.63161e-16 1 0
2.91253e-14 1 0
-2.9443e-14 1 0
-5.34206e-14 1 0
2.91253e-14 1 0
4.3494e-14 1 0
5.67314e-15 1 0
-1.71098e-14 1 0
3.42091e-15 1 0
1.77993e-14 1 0
-1.71098e-14 1 0
-2.86304e-14 1 0
1.77993e-14 1 0
3.19313e-14 1 0
0 1 0
2.05502e-14 1 0
0 1 0
-1.43265e-14 1 0
2.05502e-14 1 0
-6.37071e-15 1 0
-1.43265e-14 1 0
1.31115e-14 1 0
0 1 0
-6.11586e-15 1 0
0 1 0
8.83589e-15 1 0
-6.11586e-15 1 0
-2.32922e-14 1 0
8.83589e-15 1 0
2.34114e-14 1 0
-6.37071e-15 1 0
-9.86131e-15 1 0
1.31115e-14 1 0
9.70349e-15 1 0
-9.86131e-15 1 0
-2.67385e-14 1 0
9.70349e-15 1 0
1.78845e-14 1 0
-2.32922e-14 1 0
-2.65718e-14 1 0
2.34114e-14 1 0
2.9972e-14 1 0
-2.65718e-14 1 0
-1.85438e-14 1 0
2.9972e-14 1 0
1.78481e-14 1 0
-5.34206e-14 1 0
-5.99503e-14 1 0
4.3494e-14 1 0
5.47816e-14 1 0
-5.99503e-14 1 0
-1.84516e-14 1 0
5.47816e-14 1 0
2.28432e-14 1 0
-2.86304e-14 1 0
-3.15618e-14 1 0
3.19313e-14 1 0
2.61752e-14 1 0
-3.15618e-14 1 0
-3.30657e-14 1 0
2.61752e-14 1 0
4.22175e-14 1 0
-1.84516e-14 1 0
-1.65469e-14 1 0
2.28432e-14 1 0
2.10979e-14 1 0
-1.65469e-14 1 0
-3.24569e-14 1 0
2.10979e-14 1 0
3.36498e-14 1 0
-3.30657e-14 1 0
-3.0675e-14 1 0
4.22175e-14 1 0
2.98469e-14 1 0
-3.0675e-14 1 0
-3.94225e-14 1 0
2.98469e-14 1 0
5.05807e-14 1 0
-2.67385e-14 1 0
-2.90451e-14 1 0
1.78845e-14 1 0
3.16466e-14 1 0
-2.90451e-14 1 0
-4.18657e-14 1 0
3.16466e-14 1 0
3.22233e-14 1 0
-1.85438e-14 1 0
-3.26551e-14 1 0
1.78481e-14 1 0
2.77584e-14 1 0
-3.26551e-14 1 0
-1.20623e-14 1 0
2.77584e-14 1 0
1.49714e-14 1 0
-4.18657e-14 1 0
-2.67938e-14 1 0
3.22233e-14 1 0
2.8869e-14 1 0
-2.67938e-14 1 0
-6.17433e-14 1 0
2.8869e-14 1 0
6.18746e-14 1 0
-1.20623e-14 1 0
-4.19509e-14 1 0
1.49714e-14 1 0
3.79188e-14 1 0
-4.19509e-14 1 0
-5.72634e-14 1 0
3.79188e-14 1 0
3.88814e-14 1 0
-1.80354e-14 1 0
-4.86859e-14 1 0
1.98962e-14 1 0
3.85327e-14 1 0
-4.86859e-14 1 0
-6.28173e-14 1 0
3.85327e-14 1 0
4.28508e-14 1 0
-2.00916e-14 1 0
-2.99462e-14 1 0
1.411e-14 1 0
2.7896e-14 1 0
-2.99462e-14 1 0
-9.73363e-15 1 0
2.7896e-14 1 0
1.41633e-14 1 0
-6.28173e-14 1 0
-4.46751e-14 1 0
4.28508e-14 1 0
4.3164e-14 1 0
-4.46751e-14 1 0
-2.67631e-14 1 0
4.3164e-14 1 0
1.94686e-14 1 0
-9.73363e-15 1 0
-1.85863e-14 1 0
1.41633e-14 1 0
1.46957e-14 1 0
-1.85863e-14 1 0
1.49663e-15 1 0
1.46957e-14 1 0
1.68507e-14 1 0
-2.28034e-14 1 0
-3.01844e-14 1 0
2.40406e-14 1 0
3.56809e-14 1 0
-3.01844e-14 1 0
-7.64109e-15 1 0
3.56809e-14 1 0
3.15472e-16 1 0
-3.6801e-14 1 0
-4.61692e-14 1 0
3.75412e-14 1 0
2.79514e-14 1 0
-4.61692e-14 1 0
-3.2362e-14 1 0
2.79514e-14 1 0
3.30367e-14 1 0
-7.64109e-15 1 0
-2.62617e-14 1 0
3.15472e-16 1 0
2.6297e-14 1 0
-2.62617e-14 1 0
-3.59752e-14 1 0
2.6297e-14 1 0
2.80943e-14 1 0
-3.2362e-14 1 0
-3.03036e-14 1 0
3.30367e-14 1 0
3.18196e-14 1 0
-3.03036e-14 1 0
-3.77013e-16 1 0
3.18196e-14 1 0
3.26449e-15 1 0
-2.67631e-14 1 0
-2.3339e-14 1 0
1.94686e-14 1 0
2.22647e-14 1 0
-2.3339e-14 1 0
4.77674e-15 1 0
2.22647e-14 1 0
-1.89308e-14 1 0
1.49663e-15 1 0
-7.12127e-15 1 0
1.68507e-14 1 0
2.41024e-15 1 0
-7.12127e-15 1 0
2.81506e-14 1 0
2.41024e-15 1 0
-2.05518e-14 1 0
4.77674e-15 1 0
-8.51021e-16 1 0
-1.89308e-14 1 0
1.33491e-15 1 0
-8.51021e-16 1 0
1.42051e-15 1 0
1.33491e-15 1 0
1.74224e-14 1 0
2.81506e-14 1 0
-1.05634e-14 1 0
-2.05518e-14 1 0
2.25637e-14 1 0
-1.05634e-14 1 0
-9.41839e-15 1 0
2.25637e-14 1 0
-1.92718e-15 1 0
-3.59752e-14 1 0
8.61526e-15 1 0
2.80943e-14 1 0
-1.41471e-14 1 0
8.61526e-15 1 0
8.61285e-15 1 0
-1.41471e-14 1 0
5.18176e-15 1 0
-3.77013e-16 1 0
2.19832e-14 1 0
3.26449e-15 1 0
-9.55428e-15 1 0
2.19832e-14 1 0
4.92924e-15 1 0
-9.55428e-15 1 0
-5.23623e-15 1 0
8.61285e-15 1 0
-1.76048e-14 1 0
5.18176e-15 1 0
2.76892e-14 1 0
-1.76048e-14 1 0
9.07055e-15 1 0
2.76892e-14 1 0
7.28767e-15 1 0
4.92924e-15 1 0
-3.74929e-14 1 0
-5.23623e-15 1 0
3.57678e-14 1 0
-3.74929e-14 1 0
-3.11846e-14 1 0
3.57678e-14 1 0
3.49996e-14 1 0
-3.24569e-14 1 0
-1.56518e-14 1 0
3.36498e-14 1 0
2.60966e-14 1 0
-1.56518e-14 1 0
-4.38684e-14 1 0
2.60966e-14 1 0
5.25658e-14 1 0
-3.94225e-14 1 0
-3.49006e-14 1 0
5.05807e-14 1 0
4.55761e-14 1 0
-3.49006e-14 1 0
-5.28384e-14 1 0
4.55761e-14 1 0
6.0755e-14 1 0
-4.38684e-14 1 0
-2.19307e-14 1 0
5.25658e-14 1 0
1.59029e-14 1 0
-2.19307e-14 1 0
-3.50175e-14 1 0
1.59029e-14 1 0
4.07808e-14 1 0
-5.28384e-14 1 0
-1.37288e-14 1 0
6.0755e-14 1 0
2.21285e-14 1 0
-1.37288e-14 1 0
-4.34743e-14 1 0
2.21285e-14 1 0
3.23816e-14 1 0
-6.17433e-14 1 0
-5.9065e-14 1 0
6.18746e-14 1 0
5.26389e-14 1 0
-5.9065e-14 1 0
-4.61577e-14 1 0
5.26389e-14 1 0
3.30637e-14 1 0
-5.72634e-14 1 0
-5.01831e-14 1 0
3.88814e-14 1 0
3.41686e-14 1 0
-5.01831e-14 1 0
-4.44864e-14 1 0
3.41686e-14 1 0
2.58726e-14 1 0
-4.61577e-14 1 0
-2.69193e-14 1 0
3.30637e-14 1 0
3.20634e-14 1 0
-2.69193e-14 1 0
-1.38527e-14 1 0
3.20634e-14 1 0
2.91404e-14 1 0
-4.44864e-14 1 0
-1.68682e-14 1 0
2.58726e-14 1 0
1.05916e-14 1 0
-1.68682e-14 1 0
-2.46813e-14 1 0
1.05916e-14 1 0
1.93805e-14 1 0
-3.50175e-14 1 0
-2.70533e-14 1 0
4.07808e-14 1 0
3.07938e-14 1 0
-2.70533e-14 1 0
-2.32975e-14 1 0
3.07938e-14 1 0
2.63762e-14 1 0
-4.34743e-14 1 0
-1.86609e-14 1 0
3.23816e-14 1 0
1.91215e-14 1 0
-1.86609e-14 1 0
-3.22453e-15 1 0
1.91215e-14 1 0
-3.1009e-15 1 0
-2.32975e-14 1 0
-4.05098e-14 1 0
2.63762e-14 1 0
3.31178e-14 1 0
-4.05098e-14 1 0
-4.63094e-14 1 0
3.31178e-14 1 0
4.71998e-14 1 0
-3.22453e-15 1 0
-1.1243e-15 1 0
-3.1009e-15 1 0
6.39536e-15 1 0
-1.1243e-15 1 0
-2.66364e-14 1 0
6.39536e-15 1 0
3.30149e-14 1 0
-1.38527e-14 1 0
-1.96592e-14 1 0
2.91404e-14 1 0
2.5771e-14 1 0
-1.96592e-14 1 0
1.24569e-15 1 0
2.5771e-14 1 0
1.0373e-14 1 0
-2.46813e-14 1 0
-2.31403e-14 1 0
1.93805e-14 1 0
3.20188e-14 1 0
-2.31403e-14 1 0
-2.78984e-15 1 0
3.20188e-14 1 0
7.51945e-15 1 0
1.24569e-15 1 0
-4.04983e-14 1 0
1.0373e-14 1 0
5.44065e-14 1 0
-4.04983e-14 1 0
-3.6218e-14 1 0
5.44065e-14 1 0
4.10844e-14 1 0
-2.78984e-15 1 0
-1.96352e-14 1 0
7.51945e-15 1 0
1.28568e-14 1 0
-1.96352e-14 1 0
-1.33663e-14 1 0
1.28568e-14 1 0
9.12777e-15 1 0
-1.35988e-14 1 0
-3.85209e-14 1 0
2.91325e-14 1.00001 0
5.6858e-14 1.00001 0
-3.85209e-14 1 0
-3.6916e-14 1 0
5.6858e-14 1.00001 0
4.63661e-14 1.00001 0
-3.96584e-14 1.00001 0
-6.47276e-14 1.00001 0
4.42607e-14 1 0
7.07446e-14 1 0
-6.47276e-14 1.00001 0
-1.33838e-14 1.00001 0
7.07446e-14 1 0
2.47131e-14 1 0
-3.6916e-14 1 0
-5.22919e-14 1 0
4.63661e-14 1.00001 0
6.24348e-14 1.00001 0
-5.22919e-14 1 0
-3.50717e-14 1 0
6.24348e-14 1.00001 0
4.73337e-14 1.00001 0
-1.33838e-14 1.00001 0
6.36515e-15 1.00001 0
2.47131e-14 1 0
-4.68815e-15 1 0
6.36515e-15 1.00001 0
-1.43906e-14 1.00001 0
-4.68815e-15 1 0
1.90126e-14 1 0
-3.51084e-14 1 0
-2.27467e-14 1 0
3.66719e-14 1 0
2.46341e-14 1 0
-2.27467e-14 1 0
-1.82563e-14 1 0
2.46341e-14 1 0
2.5217e-14 1 0
-1.93058e-14 1 0
-1.11808e-14 1 0
2.77402e-14 1 0
8.46097e-15 1 0
-1.11808e-14 1 0
-6.69303e-14 1 0
8.46097e-15 1 0
7.10838e-14 1 0
-1.82563e-14 1 0
3.37415e-15 1 0
2.5217e-14 1 0
-9.01619e-15 1 0
3.37415e-15 1 0
-2.06327e-14 1 0
-9.01619e-15 1 0
2.34908e-14 1 0
-6.69303e-14 1 0
-1.01525e-15 1 0
7.10838e-14 1 0
1.83167e-14 1 0
-1.01525e-15 1 0
-4.11918e-14 1 0
1.83167e-14 1 0
3.64998e-14 1 0
-3.50717e-14 1 0
-2.71248e-14 1 0
4.73337e-14 1.00001 0
4.05894e-14 1.00001 0
-2.71248e-14 1 0
3.08323e-15 1 0
4.05894e-14 1.00001 0
2.01039e-14 1.00001 0
-1.43906e-14 1.00001 0
-1.50628e-14 1.00001 0
1.90126e-14 1 0
1.45394e-14 1 0
-1.50628e-14 1.00001 0
-6.62352e-14 1.00001 0
1.45394e-14 1 0
7.93206e-14 1 0
3.08323e-15 1 0
2.32825e-14 1 0
2.01039e-14 1.00001 0
-1.22953e-14 1.00001 0
2.32825e-14 1 0
3.97077e-15 1 0
-1.22953e-14 1.00001 0
1.22479e-15 1.00001 0
-6.62352e-14 1.00001 0
-2.98695e-14 1.00001 0
7.93206e-14 1 0
4.4687e-14 1 0
-2.98695e-14 1.00001 0
-2.10358e-14 1.00001 0
4.4687e-14 1 0
4.84125e-14 1 0
-2.06327e-14 1 0
-1.80884e-14 1 0
2.34908e-14 1 0
2.49446e-14 1 0
-1.80884e-14 1 0
-4.30756e-14 1 0
2.49446e-14 1 0
2.67445e-14 1 0
-4.11918e-14 1 0
-2.99902e-14 1 0
3.64998e-14 1 0
2.98036e-14 1 0
-2.99902e-14 1 0
-2.56866e-14 1 0
2.98036e-14 1 0
4.28982e-14 1 0
-4.30756e-14 1 0
-3.89465e-14 1 0
2.67445e-14 1 0
4.48584e-14 1 0
-3.89465e-14 1 0
-7.52742e-14 1 0
4.48584e-14 1 0
8.82367e-14 1 0
-2.56866e-14 1 0
-6.59897e-14 1 0
4.28982e-14 1 0
6.66171e-14 1 0
-6.59897e-14 1 0
-9.53088e-14 1 0
6.66171e-14 1 0
7.77195e-14 1 0
-2.83938e-14 1 0
-1.40881e-14 1 0
2.71968e-14 1 0
7.1327e-15 1 0
-1.40881e-14 1 0
-2.97933e-14 1 0
7.1327e-15 1 0
1.90672e-14 1 0
-3.68929e-14 1 0
4.07199e-15 1 0
4.37902e-14 1 0
8.87593e-15 1 0
4.07199e-15 1 0
-1.72277e-14 1 0
8.87593e-15 1 0
2.53246e-14 1 0
-2.97933e-14 1 0
-2.33313e-14 1 0
1.90672e-14 1 0
3.90015e-14 1 0
-2.33313e-14 1 0
1.1973e-14 1 0
3.90015e-14 1 0
-5.58748e-15 1 0
-1.72277e-14 1 0
-4.60867e-14 1 0
2.53246e-14 1 0
4.2479e-14 1 0
-4.60867e-14 1 0
3.71279e-15 1 0
4.2479e-14 1 0
2.16476e-15 1 0
-6.23158e-14 1 0
-2.21574e-14 1 0
5.50282e-14 1 0
1.97567e-14 1 0
-2.21574e-14 1 0
-2.15886e-14 1 0
1.97567e-14 1 0
1.93175e-14 1 0
-1.06555e-14 1 0
-1.43172e-14 1 0
-8.64773e-15 1 0
3.59234e-15 1 0
-1.43172e-14 1 0
-8.99149e-15 1 0
3.59234e-15 1 0
3.20083e-15 1 0
-2.15886e-14 1 0
-4.192e-14 1 0
1.93175e-14 1 0