# vtk DataFile Version 3.0
#This file was generated by the deal.II library on 2018/10/14 at 17:07:43
ASCII
DATASET UNSTRUCTURED_GRID

POINTS 20480 double
0 0 0
0.19635 0 0
0 0.3124 0
0.19635 0.3124 0
0.19635 0 0
0.392699 0 0
0.19635 0.3124 0
0.392699 0.3124 0
0 0.3124 0
0.19635 0.3124 0
0 0.624905 0
0.19635 0.624905 0
0.19635 0.3124 0
0.392699 0.3124 0
0.19635 0.624905 0
0.392699 0.624905 0
0.392699 0 0
0.589049 0 0
0.392699 0.3124 0
0.589049 0.3124 0
0.589049 0 0
0.785398 0 0
0.589049 0.3124 0
0.785398 0.3124 0
0.392699 0.3124 0
0.589049 0.3124 0
0.392699 0.624905 0
0.589049 0.624905 0
0.589049 0.3124 0
0.785398 0.3124 0
0.589049 0.624905 0
0.785398 0.624905 0
0 0.624905 0
0.19635 0.624905 0
0 0.937406 0
0.19635 0.937406 0
0.19635 0.624905 0
0.392699 0.624905 0
0.19635 0.937406 0
0.392699 0.937406 0
0 0.937406 0
0.19635 0.937406 0
0 1.24991 0
0.19635 1.24991 0
0.19635 0.937406 0
0.392699 0.937406 0
0.19635 1.24991 0
0.392699 1.24991 0
0.392699 0.624905 0
0.589049 0.624905 0
0.392699 0.937406 0
0.589049 0.937406 0
0.589049 0.624905 0
0.785398 0.624905 0
0.589049 0.937406 0
0.785398 0.937406 0
0.392699 0.937406 0
0.589049 0.937406 0
0.392699 1.24991 0
0.589049 1.24991 0
0.589049 0.937406 0
0.785398 0.937406 0
0.589049 1.24991 0
0.785398 1.24991 0
0.785398 0 0
0.981748 0 0
0.785398 0.3124 0
0.981748 0.3124 0
0.981748 0 0
1.1781 0 0
0.981748 0.3124 0
1.1781 0.3124 0
0.785398 0.3124 0
0.981748 0.3124 0
0.785398 0.624905 0
0.981748 0.624905 0
0.981748 0.3124 0
1.1781 0.3124 0
0.981748 0.624905 0
1.1781 0.624905 0
1.1781 0 0
1.37445 0 0
1.1781 0.3124 0
1.37445 0.3124 0
1.37445 0 0
1.5708 0 0
1.37445 0.3124 0
1.5708 0.3124 0
1.1781 0.3124 0
1.37445 0.3124 0
1.1781 0.624905 0
1.37445 0.624905 0
1.37445 0.3124 0
1.5708 0.3124 0
1.37445 0.624905 0
1.5708 0.624905 0
0.785398 0.624905 0
0.981748 0.624905 0
0.785398 0.937406 0
0.981748 0.937406 0
0.981748 0.624905 0
1.1781 0.624905 0
0.981748 0.937406 0
1.1781 0.937406 0
0.785398 0.937406 0
0.981748 0.937406 0
0.785398 1.24991 0
0.981748 1.24991 0
0.981748 0.937406 0
1.1781 0.937406 0
0.981748 1.24991 0
1.1781 1.24991 0
1.1781 0.624905 0
1.37445 0.624905 0
1.1781 0.937406 0
1.37445 0.937406 0
1.37445 0.624905 0
1.5708 0.624905 0
1.37445 0.937406 0
1.5708 0.937406 0
1.1781 0.937406 0
1.37445 0.937406 0
1.1781 1.24991 0
1.37445 1.24991 0
1.37445 0.937406 0
1.5708 0.937406 0
1.37445 1.24991 0
1.5708 1.24991 0
0 1.24991 0
0.19635 1.24991 0
0 1.56241 0
0.19635 1.56241 0
0.19635 1.24991 0
0.392699 1.24991 0
0.19635 1.56241 0
0.392699 1.56241 0
0 1.56241 0
0.19635 1.56241 0
0 1.87492 0
0.19635 1.87492 0
0.19635 1.56241 0
0.392699 1.56241 0
0.19635 1.87492 0
0.392699 1.87492 0
0.392699 1.24991 0
0.589049 1.24991 0
0.392699 1.56241 0
0.589049 1.56241 0
0.589049 1.24991 0
0.785398 1.24991 0
0.589049 1.56241 0
0.785398 1.56241 0
0.392699 1.56241 0
0.589049 1.56241 0
0.392699 1.87492 0
0.589049 1.87492 0
0.589049 1.56241 0
0.785398 1.56241 0
0.589049 1.87492 0
0.785398 1.87492 0
0 1.87492 0
0.19635 1.87492 0
0 2.18742 0
0.19635 2.18742 0
0.19635 1.87492 0
0.392699 1.87492 0
0.19635 2.18742 0
0.392699 2.18742 0
0 2.18742 0
0.19635 2.18742 0
0 2.49992 0
0.19635 2.49992 0
0.19635 2.18742 0
0.392699 2.18742 0
0.19635 2.49992 0
0.392699 2.49992 0
0.392699 1.87492 0
0.589049 1.87492 0
0.392699 2.18742 0
0.589049 2.18742 0
0.589049 1.87492 0
0.785398 1.87492 0
0.589049 2.18742 0
0.785398 2.18742 0
0.392699 2.18742 0
0.589049 2.18742 0
0.392699 2.49992 0
0.589049 2.49992 0
0.589049 2.18742 0
0.785398 2.18742 0
0.589049 2.49992 0
0.785398 2.49992 0
0.785398 1.24991 0
0.981748 1.24991 0
0.785398 1.56241 0
0.981748 1.56241 0
0.981748 1.24991 0
1.1781 1.24991 0
0.981748 1.56241 0
1.1781 1.56241 0
0.785398 1.56241 0
0.981748 1.56241 0
0.785398 1.87492 0
0.981748 1.87492 0
0.981748 1.56241 0
1.1781 1.56241 0
0.981748 1.87492 0
1.1781 1.87492 0
1.1781 1.24991 0
1.37445 1.24991 0
1.1781 1.56241 0
1.37445 1.56241 0
1.37445 1.24991 0
1.5708 1.24991 0
1.37445 1.56241 0
1.5708 1.56241 0
1.1781 1.56241 0
1.37445 1.56241 0
1.1781 1.87492 0
1.37445 1.87492 0
1.37445 1.56241 0
1.5708 1.56241 0
1.37445 1.87492 0
1.5708 1.87492 0
0.785398 1.87492 0
0.981748 1.87492 0
0.785398 2.18742 0
0.981748 2.18742 0
0.981748 1.87492 0
1.1781 1.87492 0
0.981748 2.18742 0
1.1781 2.18742 0
0.785398 2.18742 0
0.981748 2.18742 0
0.785398 2.49992 0
0.981748 2.49992 0
0.981748 2.18742 0
1.1781 2.18742 0
0.981748 2.49992 0
1.1781 2.49992 0
1.1781 1.87492 0
1.37445 1.87492 0
1.1781 2.18742 0
1.37445 2.18742 0
1.37445 1.87492 0
1.5708 1.87492 0
1.37445 2.18742 0
1.5708 2.18742 0
1.1781 2.18742 0
1.37445 2.18742 0
1.1781 2.49992 0
1.37445 2.49992 0
1.37445 2.18742 0
1.5708 2.18742 0
1.37445 2.49992 0
1.5708 2.49992 0
1.5708 0 0
1.76715 0 0
1.5708 0.3124 0
1.76715 0.3124 0
1.76715 0 0
1.9635 0 0
1.76715 0.3124 0
1.9635 0.3124 0
1.5708 0.3124 0
1.76715 0.3124 0
1.5708 0.624905 0
1.76715 0.624905 0
1.76715 0.3124 0
1.9635 0.3124 0
1.76715 0.624905 0
1.9635 0.624905 0
1.9635 0 0
2.15984 0 0
1.9635 0.3124 0
2.15984 0.3124 0
2.15984 0 0
2.35619 0 0
2.15984 0.3124 0
2.35619 0.3124 0
1.9635 0.3124 0
2.15984 0.3124 0
1.9635 0.624905 0
2.15984 0.624905 0
2.15984 0.3124 0
2.35619 0.3124 0
2.15984 0.624905 0
2.35619 0.624905 0
1.5708 0.624905 0
1.76715 0.624905 0
1.5708 0.937406 0
1.76715 0.937406 0
1.76715 0.624905 0
1.9635 0.624905 0
1.76715 0.937406 0
1.9635 0.937406 0
1.5708 0.937406 0
1.76715 0.937406 0
1.5708 1.24991 0
1.76715 1.24991 0
1.76715 0.937406 0
1.9635 0.937406 0
1.76715 1.24991 0
1.9635 1.24991 0
1.9635 0.624905 0
2.15984 0.624905 0
1.9635 0.937406 0
2.15984 0.937406 0
2.15984 0.624905 0
2.35619 0.624905 0
2.15984 0.937406 0
2.35619 0.937406 0
1.9635 0.937406 0
2.15984 0.937406 0
1.9635 1.24991 0
2.15984 1.24991 0
2.15984 0.937406 0
2.35619 0.937406 0
2.15984 1.24991 0
2.35619 1.24991 0
2.35619 0 0
2.55254 0 0
2.35619 0.3124 0
2.55254 0.3124 0
2.55254 0 0
2.74889 0 0
2.55254 0.3124 0
2.74889 0.3124 0
2.35619 0.3124 0
2.55254 0.3124 0
2.35619 0.624905 0
2.55254 0.624905 0
2.55254 0.3124 0
2.74889 0.3124 0
2.55254 0.624905 0
2.74889 0.624905 0
2.74889 0 0
2.94524 0 0
2.74889 0.3124 0
2.94524 0.3124 0
2.94524 0 0
3.14159 0 0
2.94524 0.3124 0
3.14159 0.3124 0
2.74889 0.3124 0
2.94524 0.3124 0
2.74889 0.624905 0
2.94524 0.624905 0
2.94524 0.3124 0
3.14159 0.3124 0
2.94524 0.624905 0
3.14159 0.624905 0
2.35619 0.624905 0
2.55254 0.624905 0
2.35619 0.937406 0
2.55254 0.937406 0
2.55254 0.624905 0
2.74889 0.624905 0
2.55254 0.937406 0
2.74889 0.937406 0
2.35619 0.937406 0
2.55254 0.937406 0
2.35619 1.24991 0
2.55254 1.24991 0
2.55254 0.937406 0
2.74889 0.937406 0
2.55254 1.24991 0
2.74889 1.24991 0
2.74889 0.624905 0
2.94524 0.624905 0
2.74889 0.937406 0
2.94524 0.937406 0
2.94524 0.624905 0
3.14159 0.624905 0
2.94524 0.937406 0
3.14159 0.937406 0
2.74889 0.937406 0
2.94524 0.937406 0
2.74889 1.24991 0
2.94524 1.24991 0
2.94524 0.937406 0
3.14159 0.937406 0
2.94524 1.24991 0
3.14159 1.24991 0
1.5708 1.24991 0
1.76715 1.24991 0
1.5708 1.56241 0
1.76715 1.56241 0
1.76715 1.24991 0
1.9635 1.24991 0
1.76715 1.56241 0
1.9635 1.56241 0
1.5708 1.56241 0
1.76715 1.56241 0
1.5708 1.87492 0
1.76715 1.87492 0
1.76715 1.56241 0
1.9635 1.56241 0
1.76715 1.87492 0
1.9635 1.87492 0
1.9635 1.24991 0
2.15984 1.24991 0
1.9635 1.56241 0
2.15984 1.56241 0
2.15984 1.24991 0
2.35619 1.24991 0
2.15984 1.56241 0
2.35619 1.56241 0
1.9635 1.56241 0
2.15984 1.56241 0
1.9635 1.87492 0
2.15984 1.87492 0
2.15984 1.56241 0
2.35619 1.56241 0
2.15984 1.87492 0
2.35619 1.87492 0
1.5708 1.87492 0
1.76715 1.87492 0
1.5708 2.18742 0
1.76715 2.18742 0
1.76715 1.87492 0
1.9635 1.87492 0
1.76715 2.18742 0
1.9635 2.18742 0
1.5708 2.18742 0
1.76715 2.18742 0
1.5708 2.49992 0
1.76715 2.49992 0
1.76715 2.18742 0
1.9635 2.18742 0
1.76715 2.49992 0
1.9635 2.49992 0
1.9635 1.87492 0
2.15984 1.87492 0
1.9635 2.18742 0
2.15984 2.18742 0
2.15984 1.87492 0
2.35619 1.87492 0
2.15984 2.18742 0
2.35619 2.18742 0
1.9635 2.18742 0
2.15984 2.18742 0
1.9635 2.49992 0
2.15984 2.49992 0
2.15984 2.18742 0
2.35619 2.18742 0
2.15984 2.49992 0
2.35619 2.49992 0
2.35619 1.24991 0
2.55254 1.24991 0
2.35619 1.56241 0
2.55254 1.56241 0
2.55254 1.24991 0
2.74889 1.24991 0
2.55254 1.56241 0
2.74889 1.56241 0
2.35619 1.56241 0
2.55254 1.56241 0
2.35619 1.87492 0
2.55254 1.87492 0
2.55254 1.56241 0
2.74889 1.56241 0
2.55254 1.87492 0
2.74889 1.87492 0
2.74889 1.24991 0
2.94524 1.24991 0
2.74889 1.56241 0
2.94524 1.56241 0
2.94524 1.24991 0
3.14159 1.24991 0
2.94524 1.56241 0
3.14159 1.56241 0
2.74889 1.56241 0
2.94524 1.56241 0
2.74889 1.87492 0
2.94524 1.87492 0
2.94524 1.56241 0
3.14159 1.56241 0
2.94524 1.87492 0
3.14159 1.87492 0
2.35619 1.87492 0
2.55254 1.87492 0
2.35619 2.18742 0
2.55254 2.18742 0
2.55254 1.87492 0
2.74889 1.87492 0
2.55254 2.18742 0
2.74889 2.18742 0
2.35619 2.18742 0
2.55254 2.18742 0
2.35619 2.49992 0
2.55254 2.49992 0
2.55254 2.18742 0
2.74889 2.18742 0
2.55254 2.49992 0
2.74889 2.49992 0
2.74889 1.87492 0
2.94524 1.87492 0
2.74889 2.18742 0
2.94524 2.18742 0
2.94524 1.87492 0
3.14159 1.87492 0
2.94524 2.18742 0
3.14159 2.18742 0
2.74889 2.18742 0
2.94524 2.18742 0
2.74889 2.49992 0
2.94524 2.49992 0
2.94524 2.18742 0
3.14159 2.18742 0
2.94524 2.49992 0
3.14159 2.49992 0
0 2.49992 0
0.19635 2.49992 0
0 2.81243 0
0.19635 2.81243 0
0.19635 2.49992 0
0.392699 2.49992 0
0.19635 2.81243 0
0.392699 2.81243 0
0 2.81243 0
0.19635 2.81243 0
0 3.12493 0
0.19635 3.12493 0
0.19635 2.81243 0
0.392699 2.81243 0
0.19635 3.12493 0
0.392699 3.12493 0
0.392699 2.49992 0
0.589049 2.49992 0
0.392699 2.81243 0
0.589049 2.81243 0
0.589049 2.49992 0
0.785398 2.49992 0
0.589049 2.81243 0
0.785398 2.81243 0
0.392699 2.81243 0
0.589049 2.81243 0
0.392699 3.12493 0
0.589049 3.12493 0
0.589049 2.81243 0
0.785398 2.81243 0
0.589049 3.12493 0
0.785398 3.12493 0
0 3.12493 0
0.19635 3.12493 0
0 3.43743 0
0.19635 3.43743 0
0.19635 3.12493 0
0.392699 3.12493 0
0.19635 3.43743 0
0.392699 3.43743 0
0 3.43743 0
0.19635 3.43743 0
0 3.74994 0
0.19635 3.74994 0
0.19635 3.43743 0
0.392699 3.43743 0
0.19635 3.74994 0
[...]
POINT_DATA 20480
VECTORS uf double
0 1 0
1.94871e-14 1 0
0 1 0
-1.95429e-14 1 0
1.94871e-14 1 0
1.50866e-14 1 0
-1.95429e-14 1 0
-2.00859e-14 1 0
0 1 0
1.27027e-16 1 0
0 1 0
7.59086e-15 1 0
1.27027e-16 1 0
1.38272e-14 1 0
7.59086e-15 1 0
-2.88272e-15 1 0
1.50866e-14 1 0
7.72552e-15 1 0
-2.00859e-14 1 0
-9.83257e-15 1 0
7.72552e-15 1 0
6.21512e-16 1 0
-9.83257e-15 1 0
4.50923e-15 1 0
1.38272e-14 1 0
1.01185e-14 1 0
-2.88272e-15 1 0
-9.00776e-15 1 0
1.01185e-14 1 0
1.53356e-15 1 0
-9.00776e-15 1 0
-7.45989e-15 1 0
0 1 0
-3.55371e-15 1 0
0 1 0
-2.83522e-15 1 0
-3.55371e-15 1 0
-1.03448e-15 1 0
-2.83522e-15 1 0
-4.68644e-15 1 0
0 1 0
-1.81036e-15 1 0
0 1 0
4.36943e-15 1 0
-1.81036e-15 1 0
-1.79898e-15 1 0
4.36943e-15 1 0
2.39029e-15 1 0
-1.03448e-15 1 0
7.35316e-15 1 0
-4.68644e-15 1 0
-1.1841e-14 1 0
7.35316e-15 1 0
7.55449e-16 1 0
-1.1841e-14 1 0
2.98747e-15 1 0
-1.79898e-15 1 0
2.01547e-14 1 0
2.39029e-15 1 0
-1.78105e-14 1 0
2.01547e-14 1 0
3.13316e-15 1 0
-1.78105e-14 1 0
4.2177e-15 1 0
6.21512e-16 1 0
7.11666e-17 1 0
4.50923e-15 1 0
7.60409e-16 1 0
7.11666e-17 1 0
-4.67091e-15 1 0
7.60409e-16 1 0
3.9147e-15 1 0
1.53356e-15 1 0
-9.73291e-15 1 0
-7.45989e-15 1 0
2.57115e-14 1 0
-9.73291e-15 1 0
-4.27889e-15 1 0
2.57115e-14 1 0
1.58226e-14 1 0
-4.67091e-15 1 0
2.22972e-15 1 0
3.9147e-15 1 0
7.26498e-16 1 0
2.22972e-15 1 0
2.40503e-15 1 0
7.26498e-16 1 0
6.93634e-15 1 0
-4.27889e-15 1 0
-6.42033e-15 1 0
1.58226e-14 1 0
1.4088e-14 1 0
-6.42033e-15 1 0
-1.90624e-14 1 0
1.4088e-14 1 0
1.30778e-14 1 0
7.55449e-16 1 0
-2.49929e-14 1 0
2.98747e-15 1 0
1.84711e-14 1 0
-2.49929e-14 1 0
-1.22473e-14 1 0
1.84711e-14 1 0
3.92028e-15 1 0
3.13316e-15 1 0
-1.37742e-14 1 0
4.2177e-15 1 0
1.40841e-14 1 0
-1.37742e-14 1 0
-1.03064e-14 1 0
1.40841e-14 1 0
1.31088e-14 1 0
-1.22473e-14 1 0
-8.70139e-15 1 0
3.92028e-15 1 0
-5.26031e-16 1 0
-8.70139e-15 1 0
-1.22967e-15 1 0
-5.26031e-16 1 0
7.86965e-15 1 0
-1.03064e-14 1 0
-5.19331e-15 1 0
1.31088e-14 1 0
2.17354e-15 1 0
-5.19331e-15 1 0
-1.03493e-14 1 0
2.17354e-15 1 0
8.93619e-15 1 0
0 1 0
1.08193e-15 1 0
0 1 0
-3.80232e-15 1 0
1.08193e-15 1 0
3.78592e-15 1 0
-3.80232e-15 1 0
4.01828e-15 1 0
0 1 0
1.68841e-14 1 0
0 1 0
-2.13979e-14 1 0
1.68841e-14 1 0
8.24474e-16 1 0
-2.13979e-14 1 0
-6.77066e-15 1 0
3.78592e-15 1 0
3.6222e-15 1 0
4.01828e-15 1 0
6.75085e-15 1 0
3.6222e-15 1 0
-1.10069e-14 1 0
6.75085e-15 1 0
6.71036e-15 1 0
8.24474e-16 1 0
-6.74373e-15 1 0
-6.77066e-15 1 0
7.63982e-15 1 0
-6.74373e-15 1 0
-4.36687e-15 1 0
7.63982e-15 1 0
2.31482e-15 1 0
0 1 0
1.45476e-14 1 0
0 1 0
-1.85268e-14 1 0
1.45476e-14 1 0
-1.05918e-15 1 0
-1.85268e-14 1 0
4.32963e-15 1 0
0 1 0
2.79367e-14 1 0
0 1 0
-1.97186e-14 1 0
2.79367e-14 1 0
4.58937e-15 1 0
-1.97186e-14 1 0
-3.84206e-15 1 0
-1.05918e-15 1 0
-2.29375e-15 1 0
4.32963e-15 1 0
8.27835e-15 1 0
-2.29375e-15 1 0
5.05157e-15 1 0
8.27835e-15 1 0
8.44374e-15 1 0
4.58937e-15 1 0
-9.4982e-15 1 0
-3.84206e-15 1 0
8.86104e-15 1 0
-9.4982e-15 1 0
-1.73855e-14 1 0
8.86104e-15 1 0
4.37187e-15 1 0
-1.10069e-14 1 0
-2.20021e-14 1 0
6.71036e-15 1 0
2.23929e-14 1 0
-2.20021e-14 1 0
-6.61505e-15 1 0
2.23929e-14 1 0
8.32544e-15 1 0
-4.36687e-15 1 0
-1.58972e-14 1 0
2.31482e-15 1 0
1.71126e-14 1 0
-1.58972e-14 1 0
-2.94042e-15 1 0
1.71126e-14 1 0
1.02933e-14 1 0
-6.61505e-15 1 0
5.97608e-15 1 0
8.32544e-15 1 0
6.86291e-15 1 0
5.97608e-15 1 0
6.67079e-16 1 0
6.86291e-15 1 0
5.79183e-15 1 0
-2.94042e-15 1 0
1.42089e-14 1 0
1.02933e-14 1 0
-5.60453e-15 1 0
1.42089e-14 1 0
-6.70775e-15 1 0
-5.60453e-15 1 0
1.47763e-14 1 0
5.05157e-15 1 0
-4.94555e-15 1 0
8.44374e-15 1 0
9.98829e-16 1 0
-4.94555e-15 1 0
-6.2572e-15 1 0
9.98829e-16 1 0
9.42142e-15 1 0
-1.73855e-14 1 0
-7.52244e-15 1 0
4.37187e-15 1 0
2.09056e-14 1 0
-7.52244e-15 1 0
-1.80854e-15 1 0
2.09056e-14 1 0
4.41901e-15 1 0
-6.2572e-15 1 0
-2.66535e-15 1 0
9.42142e-15 1 0
5.5079e-15 1 0
-2.66535e-15 1 0
-1.18675e-14 1 0
5.5079e-15 1 0
1.11367e-14 1 0
-1.80854e-15 1 0
-8.50839e-15 1 0
4.41901e-15 1 0
9.38175e-15 1 0
-8.50839e-15 1 0
-6.85019e-15 1 0
9.38175e-15 1 0
4.29326e-15 1 0
2.40503e-15 1 0
1.12963e-14 1 0
6.93634e-15 1 0
5.16981e-15 1 0
1.12963e-14 1 0
9.17603e-15 1 0
5.16981e-15 1 0
4.51208e-15 1 0
-1.90624e-14 1 0
-1.57413e-14 1 0
1.30778e-14 1 0
1.23763e-14 1 0
-1.57413e-14 1 0
-2.01891e-14 1 0
1.23763e-14 1 0
1.01511e-14 1 0
9.17603e-15 1 0
1.1577e-15 1 0
4.51208e-15 1 0
4.05187e-15 1 0
1.1577e-15 1 0
1.02686e-14 1 0
4.05187e-15 1 0
-4.79444e-15 1 0
-2.01891e-14 1 0
-1.41181e-14 1 0
1.01511e-14 1 0
1.79017e-14 1 0
-1.41181e-14 1 0
-3.25025e-15 1 0
1.79017e-14 1 0
4.19569e-15 1 0
-1.22967e-15 1 0
-5.63063e-15 1 0
7.86965e-15 1 0
-7.71886e-16 1 0
-5.63063e-15 1 0
4.38974e-15 1 0
-7.71886e-16 1 0
5.54056e-15 1 0
-1.03493e-14 1 0
-3.1516e-16 1 0
8.93619e-15 1 0
1.00006e-14 1 0
-3.1516e-16 1 0
-3.84915e-15 1 0
1.00006e-14 1 0
1.08274e-14 1 0
4.38974e-15 1 0
2.325e-15 1 0
5.54056e-15 1 0
7.72579e-15 1 0
2.325e-15 1 0
1.61682e-14 1 0
7.72579e-15 1 0
-1.57268e-14 1 0
-3.84915e-15 1 0
-9.46689e-15 1 0
1.08274e-14 1 0
5.42477e-15 1 0
-9.46689e-15 1 0
7.59502e-15 1 0
5.42477e-15 1 0
3.99091e-15 1 0
1.02686e-14 1 0
1.5041e-15 1 0
-4.79444e-15 1 0
1.2689e-14 1 0
1.5041e-15 1 0
-2.58627e-17 1 0
1.2689e-14 1 0
1.25165e-14 1 0
-3.25025e-15 1 0
-1.20864e-14 1 0
4.19569e-15 1 0
2.3746e-14 1 0
-1.20864e-14 1 0
-1.02478e-14 1 0
2.3746e-14 1 0
9.50333e-15 1 0
-2.58627e-17 1 0
4.6761e-15 1 0
1.25165e-14 1 0
1.05437e-14 1 0
4.6761e-15 1 0
1.97896e-15 1 0
1.05437e-14 1 0
1.00604e-14 1 0
-1.02478e-14 1 0
-1.4407e-14 1 0
9.50333e-15 1 0
1.90199e-14 1 0
-1.4407e-14 1 0
-5.5033e-15 1 0
1.90199e-14 1 0
1.29316e-14 1 0
1.61682e-14 1 0
-1.31909e-14 1 0
-1.57268e-14 1 0
-8.18723e-16 1 0
-1.31909e-14 1 0
5.27186e-15 1 0
-8.18723e-16 1 0
3.10244e-15 1 0
7.59502e-15 1 0
-5.4768e-15 1 0
3.99091e-15 1 0
9.7899e-15 1 0
-5.4768e-15 1 0
-9.76363e-15 1 0
9.7899e-15 1 0
1.08206e-14 1 0
5.27186e-15 1 0
-6.26552e-15 1 0
3.10244e-15 1 0
4.89082e-15 1 0
-6.26552e-15 1 0
-1.67634e-14 1 0
4.89082e-15 1 0
2.49567e-14 1 0
-9.76363e-15 1 0
-5.19031e-15 1 0
1.08206e-14 1 0
1.22062e-14 1 0
-5.19031e-15 1 0
-1.07207e-14 1 0
1.22062e-14 1 0
1.12965e-14 1 0
6.67079e-16 1 0
-1.4678e-14 1 0
5.79183e-15 1 0
1.72004e-14 1 0
-1.4678e-14 1 0
-7.70939e-15 1 0
1.72004e-14 1 0
6.88422e-15 1 0
-6.70775e-15 1 0
-1.21219e-15 1 0
1.47763e-14 1 0
8.91625e-15 1 0
-1.21219e-15 1 0
5.87607e-15 1 0
8.91625e-15 1 0
6.16135e-15 1 0
-7.70939e-15 1 0
-5.62968e-17 1 0
6.88422e-15 1 0
1.1645e-14 1 0
-5.62968e-17 1 0
1.60706e-15 1 0
1.1645e-14 1 0
2.77695e-15 1 0
5.87607e-15 1 0
-3.52234e-15 1 0
6.16135e-15 1 0
2.15105e-15 1 0
-3.52234e-15 1 0
4.63861e-15 1 0
2.15105e-15 1 0
7.72392e-16 1 0
-1.18675e-14 1 0
-5.91905e-15 1 0
1.11367e-14 1 0
3.60882e-15 1 0
-5.91905e-15 1 0
-1.199e-14 1 0
3.60882e-15 1 0
1.01821e-14 1 0
-6.85019e-15 1 0
5.71856e-15 1 0
4.29326e-15 1 0
-1.15597e-14 1 0
5.71856e-15 1 0
-9.36348e-15 1 0
-1.15597e-14 1 0
9.99834e-15 1 0
-1.199e-14 1 0
-9.10833e-15 1 0
1.01821e-14 1 0
8.38907e-15 1 0
-9.10833e-15 1 0
-1.83848e-15 1 0
8.38907e-15 1 0
-2.01748e-15 1 0
-9.36348e-15 1 0
5.07321e-15 1 0
9.99834e-15 1 0
-2.41081e-15 1 0
5.07321e-15 1 0
-3.70869e-15 1 0
-2.41081e-15 1 0
5.26896e-15 1 0
1.60706e-15 1 0
6.78398e-15 1 0
2.77695e-15 1 0
9.05805e-15 1 0
6.78398e-15 1 0
8.07412e-15 1 0
9.05805e-15 1 0
-7.34533e-15 1 0
4.63861e-15 1 0
-1.46883e-14 1 0
7.72392e-16 1 0
7.07248e-15 1 0
-1.46883e-14 1 0
4.76378e-15 1 0
7.07248e-15 1 0
4.69012e-15 1 0
8.07412e-15 1 0
-6.59026e-15 1 0
-7.34533e-15 1 0
2.99279e-15 1 0
-6.59026e-15 1 0
-8.0542e-15 1 0
2.99279e-15 1 0
6.88252e-15 1 0
4.76378e-15 1 0
8.59865e-15 1 0
4.69012e-15 1 0
2.22157e-15 1 0
8.59865e-15 1 0
3.66565e-15 1 0
2.22157e-15 1 0
-2.15937e-15 1 0
-1.83848e-15 1 0
1.64391e-15 1 0
-2.01748e-15 1 0
7.58997e-15 1 0
1.64391e-15 1 0
2.39612e-15 1 0
7.58997e-15 1 0
-4.7009e-15 1 0
-3.70869e-15 1 0
-7.61402e-15 1 0
5.26896e-15 1 0
6.98896e-17 1 0
-7.61402e-15 1 0
2.49409e-15 1 0
6.98896e-17 1 0
4.30566e-15 1 0
2.39612e-15 1 0
-6.92503e-15 1 0
-4.7009e-15 1 0
1.01872e-14 1 0
-6.92503e-15 1 0
3.09236e-15 1 0
1.01872e-14 1 0
-6.42914e-16 1 0
2.49409e-15 1 0
-2.30431e-15 1 0
4.30566e-15 1 0
3.70963e-15 1 0
-2.30431e-15 1 0
-7.05671e-16 1 0
3.70963e-15 1 0
-1.77523e-15 1 0
0 1 0
9.05854e-15 1 0
0 1 0
-1.08651e-14 1 0
9.05854e-15 1 0
1.69697e-15 1 0
-1.08651e-14 1 0
-4.8211e-15 1 0
0 1 0
-3.25767e-16 1 0
0 1 0
3.57764e-15 1 0
-3.25767e-16 1 0
-6.06105e-15 1 0
3.57764e-15 1 0
6.68535e-15 1 0
1.69697e-15 1 0
-1.3426e-14 1 0
-4.8211e-15 1 0
8.13873e-17 1 0
-1.3426e-14 1 0
-8.39122e-15 1 0
8.13873e-17 1 0
1.44697e-14 1 0
-6.06105e-15 1 0
1.38732e-15 1 0
6.68535e-15 1 0
2.11076e-15 1 0
1.38732e-15 1 0
-4.54314e-15 1 0
2.11076e-15 1 0
3.6262e-15 1 0
0 1 0
2.56093e-15 1 0
0 1 0
-4.15186e-15 1 0
2.56093e-15 1 0
-9.3446e-16 1 0
-4.15186e-15 1 0
-8.00297e-16 1 0
0 1 0
1.81092e-14 1 0
0 1 0
-2.94694e-14 1 0
1.81092e-14 1 0
4.57445e-15 1 0
-2.94694e-14 1 0
3.00523e-15 1 0
-9.3446e-16 1 0
-1.29677e-14 1 0
-8.00297e-16 1 0
1.54615e-14 1 0
-1.29677e-14 1 0
-1.76263e-15 1 0
1.54615e-14 1 0
7.55686e-16 1 0
4.57445e-15 1 0
5.53441e-15 1 0
3.00523e-15 1 0
6.2811e-15 1 0
5.53441e-15 1 0
2.04996e-15 1 0
6.2811e-15 1 0
4.22986e-15 1 0
-8.39122e-15 1 0
-1.38776e-14 1 0
1.44697e-14 1 0
8.83587e-15 1 0
-1.38776e-14 1 0
-1.45143e-14 1 0
8.83587e-15 1 0
1.74882e-14 1 0
-4.54314e-15 1 0
-8.65746e-15 1 0
3.6262e-15 1 0
9.50395e-15 1 0
-8.65746e-15 1 0
-2.04706e-14 1 0
9.50395e-15 1 0
1.72318e-14 1 0
-1.45143e-14 1 0
-2.04399e-14 1 0
1.74882e-14 1 0
1.02947e-14 1 0
-2.04399e-14 1 0
-3.92161e-15 1 0
1.02947e-14 1 0
5.06096e-15 1 0
-2.04706e-14 1 0
6.66496e-15 1 0
1.72318e-14 1 0
9.10438e-15 1 0
6.66496e-15 1 0
-8.58572e-15 1 0
9.10438e-15 1 0
2.04051e-14 1 0
-1.76263e-15 1 0
-2.46718e-15 1 0
7.55686e-16 1 0
8.57475e-15 1 0
-2.46718e-15 1 0
-1.09606e-14 1 0
8.57475e-15 1 0
2.08762e-14 1 0
2.04996e-15 1 0
-2.15754e-15 1 0
4.22986e-15 1 0
-6.28949e-15 1 0
-2.15754e-15 1 0
-1.01237e-14 1 0
-6.28949e-15 1 0
4.96041e-15 1 0
-1.09606e-14 1 0
-8.41403e-16 1 0
2.08762e-14 1 0
3.99875e-15 1 0
-8.41403e-16 1 0
-4.91262e-15 1 0
3.99875e-15 1 0
5.73525e-15 1 0
-1.01237e-14 1 0
-1.83042e-15 1 0
4.96041e-15 1 0
7.41297e-17 1 0
-1.83042e-15 1 0
-6.37601e-15 1 0
7.41297e-17 1 0
1.40435e-14 1 0
0 1 0
2.4721e-14 1 0
0 1 0
-1.49609e-14 1 0
2.4721e-14 1 0
3.09065e-15 1 0
-1.49609e-14 1 0
-9.18607e-15 1 0
0 1 0
5.28918e-15 1 0
0 1 0
2.41761e-15 1 0
5.28918e-15 1 0
7.08066e-15 1 0
2.41761e-15 1 0
4.08621e-15 1 0
3.09065e-15 1 0
1.22304e-15 1 0
-9.18607e-15 1 0
-2.00335e-15 1 0
1.22304e-15 1 0
5.2611e-15 1 0
-2.00335e-15 1 0
4.16996e-15 1 0
7.08066e-15 1 0
-1.22315e-14 1 0
4.08621e-15 1 0
1.40826e-14 1 0
-1.22315e-14 1 0
-5.54438e-15 1 0
1.40826e-14 1 0
1.57578e-15 1 0
0 1 0
6.81838e-15 1 0
0 1 0
-1.27332e-14 1 0
6.81838e-15 1 0
2.20871e-16 1 0
-1.27332e-14 1 0
-6.90439e-15 1 0
0 1 0
4.9139e-15 1 0
0 1 0
8.74691e-16 1 0
4.9139e-15 1 0
-6.68925e-16 1 0
8.74691e-16 1 0
1.68831e-15 1 0
2.20871e-16 1 0
-3.6954e-15 1 0
-6.90439e-15 1 0
2.66685e-15 1 0
-3.6954e-15 1 0
-2.03014e-15 1 0
2.66685e-15 1 0
-9.01831e-16 1 0
-6.68925e-16 1 0
1.02004e-15 1 0
1.68831e-15 1 0
-2.8168e-17 1 0
1.02004e-15 1 0
1.31269e-14 1 0
-2.8168e-17 1 0
-3.5275e-15 1 0
5.2611e-15 1 0
1.13782e-14 1 0
4.16996e-15 1 0
1.76257e-15 1 0
1.13782e-14 1 0
-1.69862e-15 1 0
1.76257e-15 1 0
3.12e-17 1 0
-5.54438e-15 1 0
-7.37731e-15 1 0
1.57578e-15 1 0
-3.07177e-15 1 0
-7.37731e-15 1 0
-1.10272e-15 1 0
-3.07177e-15 1 0
3.09312e-15 1 0
-1.69862e-15 1 0
1.8539e-15 1 0
3.12e-17 1 0
-7.73797e-16 1 0
1.8539e-15 1 0
-8.97878e-15 1 0
-7.73797e-16 1 0
5.54173e-15 1 0
-1.10272e-15 1 0
-6.86545e-15 1 0
3.09312e-15 1 0
1.32399e-14 1 0
-6.86545e-15 1 0
-5.76972e-15 1 0
1.32399e-14 1 0
1.13145e-14 1 0
-2.03014e-15 1 0
4.329e-15 1 0
-9.01831e-16 1 0
4.57976e-15 1 0
4.329e-15 1 0
-1.14781e-14 1 0
4.57976e-15 1 0
1.82705e-14 1 0
1.31269e-14 1 0
2.1468e-15 1 0
-3.5275e-15 1 0
3.01986e-15 1 0
2.1468e-15 1 0
-3.17535e-15 1 0
3.01986e-15 1 0
5.42776e-15 1 0
-1.14781e-14 1 0
-8.41961e-15 1 0
1.82705e-14 1 0
6.05933e-15 1 0
-8.41961e-15 1 0
-1.50293e-14 1 0
6.05933e-15 1 0
1.00161e-14 1 0
-3.17535e-15 1 0
-1.77094e-15 1 0
5.42776e-15 1 0
6.58166e-15 1 0
-1.77094e-15 1 0
9.88184e-15 1 0
6.58166e-15 1 0
-3.95366e-15 1 0
-3.92161e-15 1 0
5.54699e-15 1 0
5.06096e-15 1 0
1.59493e-15 1 0
5.54699e-15 1 0
-5.32455e-15 1 0
1.59493e-15 1 0
1.28188e-14 1 0
-8.58572e-15 1 0
6.50825e-16 1 0
2.04051e-14 1 0
1.02737e-14 1 0
6.50825e-16 1 0
-1.49726e-15 1 0
1.02737e-14 1 0
8.53732e-16 1 0
-5.32455e-15 1 0
3.77535e-15 1 0
1.28188e-14 1 0
-5.53196e-16 1 0
3.77535e-15 1 0
1.20214e-15 1 0
-5.53196e-16 1 0
4.38294e-15 1 0
-1.49726e-15 1 0
1.13422e-14 1 0
8.53732e-16 1 0
-6.31727e-15 1 0
1.13422e-14 1 0
1.86563e-15 1 0
-6.31727e-15 1 0
4.35066e-15 1 0
-4.91262e-15 1 0
-1.27013e-14 1 0
5.73525e-15 1 0
1.33161e-14 1 0
-1.27013e-14 1 0
-1.138e-15 1 0
1.33161e-14 1 0
-3.00908e-15 1 0
-6.37601e-15 1 0
-5.59212e-15 1 0
1.40435e-14 1 0
6.9249e-15 1 0
-5.59212e-15 1 0
1.17733e-15 1 0
6.9249e-15 1 0
1.12381e-14 1 0
-1.138e-15 1 0
-7.12552e-15 1 0
-3.00908e-15 1 0
8.57872e-15 1 0
-7.12552e-15 1 0
-1.40214e-15 1 0
8.57872e-15 1 0
9.31229e-15 1 0
1.17733e-15 1 0
-1.5912e-15 1 0
1.12381e-14 1 0
3.34288e-15 1 0
-1.5912e-15 1 0
-3.17029e-15 1 0
3.34288e-15 1 0
5.25953e-15 1 0
1.20214e-15 1 0
1.50486e-14 1 0
4.38294e-15 1 0
-8.41895e-15 1 0
1.50486e-14 1 0
-5.09614e-15 1 0
-8.41895e-15 1 0
1.96617e-14 1 0
1.86563e-15 1 0
7.1354e-15 1 0
4.35066e-15 1 0
-1.88724e-15 1 0
7.1354e-15 1 0
-9.93598e-15 1 0
-1.88724e-15 1 0
4.80685e-15 1 0
-5.09614e-15 1 0
-9.05183e-15 1 0
1.96617e-14 1 0
1.03909e-14 1 0
-9.05183e-15 1 0
2.86425e-15 1 0
1.03909e-14 1 0
1.46905e-14 1 0
-9.93598e-15 1 0
7.63456e-15 1 0
4.80685e-15 1 0
4.88074e-15 1 0
7.63456e-15 1 0
6.80305e-15 1 0
4.88074e-15 1 0
8.58855e-16 1 0
-1.40214e-15 1 0
1.77291e-15 1 0
9.31229e-15 1 0
4.66959e-15 1 0
1.77291e-15 1 0
4.68949e-15 1 0
4.66959e-15 1 0
-8.54247e-15 1 0
-3.17029e-15 1 0
7.84446e-15 1 0
5.25953e-15 1 0
-2.30816e-15 1 0
7.84446e-15 1 0
5.80982e-15 1 0
-2.30816e-15 1 0
5.39284e-15 1 0
4.68949e-15 1 0
-3.53962e-15 1 0
-8.54247e-15 1 0
1.14956e-14 1 0
-3.53962e-15 1 0
-5.4685e-15 1 0
1.14956e-14 1 0
1.42334e-14 1 0
5.80982e-15 1 0
-3.27423e-15 1 0
5.39284e-15 1 0
-4.095e-15 1 0
-3.27423e-15 1 0
-3.2198e-15 1 0
-4.095e-15 1 0
7.72293e-15 1 0
-8.97878e-15 1 0
-3.88832e-15 1 0
5.54173e-15 1 0
2.62063e-15 1 0
-3.88832e-15 1 0
-1.24317e-14 1 0
2.62063e-15 1 0
1.25047e-14 1 0
-5.76972e-15 1 0
2.44418e-15 1 0
1.13145e-14 1 0
8.02623e-15 1 0
2.44418e-15 1 0
-6.36332e-15 1 0
8.02623e-15 1 0
2.17179e-15 1 0
-1.24317e-14 1 0
9.0683e-15 1 0
1.25047e-14 1 0
-8.3937e-15 1 0
9.0683e-15 1 0
-7.08351e-15 1 0
-8.3937e-15 1 0
-1.14483e-15 1 0
-6.36332e-15 1 0
1.23698e-14 1 0
2.17179e-15 1 0
-1.16402e-14 1 0
1.23698e-14 1 0
3.05865e-15 1 0
-1.16402e-14 1 0
-4.12947e-15 1 0
-1.50293e-14 1 0
-1.24123e-14 1 0
1.00161e-14 1 0
3.11302e-15 1 0
-1.24123e-14 1 0
6.87142e-15 1 0
3.11302e-15 1 0
8.70851e-16 1 0
9.88184e-15 1 0
5.35949e-15 1 0
-3.95366e-15 1 0
9.80704e-15 1 0
5.35949e-15 1 0
3.26123e-15 1 0
9.80704e-15 1 0
3.03889e-15 1 0
6.87142e-15 1 0
6.65612e-15 1 0
8.70851e-16 1 0
1.75527e-15 1 0
6.65612e-15 1 0
6.152e-15 1 0
1.75527e-15 1 0
7.56341e-15 1 0
3.26123e-15 1 0
-2.48354e-15 1 0
3.03889e-15 1 0
6.20084e-15 1 0
-2.48354e-15 1 0
1.79909e-15 1 0
6.20084e-15 1 0
-3.78238e-15 1 0
-7.08351e-15 1 0
-8.3308e-15 1 0
-1.14483e-15 1 0
-3.4624e-16 1 0
-8.3308e-15 1 0
3.95208e-15 1 0
-3.4624e-16 1 0
-6.00951e-15 1 0
3.05865e-15 1 0
6.42521e-15 1 0
-4.12947e-15 1 0
-3.29588e-17 1 0
6.42521e-15 1 0
2.90869e-15 1 0
-3.29588e-17 1 0
1.12154e-15 1 0
3.95208e-15 1 0
3.46429e-15 1 0
-6.00951e-15 1 0
1.67775e-15 1 0
3.46429e-15 1 0
-7.72681e-15 1 0
1.67775e-15 1 0
9.62349e-15 1 0
2.90869e-15 1 0
-6.99369e-15 1 0
1.12154e-15 1 0
7.54845e-15 1 0
-6.99369e-15 1 0
-5.52086e-15 1 0
7.54845e-15 1 0
4.60511e-15 1 0
6.152e-15 1 0
1.27732e-15 1 0
7.56341e-15 1 0
9.39935e-16 1 0
1.27732e-15 1 0
-4.34701e-15 1 0
9.39935e-16 1 0
7.92735e-15 1 0
1.79909e-15 1 0
3.24998e-15 1 0
-3.78238e-15 1 0
8.98107e-15 1 0
3.24998e-15 1 0
-3.83629e-15 1 0
8.98107e-15 1 0
1.5094e-14 1 0
-4.34701e-15 1 0
3.74649e-15 1 0
7.92735e-15 1 0
7.83775e-15 1 0
3.74649e-15 1 0
8.39994e-16 1 0
7.83775e-15 1 0
-2.97261e-15 1 0
-3.83629e-15 1 0
-7.91105e-16 1 0
1.5094e-14 1 0
-1.46819e-15 1 0
-7.91105e-16 1 0
1.03499e-14 1 0
-1.46819e-15 1 0
-3.72197e-15 1 0
1.97896e-15 1 0
1.0654e-14 1 0
1.00604e-14 1 0
-2.75666e-15 1 0
1.0654e-14 1 0
9.29357e-15 1 0
-2.75666e-15 1 0
4.43022e-16 1 0
-5.5033e-15 1 0
-8.80475e-15 1 0
1.29316e-14 1 0
1.63976e-14 1 0
-8.80475e-15 1 0
-2.23942e-15 1 0
1.63976e-14 1 0
6.62885e-15 1 0
9.29357e-15 1 0
-6.42419e-16 1 0
4.43022e-16 1 0
1.33328e-14 1 0
-6.42419e-16 1 0
-1.06826e-15 1 0
1.33328e-14 1 0
9.5033e-15 1 0
-2.23942e-15 1 0
-1.28878e-14 1 0
6.62885e-15 1 0
1.7603e-14 1 0
-1.28878e-14 1 0
-1.74579e-14 1 0
1.7603e-14 1 0
2.21692e-14 1 0
-1.67634e-14 1 0
-4.13358e-15 1 0
2.49567e-14 1 0
2.1672e-14 1 0
-4.13358e-15 1 0
3.89514e-16 1 0
2.1672e-14 1 0
1.96297e-14 1 0
-1.07207e-14 1 0
-1.21951e-14 1 0
1.12965e-14 1 0
6.92527e-15 1 0
-1.21951e-14 1 0
-1.46173e-14 1 0
6.92527e-15 1 0
7.47231e-15 1 0
3.89514e-16 1 0
-3.79723e-15 1 0
1.96297e-14 1 0
2.04702e-14 1 0
-3.79723e-15 1 0
9.01722e-15 1 0
2.04702e-14 1 0
1.01397e-14 1 0
-1.46173e-14 1 0
-1.59682e-14 1 0
7.47231e-15 1 0
8.38408e-15 1 0
-1.59682e-14 1 0
-8.40222e-15 1 0
8.38408e-15 1 0
5.07542e-15 1 0
-1.06826e-15 1 0
-4.22854e-15 1 0
9.5033e-15 1 0
1.00839e-14 1 0
-4.22854e-15 1 0
1.61134e-14 1 0
1.00839e-14 1 0
-2.36176e-15 1 0
-1.74579e-14 1 0
-1.60664e-14 1 0
2.21692e-14 1 0
1.49147e-14 1 0
-1.60664e-14 1 0
-3.10403e-14 1 0
1.49147e-14 1 0
3.55902e-14 1 0
1.61134e-14 1 0
1.75794e-14 1 0
-2.36176e-15 1 0
-1.01829e-14 1 0
1.75794e-14 1 0
-6.14775e-16 1 0
-1.01829e-14 1 0
1.44421e-15 1 0
-3.10403e-14 1 0
-7.0089e-15 1 0
3.55902e-14 1 0
1.65607e-14 1 0
-7.0089e-15 1 0
1.28549e-16 1 0
1.65607e-14 1 0
1.0618e-14 1 0
9.01722e-15 1 0
1.87423e-14 1 0
1.01397e-14 1 0
-4.15918e-15 1 0
1.87423e-14 1 0
7.32337e-18 1 0
-4.15918e-15 1 0
5.54238e-15 1 0
-8.40222e-15 1 0
1.41726e-14 1 0
5.07542e-15 1 0
4.4144e-16 1 0
1.41726e-14 1 0
2.98498e-15 1 0
4.4144e-16 1 0
1.08464e-14 1 0
7.32337e-18 1 0
1.45253e-15 1 0
5.54238e-15 1 0
1.23711e-14 1 0
1.45253e-15 1 0
9.2004e-15 1 0
1.23711e-14 1 0
5.47824e-15 1 0
2.98498e-15 1 0
-7.79046e-15 1 0
1.08464e-14 1 0
2.20485e-15 1 0
-7.79046e-15 1 0
5.32472e-15 1 0
2.20485e-15 1 0
-6.51982e-15 1 0
-8.0542e-15 1 0
8.68454e-15 1 0
6.88252e-15 1 0
-3.90681e-15 1 0
8.68454e-15 1 0
1.81587e-14 1 0
-3.90681e-15 1 0
-1.76578e-14 1 0
3.66565e-15 1 0
-2.81589e-15 1 0
-2.15937e-15 1 0
1.32191e-14 1 0
-2.81589e-15 1 0
1.44566e-14 1 0
1.32191e-14 1 0
-1.16302e-14 1 0
1.81587e-14 1 0
5.56349e-15 1 0
-1.76578e-14 1 0
4.52775e-16 1 0
5.56349e-15 1 0
8.70232e-15 1 0
4.52775e-16 1 0
-9.01799e-15 1 0
1.44566e-14 1 0
4.54927e-15 1 0
-1.16302e-14 1 0
-3.53897e-15 1 0
4.54927e-15 1 0
1.39466e-14 1 0
-3.53897e-15 1 0
-3.47308e-15 1 0
3.09236e-15 1 0
-1.53211e-14 1 0
-6.42914e-16 1 0
9.67509e-15 1 0
-1.53211e-14 1 0
1.26989e-14 1 0
9.67509e-15 1 0
-6.59187e-15 1 0
-7.05671e-16 1 0
2.73957e-15 1 0
-1.77523e-15 1 0
-7.70992e-15 1 0
2.73957e-15 1 0
1.27711e-14 1 0
-7.70992e-15 1 0
-3.80601e-15 1 0
1.26989e-14 1 0
8.97063e-15 1 0
-6.59187e-15 1 0
5.02198e-15 1 0
8.97063e-15 1 0
3.89194e-15 1 0
5.02198e-15 1 0
6.59049e-15 1 0
1.27711e-14 1 0
-9.54893e-16 1 0
-3.80601e-15 1 0
1.14079e-14 1 0
-9.54893e-16 1 0
1.53659e-15 1 0
1.14079e-14 1 0
3.25252e-15 1 0
8.70232e-15 1 0
-1.6622e-14 1 0
-9.01799e-15 1 0
1.862e-14 1 0
-1.6622e-14 1 0
-4.12657e-15 1 0
1.862e-14 1 0
2.89658e-15 1 0
1.39466e-14 1 0
3.92535e-15 1 0
-3.47308e-15 1 0
-8.61301e-15 1 0
3.92535e-15 1 0
5.2758e-15 1 0
-8.61301e-15 1 0
-1.16167e-14 1 0
-4.12657e-15 1 0
8.86146e-15 1 0
2.89658e-15 1 0
2.88436e-15 1 0
8.86146e-15 1 0
1.15771e-14 1 0
2.88436e-15 1 0
-1.22262e-14 1 0
5.2758e-15 1 0
2.47675e-16 1 0
-1.16167e-14 1 0
-1.05916e-14 1 0
2.47675e-16 1 0