# vtk DataFile Version 3.0
#This file was generated by the deal.II library on 2018/10/14 at 17:35:09
ASCII
DATASET UNSTRUCTURED_GRID

POINTS 20480 double
0 0 0
0.19635 0 0
0 0.312041 0
0.19635 0.312041 0
0.19635 0 0
0.392699 0 0
0.19635 0.312041 0
0.392699 0.312041 0
0 0.312041 0
0.19635 0.312041 0
0 0.624565 0
0.19635 0.624565 0
0.19635 0.312041 0
0.392699 0.312041 0
0.19635 0.624565 0
0.392699 0.624565 0
0.392699 0 0
0.589049 0 0
0.392699 0.312041 0
0.589049 0.312041 0
0.589049 0 0
0.785398 0 0
0.589049 0.312041 0
0.785398 0.312041 0
0.392699 0.312041 0
0.589049 0.312041 0
0.392699 0.624565 0
0.589049 0.624565 0
0.589049 0.312041 0
0.785398 0.312041 0
0.589049 0.624565 0
0.785398 0.624565 0
0 0.624565 0
0.19635 0.624565 0
0 0.937069 0
0.19635 0.937069 0
0.19635 0.624565 0
0.392699 0.624565 0
0.19635 0.937069 0
0.392699 0.937069 0
0 0.937069 0
0.19635 0.937069 0
0 1.24959 0
0.19635 1.24959 0
0.19635 0.937069 0
0.392699 0.937069 0
0.19635 1.24959 0
0.392699 1.24959 0
0.392699 0.624565 0
0.589049 0.624565 0
0.392699 0.937069 0
0.589049 0.937069 0
0.589049 0.624565 0
0.785398 0.624565 0
0.589049 0.937069 0
0.785398 0.937069 0
0.392699 0.937069 0
0.589049 0.937069 0
0.392699 1.24959 0
0.589049 1.24959 0
0.589049 0.937069 0
0.785398 0.937069 0
0.589049 1.24959 0
0.785398 1.24959 0
0.785398 0 0
0.981748 0 0
0.785398 0.312041 0
0.981748 0.312041 0
0.981748 0 0
1.1781 0 0
0.981748 0.312041 0
1.1781 0.312041 0
0.785398 0.312041 0
0.981748 0.312041 0
0.785398 0.624565 0
0.981748 0.624565 0
0.981748 0.312041 0
1.1781 0.312041 0
0.981748 0.624565 0
1.1781 0.624565 0
1.1781 0 0
1.37445 0 0
1.1781 0.312041 0
1.37445 0.312041 0
1.37445 0 0
1.5708 0 0
1.37445 0.312041 0
1.5708 0.312041 0
1.1781 0.312041 0
1.37445 0.312041 0
1.1781 0.624565 0
1.37445 0.624565 0
1.37445 0.312041 0
1.5708 0.312041 0
1.37445 0.624565 0
1.5708 0.624565 0
0.785398 0.624565 0
0.981748 0.624565 0
0.785398 0.937069 0
0.981748 0.937069 0
0.981748 0.624565 0
1.1781 0.624565 0
0.981748 0.937069 0
1.1781 0.937069 0
0.785398 0.937069 0
0.981748 0.937069 0
0.785398 1.24959 0
0.981748 1.24959 0
0.981748 0.937069 0
1.1781 0.937069 0
0.981748 1.24959 0
1.1781 1.24959 0
1.1781 0.624565 0
1.37445 0.624565 0
1.1781 0.937069 0
1.37445 0.937069 0
1.37445 0.624565 0
1.5708 0.624565 0
1.37445 0.937069 0
1.5708 0.937069 0
1.1781 0.937069 0
1.37445 0.937069 0
1.1781 1.24959 0
1.37445 1.24959 0
1.37445 0.937069 0
1.5708 0.937069 0
1.37445 1.24959 0
1.5708 1.24959 0
0 1.24959 0
0.19635 1.24959 0
0 1.5621 0
0.19635 1.5621 0
0.19635 1.24959 0
0.392699 1.24959 0
0.19635 1.5621 0
0.392699 1.5621 0
0 1.5621 0
0.19635 1.5621 0
0 1.87462 0
0.19635 1.87462 0
0.19635 1.5621 0
0.392699 1.5621 0
0.19635 1.87462 0
0.392699 1.87462 0
0.392699 1.24959 0
0.589049 1.24959 0
0.392699 1.5621 0
0.589049 1.5621 0
0.589049 1.24959 0
0.785398 1.24959 0
0.589049 1.5621 0
0.785398 1.5621 0
0.392699 1.5621 0
0.589049 1.5621 0
0.392699 1.87462 0
0.589049 1.87462 0
0.589049 1.5621 0
0.785398 1.5621 0
0.589049 1.87462 0
0.785398 1.87462 0
0 1.87462 0
0.19635 1.87462 0
0 2.18714 0
0.19635 2.18714 0
0.19635 1.87462 0
0.392699 1.87462 0
0.19635 2.18714 0
0.392699 2.18714 0
0 2.18714 0
0.19635 2.18714 0
0 2.49965 0
0.19635 2.49965 0
0.19635 2.18714 0
0.392699 2.18714 0
0.19635 2.49965 0
0.392699 2.49965 0
0.392699 1.87462 0
0.589049 1.87462 0
0.392699 2.18714 0
0.589049 2.18714 0
0.589049 1.87462 0
0.785398 1.87462 0
0.589049 2.18714 0
0.785398 2.18714 0
0.392699 2.18714 0
0.589049 2.18714 0
0.392699 2.49965 0
0.589049 2.49965 0
0.589049 2.18714 0
0.785398 2.18714 0
0.589049 2.49965 0
0.785398 2.49965 0
0.785398 1.24959 0
0.981748 1.24959 0
0.785398 1.5621 0
0.981748 1.5621 0
0.981748 1.24959 0
1.1781 1.24959 0
0.981748 1.5621 0
1.1781 1.5621 0
0.785398 1.5621 0
0.981748 1.5621 0
0.785398 1.87462 0
0.981748 1.87462 0
0.981748 1.5621 0
1.1781 1.5621 0
0.981748 1.87462 0
1.1781 1.87462 0
1.1781 1.24959 0
1.37445 1.24959 0
1.1781 1.5621 0
1.37445 1.5621 0
1.37445 1.24959 0
1.5708 1.24959 0
1.37445 1.5621 0
1.5708 1.5621 0
1.1781 1.5621 0
1.37445 1.5621 0
1.1781 1.87462 0
1.37445 1.87462 0
1.37445 1.5621 0
1.5708 1.5621 0
1.37445 1.87462 0
1.5708 1.87462 0
0.785398 1.87462 0
0.981748 1.87462 0
0.785398 2.18714 0
0.981748 2.18714 0
0.981748 1.87462 0
1.1781 1.87462 0
0.981748 2.18714 0
1.1781 2.18714 0
0.785398 2.18714 0
0.981748 2.18714 0
0.785398 2.49965 0
0.981748 2.49965 0
0.981748 2.18714 0
1.1781 2.18714 0
0.981748 2.49965 0
1.1781 2.49965 0
1.1781 1.87462 0
1.37445 1.87462 0
1.1781 2.18714 0
1.37445 2.18714 0
1.37445 1.87462 0
1.5708 1.87462 0
1.37445 2.18714 0
1.5708 2.18714 0
1.1781 2.18714 0
1.37445 2.18714 0
1.1781 2.49965 0
1.37445 2.49965 0
1.37445 2.18714 0
1.5708 2.18714 0
1.37445 2.49965 0
1.5708 2.49965 0
1.5708 0 0
1.76715 0 0
1.5708 0.312041 0
1.76715 0.312041 0
1.76715 0 0
1.9635 0 0
1.76715 0.312041 0
1.9635 0.312041 0
1.5708 0.312041 0
1.76715 0.312041 0
1.5708 0.624565 0
1.76715 0.624565 0
1.76715 0.312041 0
1.9635 0.312041 0
1.76715 0.624565 0
1.9635 0.624565 0
1.9635 0 0
2.15984 0 0
1.9635 0.312041 0
2.15984 0.312041 0
2.15984 0 0
2.35619 0 0
2.15984 0.312041 0
2.35619 0.312041 0
1.9635 0.312041 0
2.15984 0.312041 0
1.9635 0.624565 0
2.15984 0.624565 0
2.15984 0.312041 0
2.35619 0.312041 0
2.15984 0.624565 0
2.35619 0.624565 0
1.5708 0.624565 0
1.76715 0.624565 0
1.5708 0.937069 0
1.76715 0.937069 0
1.76715 0.624565 0
1.9635 0.624565 0
1.76715 0.937069 0
1.9635 0.937069 0
1.5708 0.937069 0
1.76715 0.937069 0
1.5708 1.24959 0
1.76715 1.24959 0
1.76715 0.937069 0
1.9635 0.937069 0
1.76715 1.24959 0
1.9635 1.24959 0
1.9635 0.624565 0
2.15984 0.624565 0
1.9635 0.937069 0
2.15984 0.937069 0
2.15984 0.624565 0
2.35619 0.624565 0
2.15984 0.937069 0
2.35619 0.937069 0
1.9635 0.937069 0
2.15984 0.937069 0
1.9635 1.24959 0
2.15984 1.24959 0
2.15984 0.937069 0
2.35619 0.937069 0
2.15984 1.24959 0
2.35619 1.24959 0
2.35619 0 0
2.55254 0 0
2.35619 0.312041 0
2.55254 0.312041 0
2.55254 0 0
2.74889 0 0
2.55254 0.312041 0
2.74889 0.312041 0
2.35619 0.312041 0
2.55254 0.312041 0
2.35619 0.624565 0
2.55254 0.624565 0
2.55254 0.312041 0
2.74889 0.312041 0
2.55254 0.624565 0
2.74889 0.624565 0
2.74889 0 0
2.94524 0 0
2.74889 0.312041 0
2.94524 0.312041 0
2.94524 0 0
3.14159 0 0
2.94524 0.312041 0
3.14159 0.312041 0
2.74889 0.312041 0
2.94524 0.312041 0
2.74889 0.624565 0
2.94524 0.624565 0
2.94524 0.312041 0
3.14159 0.312041 0
2.94524 0.624565 0
3.14159 0.624565 0
2.35619 0.624565 0
2.55254 0.624565 0
2.35619 0.937069 0
2.55254 0.937069 0
2.55254 0.624565 0
2.74889 0.624565 0
2.55254 0.937069 0
2.74889 0.937069 0
2.35619 0.937069 0
2.55254 0.937069 0
2.35619 1.24959 0
2.55254 1.24959 0
2.55254 0.937069 0
2.74889 0.937069 0
2.55254 1.24959 0
2.74889 1.24959 0
2.74889 0.624565 0
2.94524 0.624565 0
2.74889 0.937069 0
2.94524 0.937069 0
2.94524 0.624565 0
3.14159 0.624565 0
2.94524 0.937069 0
3.14159 0.937069 0
2.74889 0.937069 0
2.94524 0.937069 0
2.74889 1.24959 0
2.94524 1.24959 0
2.94524 0.937069 0
3.14159 0.937069 0
2.94524 1.24959 0
3.14159 1.24959 0
1.5708 1.24959 0
1.76715 1.24959 0
1.5708 1.5621 0
1.76715 1.5621 0
1.76715 1.24959 0
1.9635 1.24959 0
1.76715 1.5621 0
1.9635 1.5621 0
1.5708 1.5621 0
1.76715 1.5621 0
1.5708 1.87462 0
1.76715 1.87462 0
1.76715 1.5621 0
1.9635 1.5621 0
1.76715 1.87462 0
1.9635 1.87462 0
1.9635 1.24959 0
2.15984 1.24959 0
1.9635 1.5621 0
2.15984 1.5621 0
2.15984 1.24959 0
2.35619 1.24959 0
2.15984 1.5621 0
2.35619 1.5621 0
1.9635 1.5621 0
2.15984 1.5621 0
1.9635 1.87462 0
2.15984 1.87462 0
2.15984 1.5621 0
2.35619 1.5621 0
2.15984 1.87462 0
2.35619 1.87462 0
1.5708 1.87462 0
1.76715 1.87462 0
1.5708 2.18714 0
1.76715 2.18714 0
1.76715 1.87462 0
1.9635 1.87462 0
1.76715 2.18714 0
1.9635 2.18714 0
1.5708 2.18714 0
1.76715 2.18714 0
1.5708 2.49965 0
1.76715 2.49965 0
1.76715 2.18714 0
1.9635 2.18714 0
1.76715 2.49965 0
1.9635 2.49965 0
1.9635 1.87462 0
2.15984 1.87462 0
1.9635 2.18714 0
2.15984 2.18714 0
2.15984 1.87462 0
2.35619 1.87462 0
2.15984 2.18714 0
2.35619 2.18714 0
1.9635 2.18714 0
2.15984 2.18714 0
1.9635 2.49965 0
2.15984 2.49965 0
2.15984 2.18714 0
2.35619 2.18714 0
2.15984 2.49965 0
2.35619 2.49965 0
2.35619 1.24959 0
2.55254 1.24959 0
2.35619 1.5621 0
2.55254 1.5621 0
2.55254 1.24959 0
2.74889 1.24959 0
2.55254 1.5621 0
2.74889 1.5621 0
2.35619 1.5621 0
2.55254 1.5621 0
2.35619 1.87462 0
2.55254 1.87462 0
2.55254 1.5621 0
2.74889 1.5621 0
2.55254 1.87462 0
2.74889 1.87462 0
2.74889 1.24959 0
2.94524 1.24959 0
2.74889 1.5621 0
2.94524 1.5621 0
2.94524 1.24959 0
3.14159 1.24959 0
2.94524 1.5621 0
3.14159 1.5621 0
2.74889 1.5621 0
2.94524 1.5621 0
2.74889 1.87462 0
2.94524 1.87462 0
2.94524 1.5621 0
3.14159 1.5621 0
2.94524 1.87462 0
3.14159 1.87462 0
2.35619 1.87462 0
2.55254 1.87462 0
2.35619 2.18714 0
2.55254 2.18714 0
2.55254 1.87462 0
2.74889 1.87462 0
2.55254 2.18714 0
2.74889 2.18714 0
2.35619 2.18714 0
2.55254 2.18714 0
2.35619 2.49965 0
2.55254 2.49965 0
2.55254 2.18714 0
2.74889 2.18714 0
2.55254 2.49965 0
2.74889 2.49965 0
2.74889 1.87462 0
2.94524 1.87462 0
2.74889 2.18714 0
2.94524 2.18714 0
2.94524 1.87462 0
3.14159 1.87462 0
2.94524 2.18714 0
3.14159 2.18714 0
2.74889 2.18714 0
2.94524 2.18714 0
2.74889 2.49965 0
2.94524 2.49965 0
2.94524 2.18714 0
3.14159 2.18714 0
2.94524 2.49965 0
3.14159 2.49965 0
0 2.49965 0
0.19635 2.49965 0
0 2.81217 0
0.19635 2.81217 0
0.19635 2.49965 0
0.392699 2.49965 0
0.19635 2.81217 0
0.392699 2.81217 0
0 2.81217 0
0.19635 2.81217 0
0 3.12468 0
0.19635 3.12468 0
0.19635 2.81217 0
0.392699 2.81217 0
0.19635 3.12468 0
0.392699 3.12468 0
0.392699 2.49965 0
0.589049 2.49965 0
0.392699 2.81217 0
0.589049 2.81217 0
0.589049 2.49965 0
0.785398 2.49965 0
0.589049 2.81217 0
0.785398 2.81217 0
0.392699 2.81217 0
0.589049 2.81217 0
0.392699 3.12468 0
0.589049 3.12468 0
0.589049 2.81217 0
0.785398 2.81217 0
0.589049 3.12468 0
0.785398 3.12468 0
0 3.12468 0
0.19635 3.12468 0
0 3.4372 0
0.19635 3.4372 0
0.19635 3.12468 0
0.392699 3.12468 0
0.19635 3.4372 0
0.392699 3.4372 0
0 3.4372 0
0.19635 3.4372 0
0 3.74971 0
[...]
POINT_DATA 20480
VECTORS uf double
0 1 0
2.47852e-15 1 0
0 1 0
-1.17248e-15 1 0
2.47852e-15 1 0
1.2836e-14 1 0
-1.17248e-15 1 0
-7.23047e-15 1 0
0 1 0
-1.14431e-14 1 0
0 1 0
1.12376e-14 1 0
-1.14431e-14 1 0
-1.39305e-14 1 0
1.12376e-14 1 0
1.46624e-14 1 0
1.2836e-14 1 0
-3.87077e-15 1 0
-7.23047e-15 1 0
1.80119e-14 1 0
-3.87077e-15 1 0
-1.82608e-14 1 0
1.80119e-14 1 0
3.51223e-14 1 0
-1.39305e-14 1 0
-2.99317e-14 1 0
1.46624e-14 1 0
2.91586e-14 1 0
-2.99317e-14 1 0
-3.36066e-14 1 0
2.91586e-14 1 0
2.68499e-14 1 0
0 1 0
-1.9676e-15 1 0
0 1 0
-1.76498e-15 1 0
-1.9676e-15 1 0
-2.48996e-14 1 0
-1.76498e-15 1 0
4.01584e-14 1 0
0 1 0
2.19948e-14 1 0
0 1 0
-2.79306e-14 1 0
2.19948e-14 1 0
-4.40878e-14 1 0
-2.79306e-14 1 0
2.71755e-14 1 0
-2.48996e-14 1 0
-1.23262e-14 1 0
4.01584e-14 1 0
1.40814e-14 1 0
-1.23262e-14 1 0
-5.61754e-15 1 0
1.40814e-14 1 0
-2.66787e-15 1 0
-4.40878e-14 1 0
-1.96572e-14 1 0
2.71755e-14 1 0
8.35302e-15 1 0
-1.96572e-14 1 0
2.68414e-15 1 0
8.35302e-15 1 0
1.72692e-14 1 0
-1.82608e-14 1 0
-1.10195e-14 1 0
3.51223e-14 1 0
1.58375e-14 1 0
-1.10195e-14 1 0
-6.30217e-15 1 0
1.58375e-14 1 0
1.42978e-14 1 0
-3.36066e-14 1 0
-7.87675e-15 1 0
2.68499e-14 1 0
1.02561e-14 1 0
-7.87675e-15 1 0
-6.09472e-15 1 0
1.02561e-14 1 0
2.80377e-15 1 0
-6.30217e-15 1 0
-7.61678e-15 1 0
1.42978e-14 1 0
1.81785e-14 1 0
-7.61678e-15 1 0
6.09643e-15 1 0
1.81785e-14 1 0
-5.85332e-15 1 0
-6.09472e-15 1 0
-2.53548e-14 1 0
2.80377e-15 1 0
9.06595e-15 1 0
-2.53548e-14 1 0
-4.9497e-15 1 0
9.06595e-15 1 0
2.75619e-15 1 0
-5.61754e-15 1 0
-1.77733e-14 1 0
-2.66787e-15 1 0
1.11408e-14 1 0
-1.77733e-14 1 0
-1.4799e-14 1 0
1.11408e-14 1 0
1.12354e-14 1 0
2.68414e-15 1 0
-3.73746e-15 1 0
1.72692e-14 1 0
1.21419e-14 1 0
-3.73746e-15 1 0
-6.2509e-15 1 0
1.21419e-14 1 0
1.10706e-15 1 0
-1.4799e-14 1 0
7.97445e-16 1 0
1.12354e-14 1 0
-7.5396e-15 1 0
7.97445e-16 1 0
-1.64561e-14 1 0
-7.5396e-15 1 0
8.43264e-15 1 0
-6.2509e-15 1 0
1.20089e-14 1 0
1.10706e-15 1 0
-4.09933e-15 1 0
1.20089e-14 1 0
-1.2249e-15 1 0
-4.09933e-15 1 0
1.01102e-14 1 0
0 1 0
1.44085e-14 1 0
0 1 0
-3.77157e-15 1 0
1.44085e-14 1 0
-1.4411e-14 1 0
-3.77157e-15 1 0
1.20901e-14 1 0
0 1 0
9.42624e-15 1 0
0 1 0
-9.9135e-15 1 0
9.42624e-15 1 0
-4.4387e-15 1 0
-9.9135e-15 1 0
9.7038e-15 1 0
-1.4411e-14 1 0
-1.46495e-14 1 0
1.20901e-14 1 0
1.07751e-14 1 0
-1.46495e-14 1 0
-5.14035e-14 1 0
1.07751e-14 1 0
4.65506e-14 1 0
-4.4387e-15 1 0
-1.66176e-14 1 0
9.7038e-15 1 0
1.50183e-14 1 0
-1.66176e-14 1 0
-5.07143e-14 1 0
1.50183e-14 1 0
4.40162e-14 1 0
0 1 0
-7.51727e-15 1 0
0 1 0
4.50829e-15 1 0
-7.51727e-15 1 0
-2.27183e-14 1 0
4.50829e-15 1 0
1.65639e-14 1 0
0 1 0
-1.04427e-15 1 0
0 1 0
-1.30414e-15 1 0
-1.04427e-15 1 0
-2.88079e-14 1 0
-1.30414e-15 1 0
3.76101e-14 1 0
-2.27183e-14 1 0
1.09693e-15 1 0
1.65639e-14 1 0
-1.94773e-15 1 0
1.09693e-15 1 0
-1.9361e-14 1 0
-1.94773e-15 1 0
1.67632e-14 1 0
-2.88079e-14 1 0
-2.38323e-15 1 0
3.76101e-14 1 0
-5.17523e-15 1 0
-2.38323e-15 1 0
-5.43061e-15 1 0
-5.17523e-15 1 0
-1.3296e-14 1 0
-5.14035e-14 1 0
-1.70696e-14 1 0
4.65506e-14 1 0
9.74413e-15 1 0
-1.70696e-14 1 0
6.21768e-16 1 0
9.74413e-15 1 0
8.92646e-15 1 0
-5.07143e-14 1 0
-1.93285e-14 1 0
4.40162e-14 1 0
3.10783e-14 1 0
-1.93285e-14 1 0
-6.24293e-15 1 0
3.10783e-14 1 0
3.9675e-15 1 0
6.21768e-16 1 0
-7.11663e-15 1 0
8.92646e-15 1 0
2.17863e-14 1 0
-7.11663e-15 1 0
-1.07758e-15 1 0
2.17863e-14 1 0
1.14443e-14 1 0
-6.24293e-15 1 0
-1.81299e-14 1 0
3.9675e-15 1 0
2.0372e-14 1 0
-1.81299e-14 1 0
-2.05949e-14 1 0
2.0372e-14 1 0
2.18463e-14 1 0
-1.9361e-14 1 0
-1.21973e-14 1 0
1.67632e-14 1 0
1.01543e-14 1 0
-1.21973e-14 1 0
4.82366e-15 1 0
1.01543e-14 1 0
-2.77004e-15 1 0
-5.43061e-15 1 0
-3.63579e-14 1 0
-1.3296e-14 1 0
2.89727e-14 1 0
-3.63579e-14 1 0
-1.41648e-14 1 0
2.89727e-14 1 0
1.50961e-14 1 0
4.82366e-15 1 0
-7.05954e-15 1 0
-2.77004e-15 1 0
-4.86308e-15 1 0
-7.05954e-15 1 0
-1.81017e-14 1 0
-4.86308e-15 1 0
2.36806e-14 1 0
-1.41648e-14 1 0
8.87726e-15 1 0
1.50961e-14 1 0
-3.04741e-15 1 0
8.87726e-15 1 0
-1.67858e-14 1 0
-3.04741e-15 1 0
1.70335e-14 1 0
6.09643e-15 1 0
-9.56976e-15 1 0
-5.85332e-15 1 0
1.81532e-14 1 0
-9.56976e-15 1 0
-1.84679e-14 1 0
1.81532e-14 1 0
2.48079e-14 1 0
-4.9497e-15 1 0
-3.61836e-14 1 0
2.75619e-15 1 0
3.1776e-14 1 0
-3.61836e-14 1 0
-2.26802e-14 1 0
3.1776e-14 1 0
1.46647e-14 1 0
-1.84679e-14 1 0
-1.29147e-14 1 0
2.48079e-14 1 0
2.28276e-14 1 0
-1.29147e-14 1 0
4.46594e-15 1 0
2.28276e-14 1 0
-9.31423e-15 1 0
-2.26802e-14 1 0
-3.99465e-14 1 0
1.46647e-14 1 0
3.71683e-14 1 0
-3.99465e-14 1 0
3.78687e-15 1 0
3.71683e-14 1 0
-7.89284e-15 1 0
-1.64561e-14 1 0
-2.91725e-14 1 0
8.43264e-15 1 0
2.09101e-14 1 0
-2.91725e-14 1 0
-2.87751e-14 1 0
2.09101e-14 1 0
3.13534e-14 1 0
-1.2249e-15 1 0
-2.76377e-14 1 0
1.01102e-14 1 0
4.082e-14 1 0
-2.76377e-14 1 0
-8.13122e-15 1 0
4.082e-14 1 0
6.82644e-15 1 0
-2.87751e-14 1 0
-2.53599e-14 1 0
3.13534e-14 1 0
1.29618e-14 1 0
-2.53599e-14 1 0
8.48485e-15 1 0
1.29618e-14 1 0
9.13793e-16 1 0
-8.13122e-15 1 0
7.37714e-15 1 0
6.82644e-15 1 0
-5.895e-15 1 0
7.37714e-15 1 0
-6.20431e-15 1 0
-5.895e-15 1 0
4.96576e-15 1 0
4.46594e-15 1 0
2.67019e-15 1 0
-9.31423e-15 1 0
-6.86753e-16 1 0
2.67019e-15 1 0
-2.96269e-14 1 0
-6.86753e-16 1 0
3.64101e-14 1 0
3.78687e-15 1 0
-2.9647e-15 1 0
-7.89284e-15 1 0
1.05227e-15 1 0
-2.9647e-15 1 0
-1.39358e-14 1 0
1.05227e-15 1 0
8.64239e-15 1 0
-2.96269e-14 1 0
-8.6555e-15 1 0
3.64101e-14 1 0
1.90185e-14 1 0
-8.6555e-15 1 0
5.87893e-16 1 0
1.90185e-14 1 0
-4.27072e-16 1 0
-1.39358e-14 1 0
-1.10541e-14 1 0
8.64239e-15 1 0
6.71712e-15 1 0
-1.10541e-14 1 0
-3.286e-15 1 0
6.71712e-15 1 0
2.44292e-14 1 0
8.48485e-15 1 0
1.24899e-14 1 0
9.13793e-16 1 0
-1.61772e-14 1 0
1.24899e-14 1 0
-7.30261e-15 1 0
-1.61772e-14 1 0
1.0503e-14 1 0
-6.20431e-15 1 0
7.20536e-15 1 0
4.96576e-15 1 0
-9.0898e-15 1 0
7.20536e-15 1 0
-2.0686e-14 1 0
-9.0898e-15 1 0
2.54621e-14 1 0
-7.30261e-15 1 0
-1.91682e-14 1 0
1.0503e-14 1 0
2.79601e-14 1 0
-1.91682e-14 1 0
-3.88933e-14 1 0
2.79601e-14 1 0
1.98157e-14 1 0
-2.0686e-14 1 0
-3.85021e-14 1 0
2.54621e-14 1 0
4.28266e-14 1 0
-3.85021e-14 1 0
-1.24364e-14 1 0
4.28266e-14 1 0
1.76107e-14 1 0
-1.07758e-15 1 0
-4.78971e-14 1 0
1.14443e-14 1 0
5.54074e-14 1 0
-4.78971e-14 1 0
-9.81185e-15 1 0
5.54074e-14 1 0
2.50102e-14 1 0
-2.05949e-14 1 0
-1.80424e-14 1 0
2.18463e-14 1 0
1.19373e-14 1 0
-1.80424e-14 1 0
-1.77919e-14 1 0
1.19373e-14 1 0
2.33537e-14 1 0
-9.81185e-15 1 0
1.6608e-14 1 0
2.50102e-14 1 0
-4.74474e-15 1 0
1.6608e-14 1 0
2.18497e-14 1 0
-4.74474e-15 1 0
-1.78018e-14 1 0
-1.77919e-14 1 0
-1.31604e-14 1 0
2.33537e-14 1 0
2.34302e-14 1 0
-1.31604e-14 1 0
1.19543e-14 1 0
2.34302e-14 1 0
1.35459e-16 1 0
-1.81017e-14 1 0
-1.44295e-14 1 0
2.36806e-14 1 0
2.05632e-14 1 0
-1.44295e-14 1 0
-3.16565e-14 1 0
2.05632e-14 1 0
3.50668e-14 1 0
-1.67858e-14 1 0
-1.47759e-14 1 0
1.70335e-14 1 0
2.50205e-14 1 0
-1.47759e-14 1 0
-2.84617e-14 1 0
2.50205e-14 1 0
3.12043e-14 1 0
-3.16565e-14 1 0
-1.87707e-14 1 0
3.50668e-14 1 0
2.14967e-14 1 0
-1.87707e-14 1 0
5.00748e-15 1 0
2.14967e-14 1 0
-1.23251e-14 1 0
-2.84617e-14 1 0
-2.38377e-14 1 0
3.12043e-14 1 0
2.67307e-14 1 0
-2.38377e-14 1 0
3.45053e-15 1 0
2.67307e-14 1 0
5.43301e-15 1 0
2.18497e-14 1 0
2.73962e-14 1 0
-1.78018e-14 1 0
-8.34143e-15 1 0
2.73962e-14 1 0
-2.22828e-15 1 0
-8.34143e-15 1 0
-1.43572e-15 1 0
1.19543e-14 1 0
-1.07339e-14 1 0
1.35459e-16 1 0
1.60051e-14 1 0
-1.07339e-14 1 0
6.08522e-15 1 0
1.60051e-14 1 0
-6.68045e-16 1 0
-2.22828e-15 1 0
-2.82679e-14 1 0
-1.43572e-15 1 0
2.17862e-14 1 0
-2.82679e-14 1 0
-2.49784e-14 1 0
2.17862e-14 1 0
3.61143e-14 1 0
6.08522e-15 1 0
-1.26593e-14 1 0
-6.68045e-16 1 0
1.48675e-14 1 0
-1.26593e-14 1 0
-1.69026e-14 1 0
1.48675e-14 1 0
1.76846e-14 1 0
5.00748e-15 1 0
-1.82123e-14 1 0
-1.23251e-14 1 0
4.89876e-15 1 0
-1.82123e-14 1 0
-6.18083e-15 1 0
4.89876e-15 1 0
4.23026e-15 1 0
3.45053e-15 1 0
3.88049e-16 1 0
5.43301e-15 1 0
5.44549e-15 1 0
3.88049e-16 1 0
-6.13226e-15 1 0
5.44549e-15 1 0
1.03746e-14 1 0
-6.18083e-15 1 0
-1.70484e-14 1 0
4.23026e-15 1 0
2.28566e-14 1 0
-1.70484e-14 1 0
-2.87963e-14 1 0
2.28566e-14 1 0
2.70337e-14 1 0
-6.13226e-15 1 0
-9.62694e-15 1 0
1.03746e-14 1 0
1.36155e-14 1 0
-9.62694e-15 1 0
-5.30977e-15 1 0
1.36155e-14 1 0
4.46607e-15 1 0
0 1 0
1.09576e-14 1 0
0 1 0
-7.8249e-15 1 0
1.09576e-14 1 0
-1.61728e-14 1 0
-7.8249e-15 1 0
8.18395e-15 1 0
0 1 0
-9.8624e-15 1 0
0 1 0
1.65575e-14 1 0
-9.8624e-15 1 0
-7.74291e-15 1 0
1.65575e-14 1 0
3.02803e-15 1 0
-1.61728e-14 1 0
9.16901e-15 1 0
8.18395e-15 1 0
2.20147e-15 1 0
9.16901e-15 1 0
-1.20253e-15 1 0
2.20147e-15 1 0
1.67556e-14 1 0
-7.74291e-15 1 0
-7.48844e-15 1 0
3.02803e-15 1 0
1.14149e-14 1 0
-7.48844e-15 1 0
-1.02031e-14 1 0
1.14149e-14 1 0
1.06851e-14 1 0
0 1 0
-1.44716e-14 1 0
0 1 0
1.33e-14 1 0
-1.44716e-14 1 0
1.273e-15 1 0
1.33e-14 1 0
5.31881e-15 1 0
0 1 0
-1.08319e-14 1 0
0 1 0
4.76735e-15 1 0
-1.08319e-14 1 0
-1.17115e-14 1 0
4.76735e-15 1 0
1.19984e-14 1 0
1.273e-15 1 0
-8.25444e-15 1 0
5.31881e-15 1 0
9.40679e-15 1 0
-8.25444e-15 1 0
-2.40928e-15 1 0
9.40679e-15 1 0
8.18749e-15 1 0
-1.17115e-14 1 0
2.86279e-15 1 0
1.19984e-14 1 0
-1.15315e-14 1 0
2.86279e-15 1 0
-2.19896e-14 1 0
-1.15315e-14 1 0
2.74588e-14 1 0
-1.20253e-15 1 0
-1.94952e-14 1 0
1.67556e-14 1 0
2.29605e-14 1 0
-1.94952e-14 1 0
-2.92173e-14 1 0
2.29605e-14 1 0
3.36791e-14 1 0
-1.02031e-14 1 0
-1.90242e-14 1 0
1.06851e-14 1 0
2.29535e-14 1 0
-1.90242e-14 1 0
-1.24341e-14 1 0
2.29535e-14 1 0
1.73151e-14 1 0
-2.92173e-14 1 0
-4.04103e-15 1 0
3.36791e-14 1 0
3.32296e-15 1 0
-4.04103e-15 1 0
-1.51713e-14 1 0
3.32296e-15 1 0
1.49574e-14 1 0
-1.24341e-14 1 0
1.32255e-14 1 0
1.73151e-14 1 0
-1.44955e-14 1 0
1.32255e-14 1 0
-1.30203e-14 1 0
-1.44955e-14 1 0
1.95104e-14 1 0
-2.40928e-15 1 0
-1.26523e-14 1 0
8.18749e-15 1 0
1.28598e-14 1 0
-1.26523e-14 1 0
-2.09236e-14 1 0
1.28598e-14 1 0
2.2057e-14 1 0
-2.19896e-14 1 0
-1.46202e-14 1 0
2.74588e-14 1 0
2.07627e-14 1 0
-1.46202e-14 1 0
-7.37378e-15 1 0
2.07627e-14 1 0
-5.28945e-16 1 0
-2.09236e-14 1 0
1.57894e-14 1 0
2.2057e-14 1 0
-1.12415e-14 1 0
1.57894e-14 1 0
-3.21213e-14 1 0
-1.12415e-14 1 0
3.30374e-14 1 0
-7.37378e-15 1 0
1.49796e-15 1 0
-5.28945e-16 1 0
5.89878e-15 1 0
1.49796e-15 1 0
-2.87501e-14 1 0
5.89878e-15 1 0
3.09771e-14 1 0
0 1 0
-2.84082e-15 1 0
0 1 0
5.81953e-15 1 0
-2.84082e-15 1 0
-1.78708e-15 1 0
5.81953e-15 1 0
3.1148e-15 1 0
0 1 0
1.96861e-15 1 0
0 1 0
-5.55358e-15 1 0
1.96861e-15 1 0
-6.84851e-15 1 0
-5.55358e-15 1 0
1.10482e-14 1 0
-1.78708e-15 1 0
1.21825e-14 1 0
3.1148e-15 1 0
-1.39617e-15 1 0
1.21825e-14 1 0
-1.30568e-14 1 0
-1.39617e-15 1 0
4.99657e-16 1 0
-6.84851e-15 1 0
4.90601e-15 1 0
1.10482e-14 1 0
-7.19069e-15 1 0
4.90601e-15 1 0
4.71893e-15 1 0
-7.19069e-15 1 0
9.73407e-15 1 0
0 1 0
1.17376e-14 1 0
0 1 0
-7.20418e-15 1 0
1.17376e-14 1 0
-1.13438e-15 1 0
-7.20418e-15 1 0
-3.15045e-15 1 0
0 1 0
4.14283e-17 1 0
0 1 0
5.6665e-15 1 0
4.14283e-17 1 0
-5.92735e-15 1 0
5.6665e-15 1 0
9.44475e-15 1 0
-1.13438e-15 1 0
5.35467e-16 1 0
-3.15045e-15 1 0
7.38753e-15 1 0
5.35467e-16 1 0
-1.82861e-14 1 0
7.38753e-15 1 0
1.27605e-14 1 0
-5.92735e-15 1 0
-2.00821e-14 1 0
9.44475e-15 1 0
2.17914e-14 1 0
-2.00821e-14 1 0
-1.54759e-14 1 0
2.17914e-14 1 0
1.72356e-14 1 0
-1.30568e-14 1 0
-2.72442e-14 1 0
4.99657e-16 1 0
3.25793e-14 1 0
-2.72442e-14 1 0
-8.66489e-15 1 0
3.25793e-14 1 0
2.04218e-14 1 0
4.71893e-15 1 0
-1.79312e-14 1 0
9.73407e-15 1 0
1.36079e-14 1 0
-1.79312e-14 1 0
-2.192e-14 1 0
1.36079e-14 1 0
2.3031e-14 1 0
-8.66489e-15 1 0
-1.03592e-14 1 0
2.04218e-14 1 0
1.36045e-14 1 0
-1.03592e-14 1 0
-2.15488e-14 1 0
1.36045e-14 1 0
2.29132e-14 1 0
-2.192e-14 1 0
-1.64e-14 1 0
2.3031e-14 1 0
1.78472e-14 1 0
-1.64e-14 1 0
-1.52837e-14 1 0
1.78472e-14 1 0
7.5219e-15 1 0
-1.82861e-14 1 0
-2.46089e-14 1 0
1.27605e-14 1 0
2.06521e-14 1 0
-2.46089e-14 1 0
-2.79719e-14 1 0
2.06521e-14 1 0
2.40072e-14 1 0
-1.54759e-14 1 0
-1.47159e-14 1 0
1.72356e-14 1 0
8.47421e-15 1 0
-1.47159e-14 1 0
-1.00363e-14 1 0
8.47421e-15 1 0
1.72775e-14 1 0
-2.79719e-14 1 0
-1.40375e-14 1 0
2.40072e-14 1 0
1.39442e-14 1 0
-1.40375e-14 1 0
-1.26252e-14 1 0
1.39442e-14 1 0
1.51842e-14 1 0
-1.00363e-14 1 0
-1.78246e-14 1 0
1.72775e-14 1 0
1.43849e-14 1 0
-1.78246e-14 1 0
-1.92093e-14 1 0
1.43849e-14 1 0
1.5165e-14 1 0
-1.51713e-14 1 0
-2.93598e-14 1 0
1.49574e-14 1 0
1.98561e-14 1 0
-2.93598e-14 1 0
-3.26231e-14 1 0
1.98561e-14 1 0
2.72017e-14 1 0
-1.30203e-14 1 0
-1.65848e-14 1 0
1.95104e-14 1 0
2.24978e-14 1 0
-1.65848e-14 1 0
-2.45078e-15 1 0
2.24978e-14 1 0
-3.11234e-15 1 0
-3.26231e-14 1 0
-2.01258e-14 1 0
2.72017e-14 1 0
1.58665e-14 1 0
-2.01258e-14 1 0
-6.28858e-15 1 0
1.58665e-14 1 0
3.59095e-15 1 0
-2.45078e-15 1 0
-2.03344e-14 1 0
-3.11234e-15 1 0
2.83442e-14 1 0
-2.03344e-14 1 0
1.91628e-14 1 0
2.83442e-14 1 0
-1.14335e-14 1 0
-3.21213e-14 1 0
-2.97565e-14 1 0
3.30374e-14 1 0
3.34866e-14 1 0
-2.97565e-14 1 0
5.1807e-15 1 0
3.34866e-14 1 0
-3.62665e-15 1 0
-2.87501e-14 1 0
-2.92132e-14 1 0
3.09771e-14 1 0
2.41425e-14 1 0
-2.92132e-14 1 0
-9.71117e-15 1 0
2.41425e-14 1 0
1.5911e-14 1 0
5.1807e-15 1 0
-1.70132e-14 1 0
-3.62665e-15 1 0
8.11705e-15 1 0
-1.70132e-14 1 0
-7.46095e-15 1 0
8.11705e-15 1 0
4.78161e-15 1 0
-9.71117e-15 1 0
-1.60042e-17 1 0
1.5911e-14 1 0
3.65589e-15 1 0
-1.60042e-17 1 0
7.44477e-15 1 0
3.65589e-15 1 0
-3.58565e-15 1 0
-6.28858e-15 1 0
2.82553e-15 1 0
3.59095e-15 1 0
8.59262e-15 1 0
2.82553e-15 1 0
5.38453e-15 1 0
8.59262e-15 1 0
4.30938e-15 1 0
1.91628e-14 1 0
4.42058e-15 1 0
-1.14335e-14 1 0
-1.6948e-15 1 0
4.42058e-15 1 0
-5.72762e-15 1 0
-1.6948e-15 1 0
1.23647e-14 1 0
5.38453e-15 1 0
-1.3455e-14 1 0
4.30938e-15 1 0
2.32475e-14 1 0
-1.3455e-14 1 0
5.87612e-15 1 0
2.32475e-14 1 0
1.13324e-14 1 0
-5.72762e-15 1 0
-3.019e-14 1 0
1.23647e-14 1 0
3.30808e-14 1 0
-3.019e-14 1 0
3.61271e-15 1 0
3.30808e-14 1 0
-1.14645e-14 1 0
-7.46095e-15 1 0
-2.25486e-16 1 0
4.78161e-15 1 0
-1.38339e-16 1 0
-2.25486e-16 1 0
-5.34046e-15 1 0
-1.38339e-16 1 0
3.48126e-15 1 0
7.44477e-15 1 0
3.53761e-15 1 0
-3.58565e-15 1 0
3.47659e-15 1 0
3.53761e-15 1 0
-6.43543e-15 1 0
3.47659e-15 1 0
1.1945e-14 1 0
-5.34046e-15 1 0
-2.68861e-14 1 0
3.48126e-15 1 0
2.97284e-14 1 0
-2.68861e-14 1 0
3.63425e-15 1 0
2.97284e-14 1 0
1.05628e-14 1 0
-6.43543e-15 1 0
-2.11026e-14 1 0
1.1945e-14 1 0
1.67327e-14 1 0
-2.11026e-14 1 0
-2.11654e-14 1 0
1.67327e-14 1 0
2.3767e-14 1 0
-2.15488e-14 1 0
-9.63837e-15 1 0
2.29132e-14 1 0
1.83467e-14 1 0
-9.63837e-15 1 0
-1.57259e-14 1 0
1.83467e-14 1 0
2.38949e-14 1 0
-1.52837e-14 1 0
-2.46033e-14 1 0
7.5219e-15 1 0
2.32045e-14 1 0
-2.46033e-14 1 0
-2.41963e-14 1 0
2.32045e-14 1 0
1.6638e-14 1 0
-1.57259e-14 1 0
-2.55676e-15 1 0
2.38949e-14 1 0
8.05295e-15 1 0
-2.55676e-15 1 0
-5.88189e-15 1 0
8.05295e-15 1 0
6.04724e-15 1 0
-2.41963e-14 1 0
-1.3462e-14 1 0
1.6638e-14 1 0
1.62513e-14 1 0
-1.3462e-14 1 0
-8.36559e-15 1 0
1.62513e-14 1 0
3.55711e-15 1 0
-1.26252e-14 1 0
-2.94217e-14 1 0
1.51842e-14 1 0
2.31118e-14 1 0
-2.94217e-14 1 0
-1.6319e-14 1 0
2.31118e-14 1 0
1.82088e-14 1 0
-1.92093e-14 1 0
-1.91221e-14 1 0
1.5165e-14 1 0
1.49583e-14 1 0
-1.91221e-14 1 0
-1.32974e-14 1 0
1.49583e-14 1 0
7.25792e-15 1 0
-1.6319e-14 1 0
-1.33492e-14 1 0
1.82088e-14 1 0
7.73096e-15 1 0
-1.33492e-14 1 0
7.4737e-15 1 0
7.73096e-15 1 0
-4.76972e-15 1 0
-1.32974e-14 1 0
-6.3467e-16 1 0
7.25792e-15 1 0
-2.18451e-15 1 0
-6.3467e-16 1 0
-2.96875e-15 1 0
-2.18451e-15 1 0
6.37976e-15 1 0
-5.88189e-15 1 0
-2.04823e-14 1 0
6.04724e-15 1 0
2.06803e-14 1 0
-2.04823e-14 1 0
-1.95167e-14 1 0
2.06803e-14 1 0
2.58645e-14 1 0
-8.36559e-15 1 0
-1.49821e-14 1 0
3.55711e-15 1 0
1.40553e-14 1 0
-1.49821e-14 1 0
-2.45321e-14 1 0
1.40553e-14 1 0
1.25105e-14 1 0
-1.95167e-14 1 0
-2.36364e-14 1 0
2.58645e-14 1 0
2.18306e-14 1 0
-2.36364e-14 1 0
-2.79431e-14 1 0
2.18306e-14 1 0
2.17726e-14 1 0
-2.45321e-14 1 0
-9.60941e-15 1 0
1.25105e-14 1 0
9.61846e-15 1 0
-9.60941e-15 1 0
-9.79479e-15 1 0
9.61846e-15 1 0
6.72963e-15 1 0
7.4737e-15 1 0
-9.51152e-15 1 0
-4.76972e-15 1 0
-1.70305e-15 1 0
-9.51152e-15 1 0
-5.27458e-15 1 0
-1.70305e-15 1 0
4.33703e-15 1 0
-2.96875e-15 1 0
-1.82147e-16 1 0
6.37976e-15 1 0
1.26705e-14 1 0
-1.82147e-16 1 0
-3.61842e-15 1 0
1.26705e-14 1 0
1.30689e-14 1 0
-5.27458e-15 1 0
-1.554e-14 1 0
4.33703e-15 1 0
1.63762e-14 1 0
-1.554e-14 1 0
-6.68637e-15 1 0
1.63762e-14 1 0
1.76084e-14 1 0
-3.61842e-15 1 0
1.09589e-14 1 0
1.30689e-14 1 0
-1.38217e-14 1 0
1.09589e-14 1 0
-7.17499e-15 1 0
-1.38217e-14 1 0
5.75064e-15 1 0
5.87893e-16 1 0
-1.04108e-14 1 0
-4.27072e-16 1 0
2.01117e-14 1 0
-1.04108e-14 1 0
-1.74155e-15 1 0
2.01117e-14 1 0
1.01266e-14 1 0
-3.286e-15 1 0
-1.96855e-14 1 0
2.44292e-14 1 0
2.42747e-14 1 0
-1.96855e-14 1 0
-7.42466e-15 1 0
2.42747e-14 1 0
3.20746e-15 1 0
-1.74155e-15 1 0
-8.11659e-15 1 0
1.01266e-14 1 0
9.41149e-15 1 0
-8.11659e-15 1 0
-1.82291e-14 1 0
9.41149e-15 1 0
2.26985e-14 1 0
-7.42466e-15 1 0
1.2987e-14 1 0
3.20746e-15 1 0
-4.92351e-15 1 0
1.2987e-14 1 0
1.79136e-16 1 0
-4.92351e-15 1 0
-3.48994e-15 1 0
-3.88933e-14 1 0
-2.083e-14 1 0
1.98157e-14 1 0
2.00988e-14 1 0
-2.083e-14 1 0
1.25848e-14 1 0
2.00988e-14 1 0
-1.32436e-14 1 0
-1.24364e-14 1 0
-1.58242e-14 1 0
1.76107e-14 1 0
1.98562e-14 1 0
-1.58242e-14 1 0
-2.04128e-14 1 0
1.98562e-14 1 0
2.70117e-14 1 0
1.25848e-14 1 0
-5.03955e-15 1 0
-1.32436e-14 1 0
-3.67797e-15 1 0
-5.03955e-15 1 0
1.03569e-14 1 0
-3.67797e-15 1 0
-2.59495e-15 1 0
-2.04128e-14 1 0
3.0778e-15 1 0
2.70117e-14 1 0
1.33674e-14 1 0
3.0778e-15 1 0
-9.41143e-15 1 0
1.33674e-14 1 0
5.90009e-15 1 0
-1.82291e-14 1 0
-9.70701e-15 1 0
2.26985e-14 1 0
8.12687e-15 1 0
-9.70701e-15 1 0
8.03403e-16 1 0
8.12687e-15 1 0
1.29615e-14 1 0
1.79136e-16 1 0
4.53208e-15 1 0
-3.48994e-15 1 0
-4.96796e-15 1 0
4.53208e-15 1 0
-2.09634e-14 1 0
-4.96796e-15 1 0
1.45637e-14 1 0
8.03403e-16 1 0
1.15983e-14 1 0
1.29615e-14 1 0
-1.28838e-14 1 0
1.15983e-14 1 0
6.46973e-15 1 0
-1.28838e-14 1 0
2.5475e-15 1 0
-2.09634e-14 1 0
9.30422e-15 1 0
1.45637e-14 1 0
8.62831e-15 1 0
9.30422e-15 1 0
-1.58327e-14 1 0
8.62831e-15 1 0
2.37753e-14 1 0
1.03569e-14 1 0
-2.48341e-15 1 0
-2.59495e-15 1 0
1.00605e-14 1 0
-2.48341e-15 1 0
-5.09302e-15 1 0
1.00605e-14 1 0
1.30054e-14 1 0
-9.41143e-15 1 0
2.12683e-16 1 0
5.90009e-15 1 0
1.74061e-15 1 0
2.12683e-16 1 0
-7.23467e-15 1 0
1.74061e-15 1 0
1.13937e-14 1 0
-5.09302e-15 1 0
-1.71885e-15 1 0
1.30054e-14 1 0
3.2383e-15 1 0
-1.71885e-15 1 0
-1.31458e-14 1 0
3.2383e-15 1 0
2.62209e-14 1 0
-7.23467e-15 1 0
-1.37987e-14 1 0
1.13937e-14 1 0
7.49798e-15 1 0
-1.37987e-14 1 0
-4.61598e-14 1 0
7.49798e-15 1 0
3.60163e-14 1 0
-2.49784e-14 1 0
-1.4544e-14 1 0
3.61143e-14 1 0
1.3898e-14 1 0
-1.4544e-14 1 0
6.33407e-15 1 0
1.3898e-14 1 0
-2.31594e-16 1 0
-1.69026e-14 1 0
1.09403e-14 1 0
1.76846e-14 1 0
-1.69407e-14 1 0
1.09403e-14 1 0
1.01577e-14 1 0
-1.69407e-14 1 0
-8.80807e-15 1 0
6.33407e-15 1 0
1.69057e-16 1 0
-2.31594e-16 1 0
-2.1952e-15 1 0
1.69057e-16 1 0
6.20023e-15 1 0
-2.1952e-15 1 0
8.76922e-15 1 0
1.01577e-14 1 0
-6.12005e-15 1 0
-8.80807e-15 1 0
2.08581e-14 1 0
-6.12005e-15 1 0
-3.84569e-15 1 0
2.08581e-14 1 0
1.68016e-14 1 0
-2.87963e-14 1 0
1.10297e-14 1 0
2.70337e-14 1 0
-1.05494e-14 1 0
1.10297e-14 1 0
6.17459e-15 1 0
-1.05494e-14 1 0
-1.05723e-14 1 0
-5.30977e-15 1 0
-4.54266e-15 1 0
4.46607e-15 1 0
1.55447e-14 1 0
-4.54266e-15 1 0
-4.87839e-16 1 0
1.55447e-14 1 0
1.0687e-14 1 0
6.17459e-15 1 0
-2.37085e-14 1 0
-1.05723e-14 1 0
2.7357e-14 1 0
-2.37085e-14 1 0
2.83738e-15 1 0
2.7357e-14 1 0
-1.33922e-14 1 0
-4.87839e-16 1 0
-3.74676e-14 1 0
1.0687e-14 1 0
3.89384e-14 1 0
-3.74676e-14 1 0
-5.97498e-15 1 0
3.89384e-14 1 0
6.69536e-15 1 0
6.20023e-15 1 0
1.39283e-14 1 0
8.76922e-15 1 0
6.86834e-15 1 0
1.39283e-14 1 0
-8.71498e-15 1 0
6.86834e-15 1 0
1.20218e-14 1 0
-3.84569e-15 1 0
-1.65984e-15 1 0
1.68016e-14 1 0
7.93166e-16 1 0
-1.65984e-15 1 0
-1.91433e-14 1 0
7.93166e-16 1 0
2.27834e-14 1 0
-8.71498e-15 1 0
4.02354e-15 1 0
1.20218e-14 1 0
4.15789e-16 1 0
4.02354e-15 1 0
-1.23384e-14 1 0
4.15789e-16 1 0
1.0406e-14 1 0