# vtk DataFile Version 3.0
#This file was generated by the deal.II library on 2018/10/14 at 16:59:11
ASCII
DATASET UNSTRUCTURED_GRID

POINTS 20480 double
0 0 0
0.19635 0 0
0 0.3125 0
0.19635 0.3125 0
0.19635 0 0
0.392699 0 0
0.19635 0.3125 0
0.392699 0.3125 0
0 0.3125 0
0.19635 0.3125 0
0 0.625 0
0.19635 0.625 0
0.19635 0.3125 0
0.392699 0.3125 0
0.19635 0.625 0
0.392699 0.625 0
0.392699 0 0
0.589049 0 0
0.392699 0.3125 0
0.589049 0.3125 0
0.589049 0 0
0.785398 0 0
0.589049 0.3125 0
0.785398 0.3125 0
0.392699 0.3125 0
0.589049 0.3125 0
0.392699 0.625 0
0.589049 0.625 0
0.589049 0.3125 0
0.785398 0.3125 0
0.589049 0.625 0
0.785398 0.625 0
0 0.625 0
0.19635 0.625 0
0 0.9375 0
0.19635 0.9375 0
0.19635 0.625 0
0.392699 0.625 0
0.19635 0.9375 0
0.392699 0.9375 0
0 0.9375 0
0.19635 0.9375 0
0 1.25 0
0.19635 1.25 0
0.19635 0.9375 0
0.392699 0.9375 0
0.19635 1.25 0
0.392699 1.25 0
0.392699 0.625 0
0.589049 0.625 0
0.392699 0.9375 0
0.589049 0.9375 0
0.589049 0.625 0
0.785398 0.625 0
0.589049 0.9375 0
0.785398 0.9375 0
0.392699 0.9375 0
0.589049 0.9375 0
0.392699 1.25 0
0.589049 1.25 0
0.589049 0.9375 0
0.785398 0.9375 0
0.589049 1.25 0
0.785398 1.25 0
0.785398 0 0
0.981748 0 0
0.785398 0.3125 0
0.981748 0.3125 0
0.981748 0 0
1.1781 0 0
0.981748 0.3125 0
1.1781 0.3125 0
0.785398 0.3125 0
0.981748 0.3125 0
0.785398 0.625 0
0.981748 0.625 0
0.981748 0.3125 0
1.1781 0.3125 0
0.981748 0.625 0
1.1781 0.625 0
1.1781 0 0
1.37445 0 0
1.1781 0.3125 0
1.37445 0.3125 0
1.37445 0 0
1.5708 0 0
1.37445 0.3125 0
1.5708 0.3125 0
1.1781 0.3125 0
1.37445 0.3125 0
1.1781 0.625 0
1.37445 0.625 0
1.37445 0.3125 0
1.5708 0.3125 0
1.37445 0.625 0
1.5708 0.625 0
0.785398 0.625 0
0.981748 0.625 0
0.785398 0.9375 0
0.981748 0.9375 0
0.981748 0.625 0
1.1781 0.625 0
0.981748 0.9375 0
1.1781 0.9375 0
0.785398 0.9375 0
0.981748 0.9375 0
0.785398 1.25 0
0.981748 1.25 0
0.981748 0.9375 0
1.1781 0.9375 0
0.981748 1.25 0
1.1781 1.25 0
1.1781 0.625 0
1.37445 0.625 0
1.1781 0.9375 0
1.37445 0.9375 0
1.37445 0.625 0
1.5708 0.625 0
1.37445 0.9375 0
1.5708 0.9375 0
1.1781 0.9375 0
1.37445 0.9375 0
1.1781 1.25 0
1.37445 1.25 0
1.37445 0.9375 0
1.5708 0.9375 0
1.37445 1.25 0
1.5708 1.25 0
0 1.25 0
0.19635 1.25 0
0 1.5625 0
0.19635 1.5625 0
0.19635 1.25 0
0.392699 1.25 0
0.19635 1.5625 0
0.392699 1.5625 0
0 1.5625 0
0.19635 1.5625 0
0 1.875 0
0.19635 1.875 0
0.19635 1.5625 0
0.392699 1.5625 0
0.19635 1.875 0
0.392699 1.875 0
0.392699 1.25 0
0.589049 1.25 0
0.392699 1.5625 0
0.589049 1.5625 0
0.589049 1.25 0
0.785398 1.25 0
0.589049 1.5625 0
0.785398 1.5625 0
0.392699 1.5625 0
0.589049 1.5625 0
0.392699 1.875 0
0.589049 1.875 0
0.589049 1.5625 0
0.785398 1.5625 0
0.589049 1.875 0
0.785398 1.875 0
0 1.875 0
0.19635 1.875 0
0 2.1875 0
0.19635 2.1875 0
0.19635 1.875 0
0.392699 1.875 0
0.19635 2.1875 0
0.392699 2.1875 0
0 2.1875 0
0.19635 2.1875 0
0 2.5 0
0.19635 2.5 0
0.19635 2.1875 0
0.392699 2.1875 0
0.19635 2.5 0
0.392699 2.5 0
0.392699 1.875 0
0.589049 1.875 0
0.392699 2.1875 0
0.589049 2.1875 0
0.589049 1.875 0
0.785398 1.875 0
0.589049 2.1875 0
0.785398 2.1875 0
0.392699 2.1875 0
0.589049 2.1875 0
0.392699 2.5 0
0.589049 2.5 0
0.589049 2.1875 0
0.785398 2.1875 0
0.589049 2.5 0
0.785398 2.5 0
0.785398 1.25 0
0.981748 1.25 0
0.785398 1.5625 0
0.981748 1.5625 0
0.981748 1.25 0
1.1781 1.25 0
0.981748 1.5625 0
1.1781 1.5625 0
0.785398 1.5625 0
0.981748 1.5625 0
0.785398 1.875 0
0.981748 1.875 0
0.981748 1.5625 0
1.1781 1.5625 0
0.981748 1.875 0
1.1781 1.875 0
1.1781 1.25 0
1.37445 1.25 0
1.1781 1.5625 0
1.37445 1.5625 0
1.37445 1.25 0
1.5708 1.25 0
1.37445 1.5625 0
1.5708 1.5625 0
1.1781 1.5625 0
1.37445 1.5625 0
1.1781 1.875 0
1.37445 1.875 0
1.37445 1.5625 0
1.5708 1.5625 0
1.37445 1.875 0
1.5708 1.875 0
0.785398 1.875 0
0.981748 1.875 0
0.785398 2.1875 0
0.981748 2.1875 0
0.981748 1.875 0
1.1781 1.875 0
0.981748 2.1875 0
1.1781 2.1875 0
0.785398 2.1875 0
0.981748 2.1875 0
0.785398 2.5 0
0.981748 2.5 0
0.981748 2.1875 0
1.1781 2.1875 0
0.981748 2.5 0
1.1781 2.5 0
1.1781 1.875 0
1.37445 1.875 0
1.1781 2.1875 0
1.37445 2.1875 0
1.37445 1.875 0
1.5708 1.875 0
1.37445 2.1875 0
1.5708 2.1875 0
1.1781 2.1875 0
1.37445 2.1875 0
1.1781 2.5 0
1.37445 2.5 0
1.37445 2.1875 0
1.5708 2.1875 0
1.37445 2.5 0
1.5708 2.5 0
1.5708 0 0
1.76715 0 0
1.5708 0.3125 0
1.76715 0.3125 0
1.76715 0 0
1.9635 0 0
1.76715 0.3125 0
1.9635 0.3125 0
1.5708 0.3125 0
1.76715 0.3125 0
1.5708 0.625 0
1.76715 0.625 0
1.76715 0.3125 0
1.9635 0.3125 0
1.76715 0.625 0
1.9635 0.625 0
1.9635 0 0
2.15984 0 0
1.9635 0.3125 0
2.15984 0.3125 0
2.15984 0 0
2.35619 0 0
2.15984 0.3125 0
2.35619 0.3125 0
1.9635 0.3125 0
2.15984 0.3125 0
1.9635 0.625 0
2.15984 0.625 0
2.15984 0.3125 0
2.35619 0.3125 0
2.15984 0.625 0
2.35619 0.625 0
1.5708 0.625 0
1.76715 0.625 0
1.5708 0.9375 0
1.76715 0.9375 0
1.76715 0.625 0
1.9635 0.625 0
1.76715 0.9375 0
1.9635 0.9375 0
1.5708 0.9375 0
1.76715 0.9375 0
1.5708 1.25 0
1.76715 1.25 0
1.76715 0.9375 0
1.9635 0.9375 0
1.76715 1.25 0
1.9635 1.25 0
1.9635 0.625 0
2.15984 0.625 0
1.9635 0.9375 0
2.15984 0.9375 0
2.15984 0.625 0
2.35619 0.625 0
2.15984 0.9375 0
2.35619 0.9375 0
1.9635 0.9375 0
2.15984 0.9375 0
1.9635 1.25 0
2.15984 1.25 0
2.15984 0.9375 0
2.35619 0.9375 0
2.15984 1.25 0
2.35619 1.25 0
2.35619 0 0
2.55254 0 0
2.35619 0.3125 0
2.55254 0.3125 0
2.55254 0 0
2.74889 0 0
2.55254 0.3125 0
2.74889 0.3125 0
2.35619 0.3125 0
2.55254 0.3125 0
2.35619 0.625 0
2.55254 0.625 0
2.55254 0.3125 0
2.74889 0.3125 0
2.55254 0.625 0
2.74889 0.625 0
2.74889 0 0
2.94524 0 0
2.74889 0.3125 0
2.94524 0.3125 0
2.94524 0 0
3.14159 0 0
2.94524 0.3125 0
3.14159 0.3125 0
2.74889 0.3125 0
2.94524 0.3125 0
2.74889 0.625 0
2.94524 0.625 0
2.94524 0.3125 0
3.14159 0.3125 0
2.94524 0.625 0
3.14159 0.625 0
2.35619 0.625 0
2.55254 0.625 0
2.35619 0.9375 0
2.55254 0.9375 0
2.55254 0.625 0
2.74889 0.625 0
2.55254 0.9375 0
2.74889 0.9375 0
2.35619 0.9375 0
2.55254 0.9375 0
2.35619 1.25 0
2.55254 1.25 0
2.55254 0.9375 0
2.74889 0.9375 0
2.55254 1.25 0
2.74889 1.25 0
2.74889 0.625 0
2.94524 0.625 0
2.74889 0.9375 0
2.94524 0.9375 0
2.94524 0.625 0
3.14159 0.625 0
2.94524 0.9375 0
3.14159 0.9375 0
2.74889 0.9375 0
2.94524 0.9375 0
2.74889 1.25 0
2.94524 1.25 0
2.94524 0.9375 0
3.14159 0.9375 0
2.94524 1.25 0
3.14159 1.25 0
1.5708 1.25 0
1.76715 1.25 0
1.5708 1.5625 0
1.76715 1.5625 0
1.76715 1.25 0
1.9635 1.25 0
1.76715 1.5625 0
1.9635 1.5625 0
1.5708 1.5625 0
1.76715 1.5625 0
1.5708 1.875 0
1.76715 1.875 0
1.76715 1.5625 0
1.9635 1.5625 0
1.76715 1.875 0
1.9635 1.875 0
1.9635 1.25 0
2.15984 1.25 0
1.9635 1.5625 0
2.15984 1.5625 0
2.15984 1.25 0
2.35619 1.25 0
2.15984 1.5625 0
2.35619 1.5625 0
1.9635 1.5625 0
2.15984 1.5625 0
1.9635 1.875 0
2.15984 1.875 0
2.15984 1.5625 0
2.35619 1.5625 0
2.15984 1.875 0
2.35619 1.875 0
1.5708 1.875 0
1.76715 1.875 0
1.5708 2.1875 0
1.76715 2.1875 0
1.76715 1.875 0
1.9635 1.875 0
1.76715 2.1875 0
1.9635 2.1875 0
1.5708 2.1875 0
1.76715 2.1875 0
1.5708 2.5 0
1.76715 2.5 0
1.76715 2.1875 0
1.9635 2.1875 0
1.76715 2.5 0
1.9635 2.5 0
1.9635 1.875 0
2.15984 1.875 0
1.9635 2.1875 0
2.15984 2.1875 0
2.15984 1.875 0
2.35619 1.875 0
2.15984 2.1875 0
2.35619 2.1875 0
1.9635 2.1875 0
2.15984 2.1875 0
1.9635 2.5 0
2.15984 2.5 0
2.15984 2.1875 0
2.35619 2.1875 0
2.15984 2.5 0
2.35619 2.5 0
2.35619 1.25 0
2.55254 1.25 0
2.35619 1.5625 0
2.55254 1.5625 0
2.55254 1.25 0
2.74889 1.25 0
2.55254 1.5625 0
2.74889 1.5625 0
2.35619 1.5625 0
2.55254 1.5625 0
2.35619 1.875 0
2.55254 1.875 0
2.55254 1.5625 0
2.74889 1.5625 0
2.55254 1.875 0
2.74889 1.875 0
2.74889 1.25 0
2.94524 1.25 0
2.74889 1.5625 0
2.94524 1.5625 0
2.94524 1.25 0
3.14159 1.25 0
2.94524 1.5625 0
3.14159 1.5625 0
2.74889 1.5625 0
2.94524 1.5625 0
2.74889 1.875 0
2.94524 1.875 0
2.94524 1.5625 0
3.14159 1.5625 0
2.94524 1.875 0
3.14159 1.875 0
2.35619 1.875 0
2.55254 1.875 0
2.35619 2.1875 0
2.55254 2.1875 0
2.55254 1.875 0
2.74889 1.875 0
2.55254 2.1875 0
2.74889 2.1875 0
2.35619 2.1875 0
2.55254 2.1875 0
2.35619 2.5 0
2.55254 2.5 0
2.55254 2.1875 0
2.74889 2.1875 0
2.55254 2.5 0
2.74889 2.5 0
2.74889 1.875 0
2.94524 1.875 0
2.74889 2.1875 0
2.94524 2.1875 0
2.94524 1.875 0
3.14159 1.875 0
2.94524 2.1875 0
3.14159 2.1875 0
2.74889 2.1875 0
2.94524 2.1875 0
2.74889 2.5 0
2.94524 2.5 0
2.94524 2.1875 0
3.14159 2.1875 0
2.94524 2.5 0
3.14159 2.5 0
0 2.5 0
0.19635 2.5 0
0 2.8125 0
0.19635 2.8125 0
0.19635 2.5 0
0.392699 2.5 0
0.19635 2.8125 0
0.392699 2.8125 0
0 2.8125 0
0.19635 2.8125 0
0 3.125 0
0.19635 3.125 0
0.19635 2.8125 0
0.392699 2.8125 0
0.19635 3.125 0
0.392699 3.125 0
0.392699 2.5 0
0.589049 2.5 0
0.392699 2.8125 0
0.589049 2.8125 0
0.589049 2.5 0
0.785398 2.5 0
0.589049 2.8125 0
0.785398 2.8125 0
0.392699 2.8125 0
0.589049 2.8125 0
0.392699 3.125 0
0.589049 3.125 0
0.589049 2.8125 0
0.785398 2.8125 0
0.589049 3.125 0
0.785398 3.125 0
0 3.125 0
0.19635 3.125 0
0 3.4375 0
0.19635 3.4375 0
0.19635 3.125 0
0.392699 3.125 0
0.19635 3.4375 0
0.392699 3.4375 0
0 3.4375 0
0.19635 3.4375 0
0 3.75 0
0.19635 3.75 0
0.19635 3.4375 0
0.392699 3.4375 0
0.19635 3.75 0
0.392699 3.75 0
0.392699 3.125 0
0.589049 3.125 0
0.392699 3.4375 0
0.589049 3.4375 0
0.589049 3.125 0
0.785398 3.125 0
0.589049 3.4375 0
0.785398 3.4375 0
0.392699 3.4375 0
0.589049 3.4375 0
0.392699 3.75 0
0.589049 3.75 0
0.589049 3.4375 0
0.785398 3.4375 0
0.589049 3.75 0
0.785398 3.75 0
0.785398 2.5 0
0.981748 2.5 0
0.785398 2.8125 0
0.981748 2.8125 0
0.981748 2.5 0
1.1781 2.5 0
0.981748 2.8125 0
1.1781 2.8125 0
0.785398 2.8125 0
0.981748 2.8125 0
0.785398 3.125 0
0.981748 3.125 0
0.981748 2.8125 0
1.1781 2.8125 0
0.981748 3.125 0
1.1781 3.125 0
1.1781 2.5 0
1.37445 2.5 0
1.1781 2.8125 0
1.37445 2.8125 0
1.37445 2.5 0
1.5708 2.5 0
1.37445 2.8125 0
1.5708 2.8125 0
1.1781 2.8125 0
1.37445 2.8125 0
1.1781 3.125 0
1.37445 3.125 0
1.37445 2.8125 0
1.5708 2.8125 0
1.37445 3.125 0
1.5708 3.125 0
0.785398 3.125 0
0.981748 3.125 0
0.785398 3.4375 0
0.981748 3.4375 0
0.981748 3.125 0
1.1781 3.125 0
0.981748 3.4375 0
1.1781 3.4375 0
0.785398 3.4375 0
0.981748 3.4375 0
[...]
POINT_DATA 20480
VECTORS uf double
0 1 0
4.04749e-14 1 0
0 1 0
-5.89013e-14 1 0
4.04749e-14 1 0
3.08455e-14 1 0
-5.89013e-14 1 0
-3.11061e-14 1 0
0 1 0
5.75021e-14 1 0
0 1 0
-6.41611e-14 1 0
5.75021e-14 1 0
2.14869e-14 1 0
-6.41611e-14 1 0
-2.6168e-14 1 0
3.08455e-14 1 0
1.48999e-14 1 0
-3.11061e-14 1 0
-2.47095e-14 1 0
1.48999e-14 1 0
-4.73917e-15 1 0
-2.47095e-14 1 0
2.04812e-15 1 0
2.14869e-14 1 0
1.40688e-14 1 0
-2.6168e-14 1 0
-1.03953e-14 1 0
1.40688e-14 1 0
-2.38437e-15 1 0
-1.03953e-14 1 0
-7.56383e-15 1 0
0 1 0
5.67318e-14 1 0
0 1 0
-5.40602e-14 1 0
5.67318e-14 1 0
2.16463e-14 1 0
-5.40602e-14 1 0
-3.68962e-14 1 0
0 1 0
3.3327e-14 1 0
0 1 0
-2.107e-14 1 0
3.3327e-14 1 0
3.77915e-14 1 0
-2.107e-14 1 0
-2.2883e-14 1 0
2.16463e-14 1 0
-5.92212e-15 1 0
-3.68962e-14 1 0
1.507e-14 1 0
-5.92212e-15 1 0
-6.45945e-15 1 0
1.507e-14 1 0
3.55054e-15 1 0
3.77915e-14 1 0
-2.4856e-14 1 0
-2.2883e-14 1 0
1.5075e-14 1 0
-2.4856e-14 1 0
-1.07345e-14 1 0
1.5075e-14 1 0
3.09833e-14 1 0
-4.73917e-15 1 0
-1.00808e-14 1 0
2.04812e-15 1 0
1.2009e-14 1 0
-1.00808e-14 1 0
-2.01278e-14 1 0
1.2009e-14 1 0
2.25359e-14 1 0
-2.38437e-15 1 0
-2.08794e-14 1 0
-7.56383e-15 1 0
1.35247e-14 1 0
-2.08794e-14 1 0
-3.84645e-14 1 0
1.35247e-14 1 0
3.01319e-14 1 0
-2.01278e-14 1 0
-2.00245e-14 1 0
2.25359e-14 1 0
1.93681e-14 1 0
-2.00245e-14 1 0
-2.24681e-14 1 0
1.93681e-14 1 0
2.52184e-14 1 0
-3.84645e-14 1 0
-3.20278e-14 1 0
3.01319e-14 1 0
2.63419e-14 1 0
-3.20278e-14 1 0
-4.64247e-14 1 0
2.63419e-14 1 0
3.46454e-14 1 0
-6.45945e-15 1 0
-2.65715e-14 1 0
3.55054e-15 1 0
3.86237e-15 1 0
-2.65715e-14 1 0
-4.31568e-14 1 0
3.86237e-15 1 0
2.07092e-14 1 0
-1.07345e-14 1 0
2.29005e-15 1 0
3.09833e-14 1 0
1.52249e-14 1 0
2.29005e-15 1 0
-4.72234e-16 1 0
1.52249e-14 1 0
1.67287e-14 1 0
-4.31568e-14 1 0
-4.1032e-14 1 0
2.07092e-14 1 0
1.28427e-14 1 0
-4.1032e-14 1 0
-4.24126e-14 1 0
1.28427e-14 1 0
2.39551e-14 1 0
-4.72234e-16 1 0
1.01832e-14 1 0
1.67287e-14 1 0
1.04472e-14 1 0
1.01832e-14 1 0
-6.30949e-15 1 0
1.04472e-14 1 0
6.56884e-15 1 0
0 1 0
2.05512e-14 1 0
0 1 0
-2.99544e-14 1 0
2.05512e-14 1 0
6.68992e-16 1 0
-2.99544e-14 1 0
-5.19751e-15 1 0
0 1 0
2.86554e-14 1 0
0 1 0
-1.65979e-14 1 0
2.86554e-14 1 0
-3.03754e-15 1 0
-1.65979e-14 1 0
4.15814e-15 1 0
6.68992e-16 1 0
-1.1868e-14 1 0
-5.19751e-15 1 0
1.1939e-14 1 0
-1.1868e-14 1 0
-3.30446e-14 1 0
1.1939e-14 1 0
2.58051e-14 1 0
-3.03754e-15 1 0
-1.43267e-14 1 0
4.15814e-15 1 0
-2.15914e-15 1 0
-1.43267e-14 1 0
-2.63232e-14 1 0
-2.15914e-15 1 0
1.28658e-14 1 0
0 1 0
1.26862e-14 1 0
0 1 0
-1.33982e-14 1 0
1.26862e-14 1 0
-1.77561e-15 1 0
-1.33982e-14 1 0
-1.20829e-15 1 0
0 1 0
2.1445e-14 1 0
0 1 0
-1.68838e-14 1 0
2.1445e-14 1 0
9.31025e-16 1 0
-1.68838e-14 1 0
8.06004e-15 1 0
-1.77561e-15 1 0
1.81796e-15 1 0
-1.20829e-15 1 0
6.56101e-15 1 0
1.81796e-15 1 0
-6.44653e-15 1 0
6.56101e-15 1 0
1.02507e-14 1 0
9.31025e-16 1 0
2.32019e-16 1 0
8.06004e-15 1 0
9.24323e-15 1 0
2.32019e-16 1 0
-4.92298e-15 1 0
9.24323e-15 1 0
8.21522e-15 1 0
-3.30446e-14 1 0
2.5169e-15 1 0
2.58051e-14 1 0
-8.24905e-15 1 0
2.5169e-15 1 0
-4.2237e-15 1 0
-8.24905e-15 1 0
-6.96564e-15 1 0
-2.63232e-14 1 0
8.31193e-15 1 0
1.28658e-14 1 0
-1.43438e-14 1 0
8.31193e-15 1 0
1.99837e-14 1 0
-1.43438e-14 1 0
-1.17726e-14 1 0
-4.2237e-15 1 0
-9.23124e-16 1 0
-6.96564e-15 1 0
-1.16065e-14 1 0
-9.23124e-16 1 0
1.3825e-14 1 0
-1.16065e-14 1 0
-3.65718e-15 1 0
1.99837e-14 1 0
2.46417e-14 1 0
-1.17726e-14 1 0
-1.63734e-14 1 0
2.46417e-14 1 0
1.29244e-14 1 0
-1.63734e-14 1 0
-1.11701e-14 1 0
-6.44653e-15 1 0
1.66208e-14 1 0
1.02507e-14 1 0
-1.36543e-14 1 0
1.66208e-14 1 0
1.38172e-14 1 0
-1.36543e-14 1 0
-8.18988e-15 1 0
-4.92298e-15 1 0
2.38836e-14 1 0
8.21522e-15 1 0
-1.5936e-14 1 0
2.38836e-14 1 0
1.16768e-14 1 0
-1.5936e-14 1 0
-4.73264e-15 1 0
1.38172e-14 1 0
2.14056e-14 1 0
-8.18988e-15 1 0
-6.13176e-15 1 0
2.14056e-14 1 0
2.16026e-14 1 0
-6.13176e-15 1 0
-6.692e-15 1 0
1.16768e-14 1 0
5.64221e-15 1 0
-4.73264e-15 1 0
-4.89516e-15 1 0
5.64221e-15 1 0
1.06585e-14 1 0
-4.89516e-15 1 0
-1.48056e-14 1 0
-2.24681e-14 1 0
-2.68047e-14 1 0
2.52184e-14 1 0
2.05105e-14 1 0
-2.68047e-14 1 0
-3.36002e-14 1 0
2.05105e-14 1 0
3.03396e-14 1 0
-4.64247e-14 1 0
-3.56337e-14 1 0
3.46454e-14 1 0
2.49096e-14 1 0
-3.56337e-14 1 0
-4.92319e-14 1 0
2.49096e-14 1 0
3.15244e-14 1 0
-3.36002e-14 1 0
-2.66555e-14 1 0
3.03396e-14 1 0
1.27458e-14 1 0
-2.66555e-14 1 0
-1.94982e-14 1 0
1.27458e-14 1 0
1.6903e-14 1 0
-4.92319e-14 1 0
-4.39651e-14 1 0
3.15244e-14 1 0
3.89501e-14 1 0
-4.39651e-14 1 0
-4.88159e-14 1 0
3.89501e-14 1 0
3.33283e-14 1 0
-4.24126e-14 1 0
-3.9549e-14 1 0
2.39551e-14 1 0
2.98734e-14 1 0
-3.9549e-14 1 0
-3.82575e-14 1 0
2.98734e-14 1 0
2.91208e-14 1 0
-6.30949e-15 1 0
-2.06271e-14 1 0
6.56884e-15 1 0
2.08472e-14 1 0
-2.06271e-14 1 0
-1.19558e-14 1 0
2.08472e-14 1 0
1.73421e-14 1 0
-3.82575e-14 1 0
-4.40657e-14 1 0
2.91208e-14 1 0
3.30236e-14 1 0
-4.40657e-14 1 0
-4.17826e-14 1 0
3.30236e-14 1 0
2.52305e-14 1 0
-1.19558e-14 1 0
-1.53918e-14 1 0
1.73421e-14 1 0
1.76384e-14 1 0
-1.53918e-14 1 0
3.92546e-18 1 0
1.76384e-14 1 0
3.18858e-15 1 0
-1.94982e-14 1 0
-2.03786e-14 1 0
1.6903e-14 1 0
1.53639e-14 1 0
-2.03786e-14 1 0
-2.0067e-14 1 0
1.53639e-14 1 0
1.83367e-14 1 0
-4.88159e-14 1 0
-3.50144e-14 1 0
3.33283e-14 1 0
2.78691e-14 1 0
-3.50144e-14 1 0
-4.19757e-14 1 0
2.78691e-14 1 0
2.68631e-14 1 0
-2.0067e-14 1 0
-1.96144e-14 1 0
1.83367e-14 1 0
1.83644e-14 1 0
-1.96144e-14 1 0
-1.6753e-14 1 0
1.83644e-14 1 0
1.36496e-14 1 0
-4.19757e-14 1 0
-4.32859e-14 1 0
2.68631e-14 1 0
2.98431e-14 1 0
-4.32859e-14 1 0
-3.2748e-14 1 0
2.98431e-14 1 0
2.93871e-14 1 0
-4.17826e-14 1 0
-4.39842e-14 1 0
2.52305e-14 1 0
2.41389e-14 1 0
-4.39842e-14 1 0
-3.53127e-14 1 0
2.41389e-14 1 0
2.42533e-14 1 0
3.92546e-18 1 0
-8.52779e-15 1 0
3.18858e-15 1 0
2.307e-14 1 0
-8.52779e-15 1 0
-7.3536e-15 1 0
2.307e-14 1 0
8.611e-15 1 0
-3.53127e-14 1 0
-4.1813e-14 1 0
2.42533e-14 1 0
3.45728e-14 1 0
-4.1813e-14 1 0
-4.05024e-14 1 0
3.45728e-14 1 0
2.62941e-14 1 0
-7.3536e-15 1 0
-2.2393e-14 1 0
8.611e-15 1 0
3.86238e-14 1 0
-2.2393e-14 1 0
-8.1514e-15 1 0
3.86238e-14 1 0
1.89939e-14 1 0
1.3825e-14 1 0
1.28753e-14 1 0
-3.65718e-15 1 0
-1.12117e-14 1 0
1.28753e-14 1 0
6.07612e-15 1 0
-1.12117e-14 1 0
-5.25217e-15 1 0
1.29244e-14 1 0
1.99591e-14 1 0
-1.11701e-14 1 0
2.32135e-15 1 0
1.99591e-14 1 0
2.73849e-14 1 0
2.32135e-15 1 0
-1.12604e-14 1 0
6.07612e-15 1 0
1.35738e-14 1 0
-5.25217e-15 1 0
-1.51746e-14 1 0
1.35738e-14 1 0
1.39086e-14 1 0
-1.51746e-14 1 0
5.94704e-15 1 0
2.73849e-14 1 0
2.50228e-14 1 0
-1.12604e-14 1 0
-2.52808e-15 1 0
2.50228e-14 1 0
1.39059e-14 1 0
-2.52808e-15 1 0
-3.51861e-15 1 0
2.16026e-14 1 0
1.5444e-14 1 0
-6.692e-15 1 0
-1.17426e-14 1 0
1.5444e-14 1 0
2.57395e-14 1 0
-1.17426e-14 1 0
-1.89137e-14 1 0
1.06585e-14 1 0
1.06054e-14 1 0
-1.48056e-14 1 0
-6.8653e-15 1 0
1.06054e-14 1 0
2.00788e-14 1 0
-6.8653e-15 1 0
-1.08174e-14 1 0
2.57395e-14 1 0
2.55631e-14 1 0
-1.89137e-14 1 0
-1.17707e-14 1 0
2.55631e-14 1 0
2.1312e-14 1 0
-1.17707e-14 1 0
-7.27404e-15 1 0
2.00788e-14 1 0
1.51071e-14 1 0
-1.08174e-14 1 0
-9.90132e-15 1 0
1.51071e-14 1 0
1.69914e-14 1 0
-9.90132e-15 1 0
-1.5501e-14 1 0
1.39086e-14 1 0
-3.85018e-15 1 0
5.94704e-15 1 0
1.98748e-14 1 0
-3.85018e-15 1 0
2.64756e-14 1 0
1.98748e-14 1 0
-8.31552e-15 1 0
1.39059e-14 1 0
1.6592e-15 1 0
-3.51861e-15 1 0
5.35928e-15 1 0
1.6592e-15 1 0
2.42621e-14 1 0
5.35928e-15 1 0
-7.57502e-15 1 0
2.64756e-14 1 0
-1.31102e-14 1 0
-8.31552e-15 1 0
1.99027e-14 1 0
-1.31102e-14 1 0
1.38871e-14 1 0
1.99027e-14 1 0
-7.51557e-15 1 0
2.42621e-14 1 0
7.10308e-15 1 0
-7.57502e-15 1 0
7.58121e-15 1 0
7.10308e-15 1 0
2.07542e-14 1 0
7.58121e-15 1 0
-5.77242e-15 1 0
2.1312e-14 1 0
7.64844e-15 1 0
-7.27404e-15 1 0
4.09126e-15 1 0
7.64844e-15 1 0
1.53991e-14 1 0
4.09126e-15 1 0
-2.11389e-14 1 0
1.69914e-14 1 0
-2.29079e-15 1 0
-1.5501e-14 1 0
1.72345e-14 1 0
-2.29079e-15 1 0
3.07976e-14 1 0
1.72345e-14 1 0
-1.78191e-14 1 0
1.53991e-14 1 0
-1.77655e-15 1 0
-2.11389e-14 1 0
3.28429e-15 1 0
-1.77655e-15 1 0
1.58413e-14 1 0
3.28429e-15 1 0
-1.77099e-14 1 0
3.07976e-14 1 0
4.41114e-16 1 0
-1.78191e-14 1 0
1.03219e-14 1 0
4.41114e-16 1 0
2.64864e-14 1 0
1.03219e-14 1 0
-1.18431e-14 1 0
0 1 0
1.06198e-14 1 0
0 1 0
-1.26643e-14 1 0
1.06198e-14 1 0
-8.78078e-15 1 0
-1.26643e-14 1 0
5.8856e-15 1 0
0 1 0
1.78132e-14 1 0
0 1 0
-1.85738e-14 1 0
1.78132e-14 1 0
-2.06327e-15 1 0
-1.85738e-14 1 0
1.00236e-14 1 0
-8.78078e-15 1 0
-1.28393e-14 1 0
5.8856e-15 1 0
4.65844e-15 1 0
-1.28393e-14 1 0
1.00228e-15 1 0
4.65844e-15 1 0
-7.79727e-16 1 0
-2.06327e-15 1 0
-4.03411e-16 1 0
1.00236e-14 1 0
1.1747e-14 1 0
-4.03411e-16 1 0
-7.6208e-15 1 0
1.1747e-14 1 0
2.80676e-14 1 0
0 1 0
2.16747e-14 1 0
0 1 0
-1.98731e-14 1 0
2.16747e-14 1 0
9.12827e-16 1 0
-1.98731e-14 1 0
4.39114e-16 1 0
0 1 0
2.56247e-14 1 0
0 1 0
-1.97915e-14 1 0
2.56247e-14 1 0
5.50417e-15 1 0
-1.97915e-14 1 0
2.66334e-15 1 0
9.12827e-16 1 0
-1.6843e-16 1 0
4.39114e-16 1 0
5.8522e-15 1 0
-1.6843e-16 1 0
-2.19777e-14 1 0
5.8522e-15 1 0
2.06632e-14 1 0
5.50417e-15 1 0
-2.36417e-15 1 0
2.66334e-15 1 0
1.11139e-14 1 0
-2.36417e-15 1 0
-1.95699e-14 1 0
1.11139e-14 1 0
2.846e-14 1 0
1.00228e-15 1 0
1.56082e-14 1 0
-7.79727e-16 1 0
-3.73125e-15 1 0
1.56082e-14 1 0
8.98191e-15 1 0
-3.73125e-15 1 0
6.82915e-17 1 0
-7.6208e-15 1 0
7.13995e-15 1 0
2.80676e-14 1 0
-6.42188e-15 1 0
7.13995e-15 1 0
4.37577e-15 1 0
-6.42188e-15 1 0
-3.59211e-15 1 0
8.98191e-15 1 0
1.69421e-14 1 0
6.82915e-17 1 0
-1.19575e-14 1 0
1.69421e-14 1 0
1.92249e-14 1 0
-1.19575e-14 1 0
-7.08214e-15 1 0
4.37577e-15 1 0
1.78522e-14 1 0
-3.59211e-15 1 0
-1.21522e-14 1 0
1.78522e-14 1 0
1.62798e-14 1 0
-1.21522e-14 1 0
-1.32056e-14 1 0
-2.19777e-14 1 0
7.08414e-15 1 0
2.06632e-14 1 0
-1.92215e-15 1 0
7.08414e-15 1 0
9.52638e-15 1 0
-1.92215e-15 1 0
-5.07979e-15 1 0
-1.95699e-14 1 0
3.60999e-15 1 0
2.846e-14 1 0
3.07944e-15 1 0
3.60999e-15 1 0
5.574e-15 1 0
3.07944e-15 1 0
-3.94589e-15 1 0
9.52638e-15 1 0
1.7986e-14 1 0
-5.07979e-15 1 0
-1.66489e-14 1 0
1.7986e-14 1 0
1.69292e-14 1 0
-1.66489e-14 1 0
-1.34496e-14 1 0
5.574e-15 1 0
1.23958e-14 1 0
-3.94589e-15 1 0
-5.33367e-15 1 0
1.23958e-14 1 0
6.42707e-15 1 0
-5.33367e-15 1 0
-7.21941e-15 1 0
0 1 0
3.48081e-14 1 0
0 1 0
-3.48971e-14 1 0
3.48081e-14 1 0
2.40138e-14 1 0
-3.48971e-14 1 0
-2.21726e-14 1 0
0 1 0
1.16704e-14 1 0
0 1 0
-1.58963e-15 1 0
1.16704e-14 1 0
3.65994e-15 1 0
-1.58963e-15 1 0
-7.13828e-16 1 0
2.40138e-14 1 0
5.58303e-15 1 0
-2.21726e-14 1 0
-3.23613e-15 1 0
5.58303e-15 1 0
-1.6047e-14 1 0
-3.23613e-15 1 0
1.76793e-14 1 0
3.65994e-15 1 0
-4.2149e-15 1 0
-7.13828e-16 1 0
7.62222e-15 1 0
-4.2149e-15 1 0
-4.91521e-15 1 0
7.62222e-15 1 0
5.04055e-15 1 0
0 1 0
5.21444e-16 1 0
0 1 0
-5.27002e-15 1 0
5.21444e-16 1 0
-2.58677e-15 1 0
-5.27002e-15 1 0
7.69342e-15 1 0
0 1 0
1.71811e-15 1 0
0 1 0
2.98312e-15 1 0
1.71811e-15 1 0
-7.35568e-15 1 0
2.98312e-15 1 0
5.78331e-16 1 0
-2.58677e-15 1 0
3.24234e-16 1 0
7.69342e-15 1 0
-1.65737e-15 1 0
3.24234e-16 1 0
-4.50591e-15 1 0
-1.65737e-15 1 0
9.05748e-15 1 0
-7.35568e-15 1 0
4.19244e-15 1 0
5.78331e-16 1 0
-8.64805e-15 1 0
4.19244e-15 1 0
-1.20811e-14 1 0
-8.64805e-15 1 0
6.79847e-15 1 0
-1.6047e-14 1 0
-1.8335e-15 1 0
1.76793e-14 1 0
5.45701e-15 1 0
-1.8335e-15 1 0
1.00875e-15 1 0
5.45701e-15 1 0
-7.22594e-17 1 0
-4.91521e-15 1 0
1.41091e-15 1 0
5.04055e-15 1 0
9.91524e-15 1 0
1.41091e-15 1 0
3.96367e-15 1 0
9.91524e-15 1 0
8.1603e-15 1 0
1.00875e-15 1 0
-6.79466e-15 1 0
-7.22594e-17 1 0
8.81522e-15 1 0
-6.79466e-15 1 0
8.80086e-16 1 0
8.81522e-15 1 0
1.14927e-14 1 0
3.96367e-15 1 0
-3.75277e-15 1 0
8.1603e-15 1 0
1.84433e-14 1 0
-3.75277e-15 1 0
-9.86439e-15 1 0
1.84433e-14 1 0
1.65632e-14 1 0
-4.50591e-15 1 0
-4.30005e-15 1 0
9.05748e-15 1 0
8.03276e-15 1 0
-4.30005e-15 1 0
1.78366e-16 1 0
8.03276e-15 1 0
3.20698e-15 1 0
-1.20811e-14 1 0
-7.46295e-15 1 0
6.79847e-15 1 0
3.40585e-15 1 0
-7.46295e-15 1 0
-5.69116e-15 1 0
3.40585e-15 1 0
5.77655e-15 1 0
1.78366e-16 1 0
-9.61026e-15 1 0
3.20698e-15 1 0
7.33926e-15 1 0
-9.61026e-15 1 0
-5.116e-15 1 0
7.33926e-15 1 0
1.41786e-15 1 0
-5.69116e-15 1 0
-5.67166e-15 1 0
5.77655e-15 1 0
6.72659e-15 1 0
-5.67166e-15 1 0
1.44044e-15 1 0
6.72659e-15 1 0
6.20787e-15 1 0
1.92249e-14 1 0
1.25949e-14 1 0
-7.08214e-15 1 0
-1.4381e-14 1 0
1.25949e-14 1 0
1.78061e-14 1 0
-1.4381e-14 1 0
-1.71394e-14 1 0
1.62798e-14 1 0
2.68928e-14 1 0
-1.32056e-14 1 0
-1.06023e-14 1 0
2.68928e-14 1 0
1.97165e-14 1 0
-1.06023e-14 1 0
1.5234e-15 1 0
1.78061e-14 1 0
1.35468e-14 1 0
-1.71394e-14 1 0
-1.05576e-14 1 0
1.35468e-14 1 0
2.26327e-14 1 0
-1.05576e-14 1 0
-1.23644e-14 1 0
1.97165e-14 1 0
1.67489e-14 1 0
1.5234e-15 1 0
-4.98112e-15 1 0
1.67489e-14 1 0
1.49738e-14 1 0
-4.98112e-15 1 0
-1.7934e-14 1 0
1.69292e-14 1 0
1.0059e-14 1 0
-1.34496e-14 1 0
-1.07969e-14 1 0
1.0059e-14 1 0
-5.79828e-15 1 0
-1.07969e-14 1 0
-5.60771e-17 1 0
6.42707e-15 1 0
5.46986e-15 1 0
-7.21941e-15 1 0
-2.85905e-15 1 0
5.46986e-15 1 0
5.92156e-15 1 0
-2.85905e-15 1 0
-5.71938e-15 1 0
-5.79828e-15 1 0
4.0333e-15 1 0
-5.60771e-17 1 0
-9.94941e-15 1 0
4.0333e-15 1 0
1.46927e-14 1 0
-9.94941e-15 1 0
-1.02117e-14 1 0
5.92156e-15 1 0
1.1437e-14 1 0
-5.71938e-15 1 0
-9.67713e-15 1 0
1.1437e-14 1 0
8.40396e-15 1 0
-9.67713e-15 1 0
-6.49292e-15 1 0
2.26327e-14 1 0
-9.0672e-15 1 0
-1.23644e-14 1 0
1.33397e-14 1 0
-9.0672e-15 1 0
2.94894e-14 1 0
1.33397e-14 1 0
-9.31129e-15 1 0
1.49738e-14 1 0
5.45219e-16 1 0
-1.7934e-14 1 0
-7.54116e-15 1 0
5.45219e-16 1 0
4.71891e-15 1 0
-7.54116e-15 1 0
-1.12022e-14 1 0
2.94894e-14 1 0
-3.51248e-15 1 0
-9.31129e-15 1 0
1.76461e-14 1 0
-3.51248e-15 1 0
1.61769e-14 1 0
1.76461e-14 1 0
4.18635e-16 1 0
4.71891e-15 1 0
9.06404e-16 1 0
-1.12022e-14 1 0
-1.23039e-14 1 0
9.06404e-16 1 0
1.87734e-15 1 0
-1.23039e-14 1 0
-7.82982e-15 1 0
1.46927e-14 1 0
2.11608e-15 1 0
-1.02117e-14 1 0
-1.25771e-15 1 0
2.11608e-15 1 0
1.34365e-14 1 0
-1.25771e-15 1 0
-2.00767e-14 1 0
8.40396e-15 1 0
-2.91771e-15 1 0
-6.49292e-15 1 0
1.28417e-14 1 0
-2.91771e-15 1 0
2.00377e-14 1 0
1.28417e-14 1 0
-1.15204e-14 1 0
1.34365e-14 1 0
4.73877e-15 1 0
-2.00767e-14 1 0
3.09316e-15 1 0
4.73877e-15 1 0
1.27527e-14 1 0
3.09316e-15 1 0
-1.43881e-14 1 0
2.00377e-14 1 0
-7.0329e-15 1 0
-1.15204e-14 1 0
9.50224e-15 1 0
-7.0329e-15 1 0
1.23768e-14 1 0
9.50224e-15 1 0
-3.24624e-15 1 0
8.80086e-16 1 0
-6.74178e-15 1 0
1.14927e-14 1 0
5.73492e-15 1 0
-6.74178e-15 1 0
-1.0347e-14 1 0
5.73492e-15 1 0
1.40103e-14 1 0
-9.86439e-15 1 0
-1.04106e-16 1 0
1.65632e-14 1 0
1.44409e-14 1 0
-1.04106e-16 1 0
-9.4009e-15 1 0
1.44409e-14 1 0
1.58608e-14 1 0
-1.0347e-14 1 0
-6.44259e-15 1 0
1.40103e-14 1 0
1.67208e-14 1 0
-6.44259e-15 1 0
-2.55411e-15 1 0
1.67208e-14 1 0
6.99681e-15 1 0
-9.4009e-15 1 0
-1.20225e-14 1 0
1.58608e-14 1 0
1.27219e-14 1 0
-1.20225e-14 1 0
-2.0692e-15 1 0
1.27219e-14 1 0
9.15609e-15 1 0
-5.116e-15 1 0
-7.50022e-15 1 0
1.41786e-15 1 0
1.26297e-14 1 0
-7.50022e-15 1 0
-4.55111e-15 1 0
1.26297e-14 1 0
1.12415e-14 1 0
1.44044e-15 1 0
-9.01994e-15 1 0
6.20787e-15 1 0
1.09269e-15 1 0
-9.01994e-15 1 0
-1.0361e-14 1 0
1.09269e-15 1 0
6.51347e-15 1 0
-4.55111e-15 1 0
-4.04165e-15 1 0
1.12415e-14 1 0
8.05639e-15 1 0
-4.04165e-15 1 0
-4.34647e-15 1 0
8.05639e-15 1 0
3.43337e-15 1 0
-1.0361e-14 1 0
-5.64368e-15 1 0
6.51347e-15 1 0
1.02844e-15 1 0
-5.64368e-15 1 0
-6.95015e-15 1 0
1.02844e-15 1 0
5.46823e-15 1 0
-2.55411e-15 1 0
-2.18211e-14 1 0
6.99681e-15 1 0
2.22584e-14 1 0
-2.18211e-14 1 0
5.12648e-15 1 0
2.22584e-14 1 0
2.33432e-16 1 0
-2.0692e-15 1 0
-1.2545e-14 1 0
9.15609e-15 1 0
1.70772e-14 1 0
-1.2545e-14 1 0
-3.2271e-15 1 0
1.70772e-14 1 0
1.9026e-14 1 0
5.12648e-15 1 0
-9.3203e-15 1 0
2.33432e-16 1 0
3.31462e-15 1 0
-9.3203e-15 1 0
4.5432e-17 1 0
3.31462e-15 1 0
-5.517e-15 1 0
-3.2271e-15 1 0
-5.05822e-15 1 0
1.9026e-14 1 0
2.2312e-14 1 0
-5.05822e-15 1 0
1.05794e-15 1 0
2.2312e-14 1 0
1.23517e-14 1 0
-4.34647e-15 1 0
-9.26202e-15 1 0
3.43337e-15 1 0
5.77813e-15 1 0
-9.26202e-15 1 0
-1.09247e-14 1 0
5.77813e-15 1 0
5.17764e-16 1 0
-6.95015e-15 1 0
-1.529e-14 1 0
5.46823e-15 1 0
1.81549e-14 1 0
-1.529e-14 1 0
-1.26796e-15 1 0
1.81549e-14 1 0
3.12753e-15 1 0
-1.09247e-14 1 0
-1.48327e-14 1 0
5.17764e-16 1 0
1.26569e-14 1 0
-1.48327e-14 1 0
-8.19452e-15 1 0
1.26569e-14 1 0
9.07501e-15 1 0
-1.26796e-15 1 0
-1.57572e-14 1 0
3.12753e-15 1 0
1.1616e-14 1 0
-1.57572e-14 1 0
2.84937e-15 1 0
1.1616e-14 1 0
-1.00214e-14 1 0
-1.6753e-14 1 0
-7.84373e-15 1 0
1.36496e-14 1 0
1.72807e-15 1 0
-7.84373e-15 1 0
-3.83473e-16 1 0
1.72807e-15 1 0
-9.61921e-15 1 0
-3.2748e-14 1 0
-2.00377e-14 1 0
2.93871e-14 1 0
1.27131e-14 1 0
-2.00377e-14 1 0
-4.50205e-15 1 0
1.27131e-14 1 0
8.01591e-15 1 0
-3.83473e-16 1 0
-2.14822e-14 1 0
-9.61921e-15 1 0
3.28032e-14 1 0
-2.14822e-14 1 0
-2.33195e-14 1 0
3.28032e-14 1 0
3.89462e-14 1 0
-4.50205e-15 1 0
-4.37049e-14 1 0
8.01591e-15 1 0
2.64987e-14 1 0
-4.37049e-14 1 0
-5.18396e-14 1 0
2.64987e-14 1 0
5.09912e-14 1 0
-4.05024e-14 1 0
-2.94814e-14 1 0
2.62941e-14 1 0
2.12377e-14 1 0
-2.94814e-14 1 0
-4.15872e-14 1 0
2.12377e-14 1 0
2.36984e-14 1 0
-8.1514e-15 1 0
-6.72192e-15 1 0
1.89939e-14 1 0
2.88622e-14 1 0
-6.72192e-15 1 0
-4.19094e-15 1 0
2.88622e-14 1 0
2.33658e-14 1 0
-4.15872e-14 1 0
-2.87483e-14 1 0
2.36984e-14 1 0
2.2718e-14 1 0
-2.87483e-14 1 0
-4.1147e-14 1 0
2.2718e-14 1 0
2.97068e-14 1 0
-4.19094e-15 1 0
-3.1468e-15 1 0
2.33658e-14 1 0
8.16463e-15 1 0
-3.1468e-15 1 0
-1.77627e-14 1 0
8.16463e-15 1 0
2.22519e-14 1 0
-2.33195e-14 1 0
-2.39054e-15 1 0
3.89462e-14 1 0
-3.20434e-15 1 0
-2.39054e-15 1 0
2.14581e-14 1 0
-3.20434e-15 1 0
-2.29514e-14 1 0
-5.18396e-14 1 0
1.26242e-15 1 0
5.09912e-14 1 0
-1.40235e-15 1 0
1.26242e-15 1 0
2.70627e-14 1 0
-1.40235e-15 1 0
-1.33021e-14 1 0
2.14581e-14 1 0
2.2668e-14 1 0
-2.29514e-14 1 0
-2.23467e-14 1 0
2.2668e-14 1 0
3.00227e-14 1 0
-2.23467e-14 1 0
-3.7172e-14 1 0
2.70627e-14 1 0
3.30083e-14 1 0
-1.33021e-14 1 0
-3.13672e-14 1 0
3.30083e-14 1 0
4.19723e-14 1 0
-3.13672e-14 1 0
-2.63903e-14 1 0
-4.1147e-14 1 0
8.03892e-15 1 0
2.97068e-14 1 0
-2.28405e-15 1 0
8.03892e-15 1 0
1.88539e-14 1 0
-2.28405e-15 1 0
-2.16003e-14 1 0
-1.77627e-14 1 0
4.55928e-15 1 0
2.22519e-14 1 0
6.15473e-15 1 0
4.55928e-15 1 0
1.15034e-14 1 0
6.15473e-15 1 0
-3.40632e-16 1 0
1.88539e-14 1 0
3.39868e-14 1 0
-2.16003e-14 1 0
-5.89514e-15 1 0
3.39868e-14 1 0
3.16565e-14 1 0
-5.89514e-15 1 0
-1.62121e-15 1 0
1.15034e-14 1 0
-3.09249e-14 1 0
-3.40632e-16 1 0
3.15813e-14 1 0
-3.09249e-14 1 0
-3.99948e-14 1 0
3.15813e-14 1 0
2.7558e-14 1 0
1.38871e-14 1 0
7.14921e-16 1 0
-7.51557e-15 1 0
-4.32917e-15 1 0
7.14921e-16 1 0
3.58938e-15 1 0
-4.32917e-15 1 0
-1.01219e-15 1 0
2.07542e-14 1 0
2.3061e-14 1 0
-5.77242e-15 1 0
-1.19501e-14 1 0
2.3061e-14 1 0
2.39804e-14 1 0
-1.19501e-14 1 0
-1.24954e-14 1 0
3.58938e-15 1 0
1.00138e-14 1 0
-1.01219e-15 1 0
5.75676e-15 1 0
1.00138e-14 1 0
-1.11104e-14 1 0
5.75676e-15 1 0
2.26585e-14 1 0
2.39804e-14 1 0
1.79159e-14 1 0
-1.24954e-14 1 0
-2.12003e-14 1 0
1.79159e-14 1 0
-1.03237e-14 1 0
-2.12003e-14 1 0
2.58491e-14 1 0
1.58413e-14 1 0
1.33856e-14 1 0
-1.77099e-14 1 0
3.00354e-15 1 0
1.33856e-14 1 0
2.02027e-14 1 0
3.00354e-15 1 0
-1.42414e-14 1 0
2.64864e-14 1 0
1.56262e-14 1 0
-1.18431e-14 1 0
-1.40235e-14 1 0
1.56262e-14 1 0
3.06814e-14 1 0
-1.40235e-14 1 0
-2.10695e-14 1 0
2.02027e-14 1 0
2.22294e-14 1 0
-1.42414e-14 1 0
-1.09624e-14 1 0
2.22294e-14 1 0
-2.05337e-14 1 0
-1.09624e-14 1 0
2.26481e-14 1 0
3.06814e-14 1 0
1.65886e-14 1 0
-2.10695e-14 1 0
-3.33664e-15 1 0
1.65886e-14 1 0
-1.7708e-14 1 0
-3.33664e-15 1 0
2.77762e-14 1 0
-1.11104e-14 1 0
-3.97292e-15 1 0
2.26585e-14 1 0
2.00625e-14 1 0
-3.97292e-15 1 0
1.53326e-14 1 0
2.00625e-14 1 0
-1.45682e-14 1 0
-1.03237e-14 1 0
-3.83768e-15 1 0
2.58491e-14 1 0
6.39801e-15 1 0
-3.83768e-15 1 0
2.7391e-14 1 0
6.39801e-15 1 0
-1.67475e-14 1 0
1.53326e-14 1 0
1.47103e-14 1 0
-1.45682e-14 1 0
-2.66437e-14 1 0
1.47103e-14 1 0
2.83667e-14 1 0
-2.66437e-14 1 0
-4.04234e-14 1 0
2.7391e-14 1 0
3.58255e-14 1 0
-1.67475e-14 1 0