# vtk DataFile Version 3.0
#This file was generated by the deal.II library on 2018/10/14 at 17:20:32
ASCII
DATASET UNSTRUCTURED_GRID

POINTS 20480 double
0 0 0
0.19635 0 0
0 0.312235 0
0.19635 0.312235 0
0.19635 0 0
0.392699 0 0
0.19635 0.312235 0
0.392699 0.312235 0
0 0.312235 0
0.19635 0.312235 0
0 0.624749 0
0.19635 0.624749 0
0.19635 0.312235 0
0.392699 0.312235 0
0.19635 0.624749 0
0.392699 0.624749 0
0.392699 0 0
0.589049 0 0
0.392699 0.312235 0
0.589049 0.312235 0
0.589049 0 0
0.785398 0 0
0.589049 0.312235 0
0.785398 0.312235 0
0.392699 0.312235 0
0.589049 0.312235 0
0.392699 0.624749 0
0.589049 0.624749 0
0.589049 0.312235 0
0.785398 0.312235 0
0.589049 0.624749 0
0.785398 0.624749 0
0 0.624749 0
0.19635 0.624749 0
0 0.93725 0
0.19635 0.93725 0
0.19635 0.624749 0
0.392699 0.624749 0
0.19635 0.93725 0
0.392699 0.93725 0
0 0.93725 0
0.19635 0.93725 0
0 1.24976 0
0.19635 1.24976 0
0.19635 0.93725 0
0.392699 0.93725 0
0.19635 1.24976 0
0.392699 1.24976 0
0.392699 0.624749 0
0.589049 0.624749 0
0.392699 0.93725 0
0.589049 0.93725 0
0.589049 0.624749 0
0.785398 0.624749 0
0.589049 0.93725 0
0.785398 0.93725 0
0.392699 0.93725 0
0.589049 0.93725 0
0.392699 1.24976 0
0.589049 1.24976 0
0.589049 0.93725 0
0.785398 0.93725 0
0.589049 1.24976 0
0.785398 1.24976 0
0.785398 0 0
0.981748 0 0
0.785398 0.312235 0
0.981748 0.312235 0
0.981748 0 0
1.1781 0 0
0.981748 0.312235 0
1.1781 0.312235 0
0.785398 0.312235 0
0.981748 0.312235 0
0.785398 0.624749 0
0.981748 0.624749 0
0.981748 0.312235 0
1.1781 0.312235 0
0.981748 0.624749 0
1.1781 0.624749 0
1.1781 0 0
1.37445 0 0
1.1781 0.312235 0
1.37445 0.312235 0
1.37445 0 0
1.5708 0 0
1.37445 0.312235 0
1.5708 0.312235 0
1.1781 0.312235 0
1.37445 0.312235 0
1.1781 0.624749 0
1.37445 0.624749 0
1.37445 0.312235 0
1.5708 0.312235 0
1.37445 0.624749 0
1.5708 0.624749 0
0.785398 0.624749 0
0.981748 0.624749 0
0.785398 0.93725 0
0.981748 0.93725 0
0.981748 0.624749 0
1.1781 0.624749 0
0.981748 0.93725 0
1.1781 0.93725 0
0.785398 0.93725 0
0.981748 0.93725 0
0.785398 1.24976 0
0.981748 1.24976 0
0.981748 0.93725 0
1.1781 0.93725 0
0.981748 1.24976 0
1.1781 1.24976 0
1.1781 0.624749 0
1.37445 0.624749 0
1.1781 0.93725 0
1.37445 0.93725 0
1.37445 0.624749 0
1.5708 0.624749 0
1.37445 0.93725 0
1.5708 0.93725 0
1.1781 0.93725 0
1.37445 0.93725 0
1.1781 1.24976 0
1.37445 1.24976 0
1.37445 0.93725 0
1.5708 0.93725 0
1.37445 1.24976 0
1.5708 1.24976 0
0 1.24976 0
0.19635 1.24976 0
0 1.56227 0
0.19635 1.56227 0
0.19635 1.24976 0
0.392699 1.24976 0
0.19635 1.56227 0
0.392699 1.56227 0
0 1.56227 0
0.19635 1.56227 0
0 1.87478 0
0.19635 1.87478 0
0.19635 1.56227 0
0.392699 1.56227 0
0.19635 1.87478 0
0.392699 1.87478 0
0.392699 1.24976 0
0.589049 1.24976 0
0.392699 1.56227 0
0.589049 1.56227 0
0.589049 1.24976 0
0.785398 1.24976 0
0.589049 1.56227 0
0.785398 1.56227 0
0.392699 1.56227 0
0.589049 1.56227 0
0.392699 1.87478 0
0.589049 1.87478 0
0.589049 1.56227 0
0.785398 1.56227 0
0.589049 1.87478 0
0.785398 1.87478 0
0 1.87478 0
0.19635 1.87478 0
0 2.18729 0
0.19635 2.18729 0
0.19635 1.87478 0
0.392699 1.87478 0
0.19635 2.18729 0
0.392699 2.18729 0
0 2.18729 0
0.19635 2.18729 0
0 2.4998 0
0.19635 2.4998 0
0.19635 2.18729 0
0.392699 2.18729 0
0.19635 2.4998 0
0.392699 2.4998 0
0.392699 1.87478 0
0.589049 1.87478 0
0.392699 2.18729 0
0.589049 2.18729 0
0.589049 1.87478 0
0.785398 1.87478 0
0.589049 2.18729 0
0.785398 2.18729 0
0.392699 2.18729 0
0.589049 2.18729 0
0.392699 2.4998 0
0.589049 2.4998 0
0.589049 2.18729 0
0.785398 2.18729 0
0.589049 2.4998 0
0.785398 2.4998 0
0.785398 1.24976 0
0.981748 1.24976 0
0.785398 1.56227 0
0.981748 1.56227 0
0.981748 1.24976 0
1.1781 1.24976 0
0.981748 1.56227 0
1.1781 1.56227 0
0.785398 1.56227 0
0.981748 1.56227 0
0.785398 1.87478 0
0.981748 1.87478 0
0.981748 1.56227 0
1.1781 1.56227 0
0.981748 1.87478 0
1.1781 1.87478 0
1.1781 1.24976 0
1.37445 1.24976 0
1.1781 1.56227 0
1.37445 1.56227 0
1.37445 1.24976 0
1.5708 1.24976 0
1.37445 1.56227 0
1.5708 1.56227 0
1.1781 1.56227 0
1.37445 1.56227 0
1.1781 1.87478 0
1.37445 1.87478 0
1.37445 1.56227 0
1.5708 1.56227 0
1.37445 1.87478 0
1.5708 1.87478 0
0.785398 1.87478 0
0.981748 1.87478 0
0.785398 2.18729 0
0.981748 2.18729 0
0.981748 1.87478 0
1.1781 1.87478 0
0.981748 2.18729 0
1.1781 2.18729 0
0.785398 2.18729 0
0.981748 2.18729 0
0.785398 2.4998 0
0.981748 2.4998 0
0.981748 2.18729 0
1.1781 2.18729 0
0.981748 2.4998 0
1.1781 2.4998 0
1.1781 1.87478 0
1.37445 1.87478 0
1.1781 2.18729 0
1.37445 2.18729 0
1.37445 1.87478 0
1.5708 1.87478 0
1.37445 2.18729 0
1.5708 2.18729 0
1.1781 2.18729 0
1.37445 2.18729 0
1.1781 2.4998 0
1.37445 2.4998 0
1.37445 2.18729 0
1.5708 2.18729 0
1.37445 2.4998 0
1.5708 2.4998 0
1.5708 0 0
1.76715 0 0
1.5708 0.312235 0
1.76715 0.312235 0
1.76715 0 0
1.9635 0 0
1.76715 0.312235 0
1.9635 0.312235 0
1.5708 0.312235 0
1.76715 0.312235 0
1.5708 0.624749 0
1.76715 0.624749 0
1.76715 0.312235 0
1.9635 0.312235 0
1.76715 0.624749 0
1.9635 0.624749 0
1.9635 0 0
2.15984 0 0
1.9635 0.312235 0
2.15984 0.312235 0
2.15984 0 0
2.35619 0 0
2.15984 0.312235 0
2.35619 0.312235 0
1.9635 0.312235 0
2.15984 0.312235 0
1.9635 0.624749 0
2.15984 0.624749 0
2.15984 0.312235 0
2.35619 0.312235 0
2.15984 0.624749 0
2.35619 0.624749 0
1.5708 0.624749 0
1.76715 0.624749 0
1.5708 0.93725 0
1.76715 0.93725 0
1.76715 0.624749 0
1.9635 0.624749 0
1.76715 0.93725 0
1.9635 0.93725 0
1.5708 0.93725 0
1.76715 0.93725 0
1.5708 1.24976 0
1.76715 1.24976 0
1.76715 0.93725 0
1.9635 0.93725 0
1.76715 1.24976 0
1.9635 1.24976 0
1.9635 0.624749 0
2.15984 0.624749 0
1.9635 0.93725 0
2.15984 0.93725 0
2.15984 0.624749 0
2.35619 0.624749 0
2.15984 0.93725 0
2.35619 0.93725 0
1.9635 0.93725 0
2.15984 0.93725 0
1.9635 1.24976 0
2.15984 1.24976 0
2.15984 0.93725 0
2.35619 0.93725 0
2.15984 1.24976 0
2.35619 1.24976 0
2.35619 0 0
2.55254 0 0
2.35619 0.312235 0
2.55254 0.312235 0
2.55254 0 0
2.74889 0 0
2.55254 0.312235 0
2.74889 0.312235 0
2.35619 0.312235 0
2.55254 0.312235 0
2.35619 0.624749 0
2.55254 0.624749 0
2.55254 0.312235 0
2.74889 0.312235 0
2.55254 0.624749 0
2.74889 0.624749 0
2.74889 0 0
2.94524 0 0
2.74889 0.312235 0
2.94524 0.312235 0
2.94524 0 0
3.14159 0 0
2.94524 0.312235 0
3.14159 0.312235 0
2.74889 0.312235 0
2.94524 0.312235 0
2.74889 0.624749 0
2.94524 0.624749 0
2.94524 0.312235 0
3.14159 0.312235 0
2.94524 0.624749 0
3.14159 0.624749 0
2.35619 0.624749 0
2.55254 0.624749 0
2.35619 0.93725 0
2.55254 0.93725 0
2.55254 0.624749 0
2.74889 0.624749 0
2.55254 0.93725 0
2.74889 0.93725 0
2.35619 0.93725 0
2.55254 0.93725 0
2.35619 1.24976 0
2.55254 1.24976 0
2.55254 0.93725 0
2.74889 0.93725 0
2.55254 1.24976 0
2.74889 1.24976 0
2.74889 0.624749 0
2.94524 0.624749 0
2.74889 0.93725 0
2.94524 0.93725 0
2.94524 0.624749 0
3.14159 0.624749 0
2.94524 0.93725 0
3.14159 0.93725 0
2.74889 0.93725 0
2.94524 0.93725 0
2.74889 1.24976 0
2.94524 1.24976 0
2.94524 0.93725 0
3.14159 0.93725 0
2.94524 1.24976 0
3.14159 1.24976 0
1.5708 1.24976 0
1.76715 1.24976 0
1.5708 1.56227 0
1.76715 1.56227 0
1.76715 1.24976 0
1.9635 1.24976 0
1.76715 1.56227 0
1.9635 1.56227 0
1.5708 1.56227 0
1.76715 1.56227 0
1.5708 1.87478 0
1.76715 1.87478 0
1.76715 1.56227 0
1.9635 1.56227 0
1.76715 1.87478 0
1.9635 1.87478 0
1.9635 1.24976 0
2.15984 1.24976 0
1.9635 1.56227 0
2.15984 1.56227 0
2.15984 1.24976 0
2.35619 1.24976 0
2.15984 1.56227 0
2.35619 1.56227 0
1.9635 1.56227 0
2.15984 1.56227 0
1.9635 1.87478 0
2.15984 1.87478 0
2.15984 1.56227 0
2.35619 1.56227 0
2.15984 1.87478 0
2.35619 1.87478 0
1.5708 1.87478 0
1.76715 1.87478 0
1.5708 2.18729 0
1.76715 2.18729 0
1.76715 1.87478 0
1.9635 1.87478 0
1.76715 2.18729 0
1.9635 2.18729 0
1.5708 2.18729 0
1.76715 2.18729 0
1.5708 2.4998 0
1.76715 2.4998 0
1.76715 2.18729 0
1.9635 2.18729 0
1.76715 2.4998 0
1.9635 2.4998 0
1.9635 1.87478 0
2.15984 1.87478 0
1.9635 2.18729 0
2.15984 2.18729 0
2.15984 1.87478 0
2.35619 1.87478 0
2.15984 2.18729 0
2.35619 2.18729 0
1.9635 2.18729 0
2.15984 2.18729 0
1.9635 2.4998 0
2.15984 2.4998 0
2.15984 2.18729 0
2.35619 2.18729 0
2.15984 2.4998 0
2.35619 2.4998 0
2.35619 1.24976 0
2.55254 1.24976 0
2.35619 1.56227 0
2.55254 1.56227 0
2.55254 1.24976 0
2.74889 1.24976 0
2.55254 1.56227 0
2.74889 1.56227 0
2.35619 1.56227 0
2.55254 1.56227 0
2.35619 1.87478 0
2.55254 1.87478 0
2.55254 1.56227 0
2.74889 1.56227 0
2.55254 1.87478 0
2.74889 1.87478 0
2.74889 1.24976 0
2.94524 1.24976 0
2.74889 1.56227 0
2.94524 1.56227 0
2.94524 1.24976 0
3.14159 1.24976 0
2.94524 1.56227 0
3.14159 1.56227 0
2.74889 1.56227 0
2.94524 1.56227 0
2.74889 1.87478 0
2.94524 1.87478 0
2.94524 1.56227 0
3.14159 1.56227 0
2.94524 1.87478 0
3.14159 1.87478 0
2.35619 1.87478 0
2.55254 1.87478 0
2.35619 2.18729 0
2.55254 2.18729 0
2.55254 1.87478 0
2.74889 1.87478 0
2.55254 2.18729 0
2.74889 2.18729 0
2.35619 2.18729 0
2.55254 2.18729 0
2.35619 2.4998 0
2.55254 2.4998 0
2.55254 2.18729 0
2.74889 2.18729 0
2.55254 2.4998 0
2.74889 2.4998 0
2.74889 1.87478 0
2.94524 1.87478 0
2.74889 2.18729 0
2.94524 2.18729 0
2.94524 1.87478 0
3.14159 1.87478 0
2.94524 2.18729 0
3.14159 2.18729 0
2.74889 2.18729 0
2.94524 2.18729 0
2.74889 2.4998 0
2.94524 2.4998 0
2.94524 2.18729 0
3.14159 2.18729 0
2.94524 2.4998 0
3.14159 2.4998 0
0 2.4998 0
0.19635 2.4998 0
0 2.81231 0
0.19635 2.81231 0
0.19635 2.4998 0
0.392699 2.4998 0
0.19635 2.81231 0
0.392699 2.81231 0
0 2.81231 0
0.19635 2.81231 0
0 3.12482 0
0.19635 3.12482 0
0.19635 2.81231 0
0.392699 2.81231 0
0.19635 3.12482 0
0.392699 3.12482 0
0.392699 2.4998 0
0.589049 2.4998 0
0.392699 2.81231 0
0.589049 2.81231 0
0.589049 2.4998 0
0.785398 2.4998 0
0.589049 2.81231 0
0.785398 2.81231 0
0.392699 2.81231 0
0.589049 2.81231 0
0.392699 3.12482 0
0.589049 3.12482 0
0.589049 2.81231 0
0.785398 2.81231 0
0.589049 3.12482 0
0.785398 3.12482 0
0 3.12482 0
0.19635 3.12482 0
0 3.43732 0
0.19635 3.43732 0
0.19635 3.12482 0
0.392699 3.12482 0
0.19635 3.43732 0
0.392699 3.43732 0
0 3.43732 0
0.19635 3.43732 0
0 3.74983 0
0.19635 3.74983 0
0.19635 3.43732 0
[...]
POINT_DATA 20480
VECTORS uf double
0 1 0
1.35024e-15 1 0
0 1 0
-6.31382e-15 1 0
1.35024e-15 1 0
1.43708e-14 1 0
-6.31382e-15 1 0
-1.83535e-14 1 0
0 1 0
9.24765e-15 1 0
0 1 0
-1.01543e-14 1 0
9.24765e-15 1 0
7.61567e-15 1 0
-1.01543e-14 1 0
-2.73347e-15 1 0
1.43708e-14 1 0
-3.82187e-15 1 0
-1.83535e-14 1 0
1.65273e-15 1 0
-3.82187e-15 1 0
-9.26919e-15 1 0
1.65273e-15 1 0
4.14281e-15 1 0
7.61567e-15 1 0
1.03119e-14 1 0
-2.73347e-15 1 0
-1.65001e-14 1 0
1.03119e-14 1 0
-5.30687e-15 1 0
-1.65001e-14 1 0
1.15764e-14 1 0
0 1 0
7.73966e-15 1 0
0 1 0
-2.92208e-15 1 0
7.73966e-15 1 0
-3.99268e-15 1 0
-2.92208e-15 1 0
2.48481e-15 1 0
0 1 0
4.94464e-15 1 0
0 1 0
-3.72654e-15 1 0
4.94464e-15 1 0
-5.19299e-15 1 0
-3.72654e-15 1 0
1.08653e-14 1 0
-3.99268e-15 1 0
1.31278e-14 1 0
2.48481e-15 1 0
-1.01333e-14 1 0
1.31278e-14 1 0
-3.00904e-15 1 0
-1.01333e-14 1 0
5.06215e-15 1 0
-5.19299e-15 1 0
1.49207e-14 1 0
1.08653e-14 1 0
-7.02244e-15 1 0
1.49207e-14 1 0
1.0093e-15 1 0
-7.02244e-15 1 0
-6.63965e-16 1 0
-9.26919e-15 1 0
-3.747e-15 1 0
4.14281e-15 1 0
-6.48879e-15 1 0
-3.747e-15 1 0
-1.15632e-14 1 0
-6.48879e-15 1 0
1.6618e-14 1 0
-5.30687e-15 1 0
1.40027e-14 1 0
1.15764e-14 1 0
-6.20919e-15 1 0
1.40027e-14 1 0
-9.04023e-15 1 0
-6.20919e-15 1 0
1.14503e-14 1 0
-1.15632e-14 1 0
-6.51514e-15 1 0
1.6618e-14 1 0
1.00336e-14 1 0
-6.51514e-15 1 0
3.02688e-15 1 0
1.00336e-14 1 0
-8.85148e-15 1 0
-9.04023e-15 1 0
-4.69733e-15 1 0
1.14503e-14 1 0
2.71013e-15 1 0
-4.69733e-15 1 0
2.5056e-15 1 0
2.71013e-15 1 0
5.6675e-15 1 0
-3.00904e-15 1 0
-7.92452e-15 1 0
5.06215e-15 1 0
1.78044e-14 1 0
-7.92452e-15 1 0
-1.0799e-14 1 0
1.78044e-14 1 0
7.84987e-15 1 0
1.0093e-15 1 0
-1.21988e-14 1 0
-6.63965e-16 1 0
1.4684e-14 1 0
-1.21988e-14 1 0
-6.84886e-15 1 0
1.4684e-14 1 0
9.37159e-16 1 0
-1.0799e-14 1 0
-4.72498e-15 1 0
7.84987e-15 1 0
4.90608e-15 1 0
-4.72498e-15 1 0
-1.03221e-15 1 0
4.90608e-15 1 0
2.58013e-15 1 0
-6.84886e-15 1 0
-1.17552e-15 1 0
9.37159e-16 1 0
-2.35076e-15 1 0
-1.17552e-15 1 0
-8.98393e-15 1 0
-2.35076e-15 1 0
1.66274e-14 1 0
0 1 0
3.24936e-15 1 0
0 1 0
-1.09165e-14 1 0
3.24936e-15 1 0
-5.60755e-15 1 0
-1.09165e-14 1 0
3.89795e-15 1 0
0 1 0
2.22582e-14 1 0
0 1 0
-1.71157e-14 1 0
2.22582e-14 1 0
-8.2291e-15 1 0
-1.71157e-14 1 0
4.97734e-15 1 0
-5.60755e-15 1 0
-7.16267e-15 1 0
3.89795e-15 1 0
5.93773e-15 1 0
-7.16267e-15 1 0
6.25337e-16 1 0
5.93773e-15 1 0
-1.8831e-15 1 0
-8.2291e-15 1 0
-5.73798e-15 1 0
4.97734e-15 1 0
2.27154e-15 1 0
-5.73798e-15 1 0
-3.51324e-15 1 0
2.27154e-15 1 0
3.8434e-15 1 0
0 1 0
7.05217e-15 1 0
0 1 0
-5.16879e-15 1 0
7.05217e-15 1 0
-5.39055e-15 1 0
-5.16879e-15 1 0
1.28838e-14 1 0
0 1 0
1.2138e-14 1 0
0 1 0
-1.14983e-14 1 0
1.2138e-14 1 0
-3.68624e-15 1 0
-1.14983e-14 1 0
-1.43266e-15 1 0
-5.39055e-15 1 0
9.67534e-15 1 0
1.28838e-14 1 0
-5.59954e-15 1 0
9.67534e-15 1 0
6.48316e-15 1 0
-5.59954e-15 1 0
-3.42212e-15 1 0
-3.68624e-15 1 0
-1.41904e-15 1 0
-1.43266e-15 1 0
1.46888e-15 1 0
-1.41904e-15 1 0
-2.17973e-15 1 0
1.46888e-15 1 0
5.17501e-15 1 0
6.25337e-16 1 0
-2.19625e-14 1 0
-1.8831e-15 1 0
1.53623e-14 1 0
-2.19625e-14 1 0
-1.01732e-15 1 0
1.53623e-14 1 0
9.84828e-15 1 0
-3.51324e-15 1 0
-9.97961e-15 1 0
3.8434e-15 1 0
2.11236e-14 1 0
-9.97961e-15 1 0
-1.502e-14 1 0
2.11236e-14 1 0
1.92651e-14 1 0
-1.01732e-15 1 0
-1.957e-15 1 0
9.84828e-15 1 0
1.0555e-14 1 0
-1.957e-15 1 0
-1.48248e-14 1 0
1.0555e-14 1 0
1.94927e-14 1 0
-1.502e-14 1 0
7.47719e-15 1 0
1.92651e-14 1 0
-3.0426e-15 1 0
7.47719e-15 1 0
-1.10281e-14 1 0
-3.0426e-15 1 0
2.52994e-15 1 0
6.48316e-15 1 0
-9.31069e-15 1 0
-3.42212e-15 1 0
-2.74331e-15 1 0
-9.31069e-15 1 0
-5.78898e-15 1 0
-2.74331e-15 1 0
7.58016e-15 1 0
-2.17973e-15 1 0
-1.25158e-15 1 0
5.17501e-15 1 0
9.71147e-15 1 0
-1.25158e-15 1 0
-5.38973e-15 1 0
9.71147e-15 1 0
2.80843e-15 1 0
-5.78898e-15 1 0
-7.13334e-15 1 0
7.58016e-15 1 0
1.02628e-14 1 0
-7.13334e-15 1 0
1.90572e-16 1 0
1.02628e-14 1 0
3.10735e-15 1 0
-5.38973e-15 1 0
-9.05958e-15 1 0
2.80843e-15 1 0
1.18026e-14 1 0
-9.05958e-15 1 0
-7.92831e-16 1 0
1.18026e-14 1 0
-1.66313e-15 1 0
3.02688e-15 1 0
-4.88559e-15 1 0
-8.85148e-15 1 0
3.66397e-15 1 0
-4.88559e-15 1 0
-1.22483e-14 1 0
3.66397e-15 1 0
1.20028e-14 1 0
2.5056e-15 1 0
-1.34696e-15 1 0
5.6675e-15 1 0
4.93418e-15 1 0
-1.34696e-15 1 0
-7.94498e-15 1 0
4.93418e-15 1 0
2.20806e-15 1 0
-1.22483e-14 1 0
4.9152e-15 1 0
1.20028e-14 1 0
-1.16081e-14 1 0
4.9152e-15 1 0
-3.56134e-16 1 0
-1.16081e-14 1 0
3.0064e-15 1 0
-7.94498e-15 1 0
4.01681e-15 1 0
2.20806e-15 1 0
5.75894e-15 1 0
4.01681e-15 1 0
-1.26163e-15 1 0
5.75894e-15 1 0
2.45117e-15 1 0
-1.03221e-15 1 0
-3.2155e-15 1 0
2.58013e-15 1 0
1.61896e-14 1 0
-3.2155e-15 1 0
5.4525e-15 1 0
1.61896e-14 1 0
1.64108e-14 1 0
-8.98393e-15 1 0
-2.38774e-14 1 0
1.66274e-14 1 0
2.18227e-14 1 0
-2.38774e-14 1 0
-1.963e-14 1 0
2.18227e-14 1 0
1.59396e-14 1 0
5.4525e-15 1 0
-3.68933e-15 1 0
1.64108e-14 1 0
1.85235e-14 1 0
-3.68933e-15 1 0
1.06698e-14 1 0
1.85235e-14 1 0
5.63314e-16 1 0
-1.963e-14 1 0
-1.09876e-14 1 0
1.59396e-14 1 0
-1.41231e-15 1 0
-1.09876e-14 1 0
2.68049e-15 1 0
-1.41231e-15 1 0
-1.08801e-14 1 0
-3.56134e-16 1 0
4.7934e-15 1 0
3.0064e-15 1 0
-1.42982e-15 1 0
4.7934e-15 1 0
7.69607e-16 1 0
-1.42982e-15 1 0
1.05265e-14 1 0
-1.26163e-15 1 0
2.83411e-15 1 0
2.45117e-15 1 0
1.69811e-14 1 0
2.83411e-15 1 0
9.40383e-15 1 0
1.69811e-14 1 0
-3.38636e-15 1 0
7.69607e-16 1 0
1.0417e-14 1 0
1.05265e-14 1 0
6.32417e-15 1 0
1.0417e-14 1 0
-5.51585e-16 1 0
6.32417e-15 1 0
1.64141e-14 1 0
9.40383e-15 1 0
-7.66488e-15 1 0
-3.38636e-15 1 0
1.51938e-14 1 0
-7.66488e-15 1 0
-1.88615e-14 1 0
1.51938e-14 1 0
2.74307e-14 1 0
1.06698e-14 1 0
-6.50442e-15 1 0
5.63314e-16 1 0
-5.44412e-15 1 0
-6.50442e-15 1 0
-1.45069e-15 1 0
-5.44412e-15 1 0
2.56074e-15 1 0
2.68049e-15 1 0
2.93232e-15 1 0
-1.08801e-14 1 0
3.97981e-15 1 0
2.93232e-15 1 0
-5.64107e-15 1 0
3.97981e-15 1 0
6.3102e-15 1 0
-1.45069e-15 1 0
-1.09153e-14 1 0
2.56074e-15 1 0
4.68537e-16 1 0
-1.09153e-14 1 0
-1.87081e-14 1 0
4.68537e-16 1 0
2.35383e-14 1 0
-5.64107e-15 1 0
-4.13995e-15 1 0
6.3102e-15 1 0
1.16468e-14 1 0
-4.13995e-15 1 0
-2.36527e-14 1 0
1.16468e-14 1 0
2.82743e-14 1 0
-1.48248e-14 1 0
-2.08663e-14 1 0
1.94927e-14 1 0
2.57536e-14 1 0
-2.08663e-14 1 0
-4.96333e-15 1 0
2.57536e-14 1 0
7.30394e-15 1 0
-1.10281e-14 1 0
-1.83155e-14 1 0
2.52994e-15 1 0
1.86837e-14 1 0
-1.83155e-14 1 0
1.40178e-15 1 0
1.86837e-14 1 0
-5.81064e-15 1 0
-4.96333e-15 1 0
3.4073e-15 1 0
7.30394e-15 1 0
4.75596e-15 1 0
3.4073e-15 1 0
1.1685e-14 1 0
4.75596e-15 1 0
-3.93698e-15 1 0
1.40178e-15 1 0
-3.35218e-15 1 0
-5.81064e-15 1 0
6.17264e-15 1 0
-3.35218e-15 1 0
1.18837e-14 1 0
6.17264e-15 1 0
-8.68151e-15 1 0
1.90572e-16 1 0
-1.24432e-14 1 0
3.10735e-15 1 0
4.26034e-15 1 0
-1.24432e-14 1 0
-6.97933e-15 1 0
4.26034e-15 1 0
6.51114e-15 1 0
-7.92831e-16 1 0
-4.36621e-15 1 0
-1.66313e-15 1 0
1.58779e-14 1 0
-4.36621e-15 1 0
-2.06801e-15 1 0
1.58779e-14 1 0
1.61178e-14 1 0
-6.97933e-15 1 0
-1.31146e-14 1 0
6.51114e-15 1 0
9.60453e-15 1 0
-1.31146e-14 1 0
-2.40287e-15 1 0
9.60453e-15 1 0
1.00342e-15 1 0
-2.06801e-15 1 0
2.11087e-15 1 0
1.61178e-14 1 0
5.02288e-15 1 0
2.11087e-15 1 0
-5.38933e-15 1 0
5.02288e-15 1 0
5.00935e-15 1 0
1.1685e-14 1 0
-4.66858e-15 1 0
-3.93698e-15 1 0
4.32737e-15 1 0
-4.66858e-15 1 0
8.44567e-15 1 0
4.32737e-15 1 0
-9.89109e-15 1 0
1.18837e-14 1 0
-2.21546e-15 1 0
-8.68151e-15 1 0
4.48985e-15 1 0
-2.21546e-15 1 0
1.31527e-14 1 0
4.48985e-15 1 0
-1.02635e-14 1 0
8.44567e-15 1 0
-4.6964e-15 1 0
-9.89109e-15 1 0
6.8708e-15 1 0
-4.6964e-15 1 0
-2.17691e-14 1 0
6.8708e-15 1 0
1.20192e-14 1 0
1.31527e-14 1 0
8.02578e-15 1 0
-1.02635e-14 1 0
-1.05453e-14 1 0
8.02578e-15 1 0
1.19273e-14 1 0
-1.05453e-14 1 0
-7.04324e-15 1 0
-2.40287e-15 1 0
-4.68008e-15 1 0
1.00342e-15 1 0
-1.1527e-15 1 0
-4.68008e-15 1 0
3.37517e-15 1 0
-1.1527e-15 1 0
-1.1316e-14 1 0
-5.38933e-15 1 0
-6.89611e-15 1 0
5.00935e-15 1 0
1.81436e-14 1 0
-6.89611e-15 1 0
9.8983e-15 1 0
1.81436e-14 1 0
-6.27084e-15 1 0
3.37517e-15 1 0
4.46146e-15 1 0
-1.1316e-14 1 0
2.9765e-15 1 0
4.46146e-15 1 0
-5.8055e-15 1 0
2.9765e-15 1 0
1.16727e-14 1 0
9.8983e-15 1 0
-1.03799e-14 1 0
-6.27084e-15 1 0
1.32843e-14 1 0
-1.03799e-14 1 0
-1.9393e-14 1 0
1.32843e-14 1 0
1.47539e-14 1 0
0 1 0
-1.08943e-15 1 0
0 1 0
2.22656e-15 1 0
-1.08943e-15 1 0
1.57121e-15 1 0
2.22656e-15 1 0
-5.76831e-15 1 0
0 1 0
-6.44911e-15 1 0
0 1 0
1.01493e-14 1 0
-6.44911e-15 1 0
1.14538e-14 1 0
1.01493e-14 1 0
-5.16194e-15 1 0
1.57121e-15 1 0
-4.38595e-15 1 0
-5.76831e-15 1 0
1.2307e-14 1 0
-4.38595e-15 1 0
-8.24743e-15 1 0
1.2307e-14 1 0
1.37869e-14 1 0
1.14538e-14 1 0
-2.99883e-15 1 0
-5.16194e-15 1 0
7.62542e-15 1 0
-2.99883e-15 1 0
-9.92726e-15 1 0
7.62542e-15 1 0
7.41964e-15 1 0
0 1 0
-2.1221e-15 1 0
0 1 0
-1.29205e-15 1 0
-2.1221e-15 1 0
-3.81302e-16 1 0
-1.29205e-15 1 0
-4.08078e-15 1 0
0 1 0
4.84947e-15 1 0
0 1 0
-9.52249e-15 1 0
4.84947e-15 1 0
2.04544e-15 1 0
-9.52249e-15 1 0
1.56545e-15 1 0
-3.81302e-16 1 0
-1.46712e-14 1 0
-4.08078e-15 1 0
7.68573e-16 1 0
-1.46712e-14 1 0
-1.02881e-14 1 0
7.68573e-16 1 0
1.02835e-14 1 0
2.04544e-15 1 0
3.73104e-15 1 0
1.56545e-15 1 0
-2.20935e-15 1 0
3.73104e-15 1 0
-9.46398e-15 1 0
-2.20935e-15 1 0
3.55847e-15 1 0
-8.24743e-15 1 0
1.9249e-15 1 0
1.37869e-14 1 0
3.63825e-15 1 0
1.9249e-15 1 0
-2.72658e-15 1 0
3.63825e-15 1 0
9.69564e-15 1 0
-9.92726e-15 1 0
-9.02797e-15 1 0
7.41964e-15 1 0
7.41234e-15 1 0
-9.02797e-15 1 0
-6.74963e-15 1 0
7.41234e-15 1 0
1.71203e-15 1 0
-2.72658e-15 1 0
-9.52064e-15 1 0
9.69564e-15 1 0
7.87265e-15 1 0
-9.52064e-15 1 0
-1.51419e-15 1 0
7.87265e-15 1 0
1.43554e-14 1 0
-6.74963e-15 1 0
-4.25775e-15 1 0
1.71203e-15 1 0
5.13032e-15 1 0
-4.25775e-15 1 0
-5.23863e-15 1 0
5.13032e-15 1 0
7.08963e-15 1 0
-1.02881e-14 1 0
-7.76619e-15 1 0
1.02835e-14 1 0
1.22719e-14 1 0
-7.76619e-15 1 0
-3.01576e-15 1 0
1.22719e-14 1 0
1.08891e-14 1 0
-9.46398e-15 1 0
-6.53784e-15 1 0
3.55847e-15 1 0
-4.05545e-15 1 0
-6.53784e-15 1 0
-1.12308e-14 1 0
-4.05545e-15 1 0
9.07603e-15 1 0
-3.01576e-15 1 0
4.56394e-15 1 0
1.08891e-14 1 0
9.06925e-16 1 0
4.56394e-15 1 0
-1.49383e-14 1 0
9.06925e-16 1 0
2.24189e-14 1 0
-1.12308e-14 1 0
-9.6048e-15 1 0
9.07603e-15 1 0
6.87875e-15 1 0
-9.6048e-15 1 0
-1.35974e-14 1 0
6.87875e-15 1 0
8.52139e-15 1 0
0 1 0
1.39201e-14 1 0
0 1 0
-1.54306e-14 1 0
1.39201e-14 1 0
1.84749e-15 1 0
-1.54306e-14 1 0
4.0948e-15 1 0
0 1 0
1.38111e-14 1 0
0 1 0
-2.0136e-15 1 0
1.38111e-14 1 0
-3.02106e-15 1 0
-2.0136e-15 1 0
-2.34498e-15 1 0
1.84749e-15 1 0
7.1711e-15 1 0
4.0948e-15 1 0
2.32973e-15 1 0
7.1711e-15 1 0
-1.0125e-15 1 0
2.32973e-15 1 0
1.42927e-14 1 0
-3.02106e-15 1 0
2.50175e-15 1 0
-2.34498e-15 1 0
6.93829e-16 1 0
2.50175e-15 1 0
-9.40769e-15 1 0
6.93829e-16 1 0
1.58096e-14 1 0
0 1 0
-7.3998e-15 1 0
0 1 0
1.02906e-14 1 0
-7.3998e-15 1 0
5.84648e-15 1 0
1.02906e-14 1 0
4.55573e-15 1 0
0 1 0
-6.49104e-15 1 0
0 1 0
5.20255e-15 1 0
-6.49104e-15 1 0
-9.24426e-15 1 0
5.20255e-15 1 0
8.08269e-15 1 0
5.84648e-15 1 0
-2.10155e-15 1 0
4.55573e-15 1 0
5.47263e-15 1 0
-2.10155e-15 1 0
-1.43988e-14 1 0
5.47263e-15 1 0
1.06039e-14 1 0
-9.24426e-15 1 0
-6.49288e-16 1 0
8.08269e-15 1 0
-1.15189e-15 1 0
-6.49288e-16 1 0
1.43268e-15 1 0
-1.15189e-15 1 0
6.66824e-16 1 0
-1.0125e-15 1 0
2.47758e-15 1 0
1.42927e-14 1 0
9.56441e-15 1 0
2.47758e-15 1 0
-1.25873e-14 1 0
9.56441e-15 1 0
1.49556e-14 1 0
-9.40769e-15 1 0
-2.9165e-15 1 0
1.58096e-14 1 0
6.11722e-15 1 0
-2.9165e-15 1 0
-5.6617e-15 1 0
6.11722e-15 1 0
1.21949e-14 1 0
-1.25873e-14 1 0
3.96681e-15 1 0
1.49556e-14 1 0
-6.35334e-15 1 0
3.96681e-15 1 0
-7.53392e-15 1 0
-6.35334e-15 1 0
5.1432e-15 1 0
-5.6617e-15 1 0
2.30152e-15 1 0
1.21949e-14 1 0
3.28623e-15 1 0
2.30152e-15 1 0
5.88542e-16 1 0
3.28623e-15 1 0
-6.5308e-17 1 0
-1.43988e-14 1 0
-4.28381e-15 1 0
1.06039e-14 1 0
2.92391e-15 1 0
-4.28381e-15 1 0
-9.82295e-15 1 0
2.92391e-15 1 0
1.59084e-15 1 0
1.43268e-15 1 0
-5.71143e-15 1 0
6.66824e-16 1 0
1.05561e-14 1 0
-5.71143e-15 1 0
4.77103e-15 1 0
1.05561e-14 1 0
1.92134e-15 1 0
-9.82295e-15 1 0
-2.45647e-15 1 0
1.59084e-15 1 0
5.13269e-15 1 0
-2.45647e-15 1 0
1.91747e-15 1 0
5.13269e-15 1 0
2.40193e-15 1 0
4.77103e-15 1 0
-3.81745e-15 1 0
1.92134e-15 1 0
8.20853e-15 1 0
-3.81745e-15 1 0
-4.76628e-15 1 0
8.20853e-15 1 0
1.12233e-14 1 0
-1.51419e-15 1 0
-2.53122e-15 1 0
1.43554e-14 1 0
4.53902e-15 1 0
-2.53122e-15 1 0
-4.52972e-15 1 0
4.53902e-15 1 0
9.54234e-15 1 0
-5.23863e-15 1 0
-9.94214e-15 1 0
7.08963e-15 1 0
1.40884e-14 1 0
-9.94214e-15 1 0
-7.01785e-16 1 0
1.40884e-14 1 0
-5.44962e-15 1 0
-4.52972e-15 1 0
4.96181e-15 1 0
9.54234e-15 1 0
-2.1901e-15 1 0
4.96181e-15 1 0
-5.62104e-16 1 0
-2.1901e-15 1 0
1.20168e-14 1 0
-7.01785e-16 1 0
-2.58801e-15 1 0
-5.44962e-15 1 0
3.1631e-15 1 0
-2.58801e-15 1 0
-2.69665e-15 1 0
3.1631e-15 1 0
-1.36859e-15 1 0
-1.49383e-14 1 0
-1.42685e-14 1 0
2.24189e-14 1 0
1.0139e-14 1 0
-1.42685e-14 1 0
1.71807e-15 1 0
1.0139e-14 1 0
4.01867e-15 1 0
-1.35974e-14 1 0
-7.97315e-16 1 0
8.52139e-15 1 0
1.37995e-14 1 0
-7.97315e-16 1 0
-1.08899e-14 1 0
1.37995e-14 1 0
1.96068e-14 1 0
1.71807e-15 1 0
-2.65886e-15 1 0
4.01867e-15 1 0
6.05959e-15 1 0
-2.65886e-15 1 0
-4.18384e-15 1 0
6.05959e-15 1 0
8.92383e-15 1 0
-1.08899e-14 1 0
-7.37286e-16 1 0
1.96068e-14 1 0
1.02105e-14 1 0
-7.37286e-16 1 0
3.78405e-15 1 0
1.02105e-14 1 0
5.39765e-15 1 0
-5.62104e-16 1 0
-3.40719e-15 1 0
1.20168e-14 1 0
5.62186e-15 1 0
-3.40719e-15 1 0
8.88726e-15 1 0
5.62186e-15 1 0
3.31372e-15 1 0
-2.69665e-15 1 0
3.40803e-15 1 0
-1.36859e-15 1 0
-5.32178e-15 1 0
3.40803e-15 1 0
2.53593e-17 1 0
-5.32178e-15 1 0
1.96694e-15 1 0
8.88726e-15 1 0
-1.12698e-14 1 0
3.31372e-15 1 0
9.75855e-15 1 0
-1.12698e-14 1 0
-3.75744e-15 1 0
9.75855e-15 1 0
5.14542e-15 1 0
2.53593e-17 1 0
-8.00286e-16 1 0
1.96694e-15 1 0
7.32901e-15 1 0
-8.00286e-16 1 0
1.50443e-14 1 0
7.32901e-15 1 0
-7.78208e-15 1 0
-4.18384e-15 1 0
4.16006e-15 1 0
8.92383e-15 1 0
-1.81363e-15 1 0
4.16006e-15 1 0
-1.67751e-15 1 0
-1.81363e-15 1 0
2.85142e-15 1 0
3.78405e-15 1 0
-6.25592e-16 1 0
5.39765e-15 1 0
6.30916e-15 1 0
-6.25592e-16 1 0
-4.41428e-15 1 0
6.30916e-15 1 0
8.36722e-15 1 0
-1.67751e-15 1 0
8.25268e-15 1 0
2.85142e-15 1 0
-1.415e-14 1 0
8.25268e-15 1 0
1.01988e-14 1 0
-1.415e-14 1 0
-2.59684e-15 1 0
-4.41428e-15 1 0
8.0531e-15 1 0
8.36722e-15 1 0
4.25966e-15 1 0
8.0531e-15 1 0
4.71412e-15 1 0
4.25966e-15 1 0
-9.31396e-15 1 0
-7.53392e-15 1 0
-1.40225e-14 1 0
5.1432e-15 1 0
6.73591e-15 1 0
-1.40225e-14 1 0
-8.85044e-15 1 0
6.73591e-15 1 0
1.72678e-15 1 0
5.88542e-16 1 0
-5.65034e-15 1 0
-6.5308e-17 1 0
4.60536e-15 1 0
-5.65034e-15 1 0
-2.76994e-15 1 0
4.60536e-15 1 0
2.87417e-15 1 0
-8.85044e-15 1 0
-5.67356e-15 1 0
1.72678e-15 1 0
2.74241e-15 1 0
-5.67356e-15 1 0
-1.03409e-14 1 0
2.74241e-15 1 0
7.76581e-16 1 0
-2.76994e-15 1 0
-4.94868e-15 1 0
2.87417e-15 1 0
7.75558e-15 1 0
-4.94868e-15 1 0
7.16363e-15 1 0
7.75558e-15 1 0
-4.76015e-15 1 0
1.91747e-15 1 0
6.35742e-16 1 0
2.40193e-15 1 0
5.36918e-15 1 0
6.35742e-16 1 0
7.0428e-15 1 0
5.36918e-15 1 0
5.08546e-16 1 0
-4.76628e-15 1 0
-2.47493e-15 1 0
1.12233e-14 1 0
6.36531e-15 1 0
-2.47493e-15 1 0
-3.92738e-15 1 0
6.36531e-15 1 0
8.71241e-15 1 0
7.0428e-15 1 0
-7.44431e-15 1 0
5.08546e-16 1 0
1.44541e-14 1 0
-7.44431e-15 1 0
8.09299e-15 1 0
1.44541e-14 1 0
-4.45584e-15 1 0
-3.92738e-15 1 0
-6.83677e-15 1 0
8.71241e-15 1 0
-8.37812e-16 1 0
-6.83677e-15 1 0
4.18033e-15 1 0
-8.37812e-16 1 0
3.0387e-15 1 0
-1.03409e-14 1 0
-7.43616e-15 1 0
7.76581e-16 1 0
2.03924e-15 1 0
-7.43616e-15 1 0
-4.0697e-15 1 0
2.03924e-15 1 0
1.08723e-14 1 0
7.16363e-15 1 0
2.64798e-15 1 0
-4.76015e-15 1 0
-6.07893e-18 1 0
2.64798e-15 1 0
-1.01611e-14 1 0
-6.07893e-18 1 0
1.90348e-15 1 0
-4.0697e-15 1 0
-1.51875e-15 1 0
1.08723e-14 1 0
5.5478e-15 1 0
-1.51875e-15 1 0
5.08699e-15 1 0
5.5478e-15 1 0
1.23117e-15 1 0
-1.01611e-14 1 0
-9.28236e-15 1 0
1.90348e-15 1 0
2.43713e-15 1 0
-9.28236e-15 1 0
3.83852e-15 1 0
2.43713e-15 1 0
-8.02187e-15 1 0
8.09299e-15 1 0
6.8359e-15 1 0
-4.45584e-15 1 0
4.29972e-15 1 0
6.8359e-15 1 0
1.14826e-15 1 0
4.29972e-15 1 0
5.6384e-15 1 0
4.18033e-15 1 0
-1.91836e-15 1 0
3.0387e-15 1 0
5.46259e-15 1 0
-1.91836e-15 1 0
-4.35683e-15 1 0
5.46259e-15 1 0
1.4602e-14 1 0
1.14826e-15 1 0
-1.89165e-15 1 0
5.6384e-15 1 0
8.18943e-15 1 0
-1.89165e-15 1 0
-4.45155e-16 1 0
8.18943e-15 1 0
1.44313e-14 1 0
-4.35683e-15 1 0
7.67749e-15 1 0
1.4602e-14 1 0
3.46989e-15 1 0
7.67749e-15 1 0
-6.77172e-15 1 0
3.46989e-15 1 0
9.28207e-15 1 0
-5.51585e-16 1 0
1.23834e-15 1 0
1.64141e-14 1 0
1.01831e-14 1 0
1.23834e-15 1 0
6.40246e-15 1 0
1.01831e-14 1 0
4.25724e-15 1 0
-1.88615e-14 1 0
-1.46548e-14 1 0
2.74307e-14 1 0
1.80772e-14 1 0
-1.46548e-14 1 0
-6.17e-16 1 0
1.80772e-14 1 0
7.33284e-15 1 0
6.40246e-15 1 0
-9.40342e-15 1 0
4.25724e-15 1 0
2.49526e-14 1 0
-9.40342e-15 1 0
1.13653e-15 1 0
2.49526e-14 1 0
1.29934e-14 1 0
-6.17e-16 1 0
2.96905e-15 1 0
7.33284e-15 1 0
-6.09434e-15 1 0
2.96905e-15 1 0
-1.09775e-14 1 0
-6.09434e-15 1 0
1.98368e-14 1 0
-1.87081e-14 1 0
-7.34466e-16 1 0
2.35383e-14 1 0
2.16084e-14 1 0
-7.34466e-16 1 0
-1.31788e-15 1 0
2.16084e-14 1 0
1.25188e-14 1 0
-2.36527e-14 1 0
-1.04207e-14 1 0
2.82743e-14 1 0
2.04529e-15 1 0
-1.04207e-14 1 0
-8.32265e-15 1 0
2.04529e-15 1 0
8.00939e-16 1 0
-1.31788e-15 1 0
4.92986e-16 1 0
1.25188e-14 1 0
1.54094e-14 1 0
4.92986e-16 1 0
1.74451e-15 1 0
1.54094e-14 1 0
-1.91139e-15 1 0
-8.32265e-15 1 0
-2.08854e-14 1 0
8.00939e-16 1 0
2.35989e-14 1 0
-2.08854e-14 1 0
-4.93446e-15 1 0
2.35989e-14 1 0
7.84271e-15 1 0
1.13653e-15 1 0
2.58621e-15 1 0
1.29934e-14 1 0
2.43772e-15 1 0
2.58621e-15 1 0
3.14774e-15 1 0
2.43772e-15 1 0
7.31776e-15 1 0
-1.09775e-14 1 0
-4.27358e-15 1 0
1.98368e-14 1 0
1.3953e-14 1 0
-4.27358e-15 1 0
-1.53912e-14 1 0
1.3953e-14 1 0
2.44911e-14 1 0
3.14774e-15 1 0
-1.50722e-16 1 0
7.31776e-15 1 0
-2.63475e-15 1 0
-1.50722e-16 1 0
-2.53589e-15 1 0
-2.63475e-15 1 0
1.00126e-14 1 0
-1.53912e-14 1 0
1.06319e-14 1 0
2.44911e-14 1 0
1.2723e-14 1 0
1.06319e-14 1 0
-4.7666e-15 1 0
1.2723e-14 1 0
1.43247e-14 1 0
1.74451e-15 1 0
-4.4923e-15 1 0
-1.91139e-15 1 0
1.40489e-14 1 0
-4.4923e-15 1 0
-1.03975e-14 1 0
1.40489e-14 1 0
1.38177e-14 1 0
-4.93446e-15 1 0
1.10587e-15 1 0
7.84271e-15 1 0
7.43123e-15 1 0
1.10587e-15 1 0
9.19116e-15 1 0
7.43123e-15 1 0
1.60619e-15 1 0
-1.03975e-14 1 0
-5.4676e-15 1 0
1.38177e-14 1 0
1.11242e-14 1 0
-5.4676e-15 1 0
3.6078e-16 1 0
1.11242e-14 1 0
1.4335e-14 1 0
9.19116e-15 1 0
-1.53852e-15 1 0
1.60619e-15 1 0
-3.13176e-15 1 0
-1.53852e-15 1 0
-8.92403e-15 1 0
-3.13176e-15 1 0
6.53341e-15 1 0
-2.17691e-14 1 0
8.63661e-15 1 0
1.20192e-14 1 0
-1.48839e-14 1 0
8.63661e-15 1 0
8.65864e-15 1 0
-1.48839e-14 1 0
-8.20162e-15 1 0
1.19273e-14 1 0
7.83125e-15 1 0
-7.04324e-15 1 0
5.17313e-15 1 0
7.83125e-15 1 0
1.88055e-14 1 0
5.17313e-15 1 0
-1.40791e-14 1 0
8.65864e-15 1 0
-1.21761e-14 1 0
-8.20162e-15 1 0
1.55852e-14 1 0
-1.21761e-14 1 0
1.19447e-14 1 0
1.55852e-14 1 0
-1.36737e-14 1 0
1.88055e-14 1 0
-2.19724e-15 1 0
-1.40791e-14 1 0
1.205e-16 1 0
-2.19724e-15 1 0
8.45528e-15 1 0
1.205e-16 1 0
1.21798e-15 1 0
-5.8055e-15 1 0
-9.67741e-15 1 0
1.16727e-14 1 0
5.53701e-15 1 0
-9.67741e-15 1 0
8.11562e-15 1 0
5.53701e-15 1 0
-4.06617e-15 1 0
-1.9393e-14 1 0
-9.29971e-15 1 0
1.47539e-14 1 0
1.30494e-14 1 0
-9.29971e-15 1 0
1.20171e-15 1 0
1.30494e-14 1 0
1.29702e-15 1 0
8.11562e-15 1 0
-5.27804e-15 1 0
-4.06617e-15 1 0
1.76279e-14 1 0
-5.27804e-15 1 0
1.28684e-14 1 0
1.76279e-14 1 0
-4.94044e-15 1 0
1.20171e-15 1 0
-1.82304e-14 1 0
1.29702e-15 1 0
1.89297e-14 1 0
-1.82304e-14 1 0
4.00808e-15 1 0
1.89297e-14 1 0
-9.29377e-17 1 0
1.19447e-14 1 0
-1.12013e-14 1 0
-1.36737e-14 1 0
8.00116e-15 1 0
-1.12013e-14 1 0
-8.53e-15 1 0
8.00116e-15 1 0
8.51376e-15 1 0
8.45528e-15 1 0
9.04338e-15 1 0
1.21798e-15 1 0
-1.04443e-14 1 0
9.04338e-15 1 0
-2.33592e-15 1 0
-1.04443e-14 1 0
2.2814e-15 1 0
-8.53e-15 1 0
8.06187e-15 1 0
8.51376e-15 1 0
6.60291e-15 1 0
8.06187e-15 1 0
-5.61367e-15 1 0
6.60291e-15 1 0
6.99288e-15 1 0
-2.33592e-15 1 0
-6.02046e-15 1 0
2.2814e-15 1 0