# vtk DataFile Version 3.0
#This file was generated by the deal.II library on 2018/10/14 at 18:03:45
ASCII
DATASET UNSTRUCTURED_GRID

POINTS 20480 double
0 0 0
0.19635 0 0
0 0.311604 0
0.19635 0.311604 0
0.19635 0 0
0.392699 0 0
0.19635 0.311604 0
0.392699 0.311604 0
0 0.311604 0
0.19635 0.311604 0
0 0.62415 0
0.19635 0.62415 0
0.19635 0.311604 0
0.392699 0.311604 0
0.19635 0.62415 0
0.392699 0.62415 0
0.392699 0 0
0.589049 0 0
0.392699 0.311604 0
0.589049 0.311604 0
0.589049 0 0
0.785398 0 0
0.589049 0.311604 0
0.785398 0.311604 0
0.392699 0.311604 0
0.589049 0.311604 0
0.392699 0.62415 0
0.589049 0.62415 0
0.589049 0.311604 0
0.785398 0.311604 0
0.589049 0.62415 0
0.785398 0.62415 0
0 0.62415 0
0.19635 0.62415 0
0 0.936656 0
0.19635 0.936656 0
0.19635 0.62415 0
0.392699 0.62415 0
0.19635 0.936656 0
0.392699 0.936656 0
0 0.936656 0
0.19635 0.936656 0
0 1.24919 0
0.19635 1.24919 0
0.19635 0.936656 0
0.392699 0.936656 0
0.19635 1.24919 0
0.392699 1.24919 0
0.392699 0.62415 0
0.589049 0.62415 0
0.392699 0.936656 0
0.589049 0.936656 0
0.589049 0.62415 0
0.785398 0.62415 0
0.589049 0.936656 0
0.785398 0.936656 0
0.392699 0.936656 0
0.589049 0.936656 0
0.392699 1.24919 0
0.589049 1.24919 0
0.589049 0.936656 0
0.785398 0.936656 0
0.589049 1.24919 0
0.785398 1.24919 0
0.785398 0 0
0.981748 0 0
0.785398 0.311604 0
0.981748 0.311604 0
0.981748 0 0
1.1781 0 0
0.981748 0.311604 0
1.1781 0.311604 0
0.785398 0.311604 0
0.981748 0.311604 0
0.785398 0.62415 0
0.981748 0.62415 0
0.981748 0.311604 0
1.1781 0.311604 0
0.981748 0.62415 0
1.1781 0.62415 0
1.1781 0 0
1.37445 0 0
1.1781 0.311604 0
1.37445 0.311604 0
1.37445 0 0
1.5708 0 0
1.37445 0.311604 0
1.5708 0.311604 0
1.1781 0.311604 0
1.37445 0.311604 0
1.1781 0.62415 0
1.37445 0.62415 0
1.37445 0.311604 0
1.5708 0.311604 0
1.37445 0.62415 0
1.5708 0.62415 0
0.785398 0.62415 0
0.981748 0.62415 0
0.785398 0.936656 0
0.981748 0.936656 0
0.981748 0.62415 0
1.1781 0.62415 0
0.981748 0.936656 0
1.1781 0.936656 0
0.785398 0.936656 0
0.981748 0.936656 0
0.785398 1.24919 0
0.981748 1.24919 0
0.981748 0.936656 0
1.1781 0.936656 0
0.981748 1.24919 0
1.1781 1.24919 0
1.1781 0.62415 0
1.37445 0.62415 0
1.1781 0.936656 0
1.37445 0.936656 0
1.37445 0.62415 0
1.5708 0.62415 0
1.37445 0.936656 0
1.5708 0.936656 0
1.1781 0.936656 0
1.37445 0.936656 0
1.1781 1.24919 0
1.37445 1.24919 0
1.37445 0.936656 0
1.5708 0.936656 0
1.37445 1.24919 0
1.5708 1.24919 0
0 1.24919 0
0.19635 1.24919 0
0 1.56172 0
0.19635 1.56172 0
0.19635 1.24919 0
0.392699 1.24919 0
0.19635 1.56172 0
0.392699 1.56172 0
0 1.56172 0
0.19635 1.56172 0
0 1.87426 0
0.19635 1.87426 0
0.19635 1.56172 0
0.392699 1.56172 0
0.19635 1.87426 0
0.392699 1.87426 0
0.392699 1.24919 0
0.589049 1.24919 0
0.392699 1.56172 0
0.589049 1.56172 0
0.589049 1.24919 0
0.785398 1.24919 0
0.589049 1.56172 0
0.785398 1.56172 0
0.392699 1.56172 0
0.589049 1.56172 0
0.392699 1.87426 0
0.589049 1.87426 0
0.589049 1.56172 0
0.785398 1.56172 0
0.589049 1.87426 0
0.785398 1.87426 0
0 1.87426 0
0.19635 1.87426 0
0 2.18679 0
0.19635 2.18679 0
0.19635 1.87426 0
0.392699 1.87426 0
0.19635 2.18679 0
0.392699 2.18679 0
0 2.18679 0
0.19635 2.18679 0
0 2.49932 0
0.19635 2.49932 0
0.19635 2.18679 0
0.392699 2.18679 0
0.19635 2.49932 0
0.392699 2.49932 0
0.392699 1.87426 0
0.589049 1.87426 0
0.392699 2.18679 0
0.589049 2.18679 0
0.589049 1.87426 0
0.785398 1.87426 0
0.589049 2.18679 0
0.785398 2.18679 0
0.392699 2.18679 0
0.589049 2.18679 0
0.392699 2.49932 0
0.589049 2.49932 0
0.589049 2.18679 0
0.785398 2.18679 0
0.589049 2.49932 0
0.785398 2.49932 0
0.785398 1.24919 0
0.981748 1.24919 0
0.785398 1.56172 0
0.981748 1.56172 0
0.981748 1.24919 0
1.1781 1.24919 0
0.981748 1.56172 0
1.1781 1.56172 0
0.785398 1.56172 0
0.981748 1.56172 0
0.785398 1.87426 0
0.981748 1.87426 0
0.981748 1.56172 0
1.1781 1.56172 0
0.981748 1.87426 0
1.1781 1.87426 0
1.1781 1.24919 0
1.37445 1.24919 0
1.1781 1.56172 0
1.37445 1.56172 0
1.37445 1.24919 0
1.5708 1.24919 0
1.37445 1.56172 0
1.5708 1.56172 0
1.1781 1.56172 0
1.37445 1.56172 0
1.1781 1.87426 0
1.37445 1.87426 0
1.37445 1.56172 0
1.5708 1.56172 0
1.37445 1.87426 0
1.5708 1.87426 0
0.785398 1.87426 0
0.981748 1.87426 0
0.785398 2.18679 0
0.981748 2.18679 0
0.981748 1.87426 0
1.1781 1.87426 0
0.981748 2.18679 0
1.1781 2.18679 0
0.785398 2.18679 0
0.981748 2.18679 0
0.785398 2.49932 0
0.981748 2.49932 0
0.981748 2.18679 0
1.1781 2.18679 0
0.981748 2.49932 0
1.1781 2.49932 0
1.1781 1.87426 0
1.37445 1.87426 0
1.1781 2.18679 0
1.37445 2.18679 0
1.37445 1.87426 0
1.5708 1.87426 0
1.37445 2.18679 0
1.5708 2.18679 0
1.1781 2.18679 0
1.37445 2.18679 0
1.1781 2.49932 0
1.37445 2.49932 0
1.37445 2.18679 0
1.5708 2.18679 0
1.37445 2.49932 0
1.5708 2.49932 0
1.5708 0 0
1.76715 0 0
1.5708 0.311604 0
1.76715 0.311604 0
1.76715 0 0
1.9635 0 0
1.76715 0.311604 0
1.9635 0.311604 0
1.5708 0.311604 0
1.76715 0.311604 0
1.5708 0.62415 0
1.76715 0.62415 0
1.76715 0.311604 0
1.9635 0.311604 0
1.76715 0.62415 0
1.9635 0.62415 0
1.9635 0 0
2.15984 0 0
1.9635 0.311604 0
2.15984 0.311604 0
2.15984 0 0
2.35619 0 0
2.15984 0.311604 0
2.35619 0.311604 0
1.9635 0.311604 0
2.15984 0.311604 0
1.9635 0.62415 0
2.15984 0.62415 0
2.15984 0.311604 0
2.35619 0.311604 0
2.15984 0.62415 0
2.35619 0.62415 0
1.5708 0.62415 0
1.76715 0.62415 0
1.5708 0.936656 0
1.76715 0.936656 0
1.76715 0.62415 0
1.9635 0.62415 0
1.76715 0.936656 0
1.9635 0.936656 0
1.5708 0.936656 0
1.76715 0.936656 0
1.5708 1.24919 0
1.76715 1.24919 0
1.76715 0.936656 0
1.9635 0.936656 0
1.76715 1.24919 0
1.9635 1.24919 0
1.9635 0.62415 0
2.15984 0.62415 0
1.9635 0.936656 0
2.15984 0.936656 0
2.15984 0.62415 0
2.35619 0.62415 0
2.15984 0.936656 0
2.35619 0.936656 0
1.9635 0.936656 0
2.15984 0.936656 0
1.9635 1.24919 0
2.15984 1.24919 0
2.15984 0.936656 0
2.35619 0.936656 0
2.15984 1.24919 0
2.35619 1.24919 0
2.35619 0 0
2.55254 0 0
2.35619 0.311604 0
2.55254 0.311604 0
2.55254 0 0
2.74889 0 0
2.55254 0.311604 0
2.74889 0.311604 0
2.35619 0.311604 0
2.55254 0.311604 0
2.35619 0.62415 0
2.55254 0.62415 0
2.55254 0.311604 0
2.74889 0.311604 0
2.55254 0.62415 0
2.74889 0.62415 0
2.74889 0 0
2.94524 0 0
2.74889 0.311604 0
2.94524 0.311604 0
2.94524 0 0
3.14159 0 0
2.94524 0.311604 0
3.14159 0.311604 0
2.74889 0.311604 0
2.94524 0.311604 0
2.74889 0.62415 0
2.94524 0.62415 0
2.94524 0.311604 0
3.14159 0.311604 0
2.94524 0.62415 0
3.14159 0.62415 0
2.35619 0.62415 0
2.55254 0.62415 0
2.35619 0.936656 0
2.55254 0.936656 0
2.55254 0.62415 0
2.74889 0.62415 0
2.55254 0.936656 0
2.74889 0.936656 0
2.35619 0.936656 0
2.55254 0.936656 0
2.35619 1.24919 0
2.55254 1.24919 0
2.55254 0.936656 0
2.74889 0.936656 0
2.55254 1.24919 0
2.74889 1.24919 0
2.74889 0.62415 0
2.94524 0.62415 0
2.74889 0.936656 0
2.94524 0.936656 0
2.94524 0.62415 0
3.14159 0.62415 0
2.94524 0.936656 0
3.14159 0.936656 0
2.74889 0.936656 0
2.94524 0.936656 0
2.74889 1.24919 0
2.94524 1.24919 0
2.94524 0.936656 0
3.14159 0.936656 0
2.94524 1.24919 0
3.14159 1.24919 0
1.5708 1.24919 0
1.76715 1.24919 0
1.5708 1.56172 0
1.76715 1.56172 0
1.76715 1.24919 0
1.9635 1.24919 0
1.76715 1.56172 0
1.9635 1.56172 0
1.5708 1.56172 0
1.76715 1.56172 0
1.5708 1.87426 0
1.76715 1.87426 0
1.76715 1.56172 0
1.9635 1.56172 0
1.76715 1.87426 0
1.9635 1.87426 0
1.9635 1.24919 0
2.15984 1.24919 0
1.9635 1.56172 0
2.15984 1.56172 0
2.15984 1.24919 0
2.35619 1.24919 0
2.15984 1.56172 0
2.35619 1.56172 0
1.9635 1.56172 0
2.15984 1.56172 0
1.9635 1.87426 0
2.15984 1.87426 0
2.15984 1.56172 0
2.35619 1.56172 0
2.15984 1.87426 0
2.35619 1.87426 0
1.5708 1.87426 0
1.76715 1.87426 0
1.5708 2.18679 0
1.76715 2.18679 0
1.76715 1.87426 0
1.9635 1.87426 0
1.76715 2.18679 0
1.9635 2.18679 0
1.5708 2.18679 0
1.76715 2.18679 0
1.5708 2.49932 0
1.76715 2.49932 0
1.76715 2.18679 0
1.9635 2.18679 0
1.76715 2.49932 0
1.9635 2.49932 0
1.9635 1.87426 0
2.15984 1.87426 0
1.9635 2.18679 0
2.15984 2.18679 0
2.15984 1.87426 0
2.35619 1.87426 0
2.15984 2.18679 0
2.35619 2.18679 0
1.9635 2.18679 0
2.15984 2.18679 0
1.9635 2.49932 0
2.15984 2.49932 0
2.15984 2.18679 0
2.35619 2.18679 0
2.15984 2.49932 0
2.35619 2.49932 0
2.35619 1.24919 0
2.55254 1.24919 0
2.35619 1.56172 0
2.55254 1.56172 0
2.55254 1.24919 0
2.74889 1.24919 0
2.55254 1.56172 0
2.74889 1.56172 0
2.35619 1.56172 0
2.55254 1.56172 0
2.35619 1.87426 0
2.55254 1.87426 0
2.55254 1.56172 0
2.74889 1.56172 0
2.55254 1.87426 0
2.74889 1.87426 0
2.74889 1.24919 0
2.94524 1.24919 0
2.74889 1.56172 0
2.94524 1.56172 0
2.94524 1.24919 0
3.14159 1.24919 0
2.94524 1.56172 0
3.14159 1.56172 0
2.74889 1.56172 0
2.94524 1.56172 0
2.74889 1.87426 0
2.94524 1.87426 0
2.94524 1.56172 0
3.14159 1.56172 0
2.94524 1.87426 0
3.14159 1.87426 0
2.35619 1.87426 0
2.55254 1.87426 0
2.35619 2.18679 0
2.55254 2.18679 0
2.55254 1.87426 0
2.74889 1.87426 0
2.55254 2.18679 0
2.74889 2.18679 0
2.35619 2.18679 0
2.55254 2.18679 0
2.35619 2.49932 0
2.55254 2.49932 0
2.55254 2.18679 0
2.74889 2.18679 0
2.55254 2.49932 0
2.74889 2.49932 0
2.74889 1.87426 0
2.94524 1.87426 0
2.74889 2.18679 0
2.94524 2.18679 0
2.94524 1.87426 0
3.14159 1.87426 0
2.94524 2.18679 0
3.14159 2.18679 0
2.74889 2.18679 0
2.94524 2.18679 0
2.74889 2.49932 0
2.94524 2.49932 0
2.94524 2.18679 0
3.14159 2.18679 0
2.94524 2.49932 0
3.14159 2.49932 0
0 2.49932 0
0.19635 2.49932 0
0 2.81185 0
0.19635 2.81185 0
0.19635 2.49932 0
0.392699 2.49932 0
0.19635 2.81185 0
0.392699 2.81185 0
0 2.81185 0
0.19635 2.81185 0
0 3.12438 0
0.19635 3.12438 0
0.19635 2.81185 0
0.392699 2.81185 0
0.19635 3.12438 0
0.392699 3.12438 0
0.392699 2.49932 0
0.589049 2.49932 0
0.392699 2.81185 0
0.589049 2.81185 0
0.589049 2.49932 0
0.785398 2.49932 0
0.589049 2.81185 0
0.785398 2.81185 0
0.392699 2.81185 0
0.589049 2.81185 0
0.392699 3.12438 0
0.589049 3.12438 0
0.589049 2.81185 0
0.785398 2.81185 0
0.589049 3.12438 0
0.785398 3.12438 0
0 3.12438 0
0.19635 3.12438 0
0 3.43691 0
0.19635 3.43691 0
0.19635 3.12438 0
0.392699 3.12438 0
0.19635 3.43691 0
0.392699 3.43691 0
0 3.43691 0
0.19635 3.43691 0
0 3.74944 0
[...]
POINT_DATA 20480
VECTORS uf double
0 1 0
-2.42869e-14 1 0
0 1.00001 0
2.62675e-14 1.00001 0
-2.42869e-14 1 0
-6.95107e-15 1 0
2.62675e-14 1.00001 0
-1.71968e-15 1.00001 0
0 1.00001 0
3.53924e-16 1.00001 0
0 1 0
-2.26244e-15 1 0
3.53924e-16 1.00001 0
1.05946e-14 1.00001 0
-2.26244e-15 1 0
-1.70067e-15 1 0
-6.95107e-15 1 0
-4.51399e-14 1 0
-1.71968e-15 1.00001 0
5.62754e-14 1.00001 0
-4.51399e-14 1 0
-3.37482e-14 1 0
5.62754e-14 1.00001 0
2.23745e-14 1.00001 0
1.05946e-14 1.00001 0
-3.61776e-14 1.00001 0
-1.70067e-15 1 0
2.87178e-14 1 0
-3.61776e-14 1.00001 0
-5.55214e-15 1.00001 0
2.87178e-14 1 0
1.07118e-14 1 0
0 1 0
-1.82506e-14 1 0
0 1 0
3.16507e-14 1 0
-1.82506e-14 1 0
-3.4879e-14 1 0
3.16507e-14 1 0
6.20382e-14 1 0
0 1 0
-3.93579e-14 1 0
0 1 0
3.45403e-14 1 0
-3.93579e-14 1 0
-1.12262e-13 1 0
3.45403e-14 1 0
1.07196e-13 1 0
-3.4879e-14 1 0
-3.78724e-14 1 0
6.20382e-14 1 0
4.51483e-14 1 0
-3.78724e-14 1 0
-1.64961e-14 1 0
4.51483e-14 1 0
2.69815e-14 1 0
-1.12262e-13 1 0
-5.45629e-14 1 0
1.07196e-13 1 0
5.25749e-14 1 0
-5.45629e-14 1 0
-3.11718e-14 1 0
5.25749e-14 1 0
3.87228e-14 1 0
-3.37482e-14 1 0
-5.54671e-14 1 0
2.23745e-14 1.00001 0
5.82927e-14 1.00001 0
-5.54671e-14 1 0
-8.06387e-14 1 0
5.82927e-14 1.00001 0
8.94406e-14 1.00001 0
-5.55214e-15 1.00001 0
-6.3196e-14 1.00001 0
1.07118e-14 1 0
8.08437e-14 1 0
-6.3196e-14 1.00001 0
-7.23073e-14 1.00001 0
8.08437e-14 1 0
7.95223e-14 1 0
-8.06387e-14 1 0
-7.28686e-14 1 0
8.94406e-14 1.00001 0
9.33899e-14 1.00001 0
-7.28686e-14 1 0
-4.64003e-14 1 0
9.33899e-14 1.00001 0
4.10489e-14 1.00001 0
-7.23073e-14 1.00001 0
-7.35143e-14 1.00001 0
7.95223e-14 1 0
6.22158e-14 1 0
-7.35143e-14 1.00001 0
-2.18829e-14 1.00001 0
6.22158e-14 1 0
3.07914e-14 1 0
-1.64961e-14 1 0
-8.71583e-14 1 0
2.69815e-14 1 0
8.86175e-14 1 0
-8.71583e-14 1 0
-5.86556e-14 1 0
8.86175e-14 1 0
5.98728e-14 1 0
-3.11718e-14 1 0
-6.17812e-14 1 0
3.87228e-14 1 0
5.58015e-14 1 0
-6.17812e-14 1 0
-7.20931e-14 1 0
5.58015e-14 1 0
7.2053e-14 1 0
-5.86556e-14 1 0
-3.37969e-14 1 0
5.98728e-14 1 0
3.00911e-14 1 0
-3.37969e-14 1 0
-4.84058e-14 1 0
3.00911e-14 1 0
5.2311e-14 1 0
-7.20931e-14 1 0
-2.28968e-14 1 0
7.2053e-14 1 0
1.17638e-14 1 0
-2.28968e-14 1 0
-1.50782e-14 1 0
1.17638e-14 1 0
7.91472e-15 1 0
0 1 0
-4.50643e-14 1 0
0 1 0
4.67192e-14 1 0
-4.50643e-14 1 0
-4.31189e-14 1 0
4.67192e-14 1 0
3.96162e-14 1 0
0 1 0
-1.12046e-14 1 0
0 1 0
5.78778e-15 1 0
-1.12046e-14 1 0
-4.90688e-14 1 0
5.78778e-15 1 0
4.08574e-14 1 0
-4.31189e-14 1 0
-1.05121e-14 1 0
3.96162e-14 1 0
2.32785e-14 1 0
-1.05121e-14 1 0
-7.06766e-14 1 0
2.32785e-14 1 0
1.02532e-13 1 0
-4.90688e-14 1 0
-7.40761e-14 1 0
4.08574e-14 1 0
7.82113e-14 1 0
-7.40761e-14 1 0
-1.10947e-13 1 0
7.82113e-14 1 0
9.23116e-14 1 0
0 1 0
-3.66546e-14 1 0
0 1 0
5.08662e-14 1 0
-3.66546e-14 1 0
-3.62119e-14 1 0
5.08662e-14 1 0
3.83452e-14 1 0
0 1 0
-3.6814e-14 1 0
0 1 0
2.67096e-14 1 0
-3.6814e-14 1 0
-5.61858e-14 1 0
2.67096e-14 1 0
5.94411e-14 1 0
-3.62119e-14 1 0
-6.63731e-14 1 0
3.83452e-14 1 0
5.72195e-14 1 0
-6.63731e-14 1 0
-5.9293e-14 1 0
5.72195e-14 1 0
6.17203e-14 1 0
-5.61858e-14 1 0
-4.39535e-14 1 0
5.94411e-14 1 0
3.32163e-14 1 0
-4.39535e-14 1 0
-8.15262e-14 1 0
3.32163e-14 1 0
7.74075e-14 1 0
-7.06766e-14 1 0
-4.81696e-14 1 0
1.02532e-13 1 0
5.42397e-14 1 0
-4.81696e-14 1 0
-2.74103e-14 1 0
5.42397e-14 1 0
3.23848e-14 1 0
-1.10947e-13 1 0
-5.33832e-14 1 0
9.23116e-14 1 0
5.20899e-14 1 0
-5.33832e-14 1 0
-7.69179e-14 1 0
5.20899e-14 1 0
7.53468e-14 1 0
-2.74103e-14 1 0
9.57273e-15 1 0
3.23848e-14 1 0
5.5657e-15 1 0
9.57273e-15 1 0
-9.5575e-15 1 0
5.5657e-15 1 0
2.95878e-14 1 0
-7.69179e-14 1 0
-5.20864e-15 1 0
7.53468e-14 1 0
-1.42551e-15 1 0
-5.20864e-15 1 0
-4.55559e-14 1 0
-1.42551e-15 1 0
2.9508e-14 1 0
-5.9293e-14 1 0
-3.10566e-14 1 0
6.17203e-14 1 0
3.4863e-14 1 0
-3.10566e-14 1 0
-4.33939e-14 1 0
3.4863e-14 1 0
4.74993e-14 1 0
-8.15262e-14 1 0
-9.58497e-14 1 0
7.74075e-14 1 0
1.03376e-13 1 0
-9.58497e-14 1 0
-7.20655e-14 1 0
1.03376e-13 1 0
7.91158e-14 1 0
-4.33939e-14 1 0
-1.4208e-14 1 0
4.74993e-14 1 0
3.92097e-14 1 0
-1.4208e-14 1 0
-1.10863e-14 1 0
3.92097e-14 1 0
2.43933e-14 1 0
-7.20655e-14 1 0
-6.01393e-14 1 0
7.91158e-14 1 0
5.70114e-14 1 0
-6.01393e-14 1 0
-4.10113e-14 1 0
5.70114e-14 1 0
4.77843e-14 1 0
-4.64003e-14 1 0
-7.14681e-14 1 0
4.10489e-14 1.00001 0
8.94834e-14 1.00001 0
-7.14681e-14 1 0
-5.73239e-14 1 0
8.94834e-14 1.00001 0
7.26772e-14 1.00001 0
-2.18829e-14 1.00001 0
-7.42343e-14 1.00001 0
3.07914e-14 1 0
7.16735e-14 1 0
-7.42343e-14 1.00001 0
-4.6469e-14 1.00001 0
7.16735e-14 1 0
3.53078e-14 1 0
-5.73239e-14 1 0
-4.23227e-14 1 0
7.26772e-14 1.00001 0
6.107e-14 1.00001 0
-4.23227e-14 1 0
-3.94021e-14 1 0
6.107e-14 1.00001 0
4.97366e-14 1.00001 0
-4.6469e-14 1.00001 0
-5.83444e-14 1.00001 0
3.53078e-14 1 0
3.36835e-14 1 0
-5.83444e-14 1.00001 0
-2.24992e-14 1.00001 0
3.36835e-14 1 0
-2.61e-15 1 0
-4.84058e-14 1 0
-7.18109e-14 1 0
5.2311e-14 1 0
7.265e-14 1 0
-7.18109e-14 1 0
-2.52846e-14 1 0
7.265e-14 1 0
2.45512e-14 1 0
-1.50782e-14 1 0
-7.54719e-14 1 0
7.91472e-15 1 0
8.1003e-14 1 0
-7.54719e-14 1 0
-3.37598e-14 1 0
8.1003e-14 1 0
3.70337e-14 1 0
-2.52846e-14 1 0
-5.65593e-15 1 0
2.45512e-14 1 0
2.53512e-14 1 0
-5.65593e-15 1 0
3.80686e-14 1 0
2.53512e-14 1 0
-2.50753e-14 1 0
-3.37598e-14 1 0
-6.60259e-14 1 0
3.70337e-14 1 0
6.89289e-14 1 0
-6.60259e-14 1 0
6.42116e-15 1 0
6.89289e-14 1 0
-7.24023e-15 1 0
-3.94021e-14 1 0
-1.57475e-14 1 0
4.97366e-14 1.00001 0
4.71387e-15 1.00001 0
-1.57475e-14 1 0
-7.37592e-14 1 0
4.71387e-15 1.00001 0
9.67805e-14 1.00001 0
-2.24992e-14 1.00001 0
2.6269e-14 1.00001 0
-2.61e-15 1 0
-2.05193e-14 1 0
2.6269e-14 1.00001 0
-5.50607e-14 1.00001 0
-2.05193e-14 1 0
4.7319e-14 1 0
-7.37592e-14 1 0
-1.1075e-14 1 0
9.67805e-14 1.00001 0
2.4576e-14 1.00001 0
-1.1075e-14 1 0
-1.05097e-14 1 0
2.4576e-14 1.00001 0
2.74251e-14 1.00001 0
-5.50607e-14 1.00001 0
-5.6829e-14 1.00001 0
4.7319e-14 1 0
6.69057e-14 1 0
-5.6829e-14 1.00001 0
-9.12544e-14 1.00001 0
6.69057e-14 1 0
1.05481e-13 1 0
3.80686e-14 1 0
-1.48314e-14 1 0
-2.50753e-14 1 0
3.47969e-14 1 0
-1.48314e-14 1 0
-4.384e-14 1 0
3.47969e-14 1 0
6.34186e-14 1 0
6.42116e-15 1 0
1.06455e-14 1 0
-7.24023e-15 1 0
-2.84417e-14 1 0
1.06455e-14 1 0
-7.30389e-14 1 0
-2.84417e-14 1 0
6.33672e-14 1 0
-4.384e-14 1 0
-5.44974e-14 1 0
6.34186e-14 1 0
5.07356e-14 1 0
-5.44974e-14 1 0
-7.44363e-14 1 0
5.07356e-14 1 0
7.0452e-14 1 0
-7.30389e-14 1 0
-6.2172e-14 1 0
6.33672e-14 1 0
8.05472e-14 1 0
-6.2172e-14 1 0
-3.70418e-14 1 0
8.05472e-14 1 0
4.23285e-14 1 0
-9.5575e-15 1 0
-4.56803e-14 1 0
2.95878e-14 1 0
4.0098e-14 1 0
-4.56803e-14 1 0
-1.3453e-14 1 0
4.0098e-14 1 0
3.01574e-14 1 0
-4.55559e-14 1 0
-4.29749e-14 1 0
2.9508e-14 1 0
4.85388e-14 1 0
-4.29749e-14 1 0
-4.45017e-14 1 0
4.85388e-14 1 0
4.16216e-14 1 0
-1.3453e-14 1 0
-3.31808e-14 1 0
3.01574e-14 1 0
3.95297e-14 1 0
-3.31808e-14 1 0
1.93852e-14 1 0
3.95297e-14 1 0
1.13427e-15 1 0
-4.45017e-14 1 0
-3.72624e-14 1 0
4.16216e-14 1 0
3.09866e-14 1 0
-3.72624e-14 1 0
-2.94926e-14 1 0
3.09866e-14 1 0
1.75468e-14 1 0
-1.10863e-14 1 0
-6.40938e-14 1 0
2.43933e-14 1 0
7.09901e-14 1 0
-6.40938e-14 1 0
-4.897e-14 1 0
7.09901e-14 1 0
5.90638e-14 1 0
-4.10113e-14 1 0
-6.30241e-14 1 0
4.77843e-14 1 0
6.10214e-14 1 0
-6.30241e-14 1 0
-9.00085e-14 1 0
6.10214e-14 1 0
1.02391e-13 1 0
-4.897e-14 1 0
-5.71185e-14 1 0
5.90638e-14 1 0
6.74101e-14 1 0
-5.71185e-14 1 0
2.21779e-15 1 0
6.74101e-14 1 0
8.26282e-15 1 0
-9.00085e-14 1 0
-4.15914e-14 1 0
1.02391e-13 1 0
4.47907e-14 1 0
-4.15914e-14 1 0
-6.63521e-15 1 0
4.47907e-14 1 0
9.74951e-15 1 0
1.93852e-14 1 0
2.60941e-14 1 0
1.13427e-15 1 0
-1.54147e-14 1 0
2.60941e-14 1 0
-3.80469e-14 1 0
-1.54147e-14 1 0
3.73117e-14 1 0
-2.94926e-14 1 0
-3.1882e-15 1 0
1.75468e-14 1 0
2.53996e-15 1 0
-3.1882e-15 1 0
-5.71236e-14 1 0
2.53996e-15 1 0
6.07917e-14 1 0
-3.80469e-14 1 0
-5.40904e-14 1 0
3.73117e-14 1 0
3.94095e-14 1 0
-5.40904e-14 1 0
-4.80195e-14 1 0
3.94095e-14 1 0
4.84696e-14 1 0
-5.71236e-14 1 0
-5.74049e-14 1 0
6.07917e-14 1 0
5.98357e-14 1 0
-5.74049e-14 1 0
-5.90085e-14 1 0
5.98357e-14 1 0
5.16796e-14 1 0
2.21779e-15 1 0
-8.26796e-15 1 0
8.26282e-15 1 0
2.28368e-14 1 0
-8.26796e-15 1 0
-2.11155e-14 1 0
2.28368e-14 1 0
2.72401e-14 1 0
-6.63521e-15 1 0
-3.16543e-14 1 0
9.74951e-15 1 0
3.73661e-14 1 0
-3.16543e-14 1 0
-6.68054e-14 1 0
3.73661e-14 1 0
5.54772e-14 1 0
-2.11155e-14 1 0
-4.44182e-14 1 0
2.72401e-14 1 0
5.03326e-14 1 0
-4.44182e-14 1 0
-5.36961e-14 1 0
5.03326e-14 1 0
6.17522e-14 1 0
-6.68054e-14 1 0
-4.52779e-14 1 0
5.54772e-14 1 0
3.12948e-14 1 0
-4.52779e-14 1 0
-3.87144e-14 1 0
3.12948e-14 1 0
1.6648e-14 1 0
0 1 0
-3.46973e-14 1 0
0 1 0
4.54882e-14 1 0
-3.46973e-14 1 0
-4.45921e-14 1 0
4.54882e-14 1 0
4.07342e-14 1 0
0 1 0
-4.7114e-14 1 0
0 1 0
3.9071e-14 1 0
-4.7114e-14 1 0
-4.14245e-14 1 0
3.9071e-14 1 0
3.25988e-14 1 0
-4.45921e-14 1 0
-8.54878e-15 1 0
4.07342e-14 1 0
9.63665e-15 1 0
-8.54878e-15 1 0
-4.9352e-14 1 0
9.63665e-15 1 0
3.72495e-14 1 0
-4.14245e-14 1 0
-1.21014e-14 1 0
3.25988e-14 1 0
8.03295e-15 1 0
-1.21014e-14 1 0
-2.90814e-14 1 0
8.03295e-15 1 0
2.78696e-14 1 0
0 1 0
-2.62575e-14 1 0
0 1 0
2.7291e-14 1 0
-2.62575e-14 1 0
1.44518e-15 1 0
2.7291e-14 1 0
-2.46902e-15 1 0
0 1 0
-3.47037e-14 1 0
0 1 0
3.84657e-14 1 0
-3.47037e-14 1 0
-1.39694e-14 1 0
3.84657e-14 1 0
1.8465e-14 1 0
1.44518e-15 1 0
-6.25155e-15 1 0
-2.46902e-15 1 0
1.31178e-14 1 0
-6.25155e-15 1 0
-3.3288e-14 1 0
1.31178e-14 1 0
3.63232e-14 1 0
-1.39694e-14 1 0
-2.01595e-14 1 0
1.8465e-14 1 0
1.95836e-14 1 0
-2.01595e-14 1 0
-3.52728e-14 1 0
1.95836e-14 1 0
4.37166e-14 1 0
-4.9352e-14 1 0
-7.70861e-14 1 0
3.72495e-14 1 0
7.7395e-14 1 0
-7.70861e-14 1 0
-7.14832e-14 1 0
7.7395e-14 1 0
6.87224e-14 1 0
-2.90814e-14 1 0
-9.02579e-14 1 0
2.78696e-14 1 0
9.39043e-14 1 0
-9.02579e-14 1 0
-4.77993e-14 1 0
9.39043e-14 1 0
5.02745e-14 1 0
-7.14832e-14 1 0
-4.65471e-14 1 0
6.87224e-14 1 0
3.81592e-14 1 0
-4.65471e-14 1 0
-6.98471e-14 1 0
3.81592e-14 1 0
7.47592e-14 1 0
-4.77993e-14 1 0
-2.14453e-14 1 0
5.02745e-14 1 0
2.64742e-14 1 0
-2.14453e-14 1 0
-3.32485e-14 1 0
2.64742e-14 1 0
3.68086e-14 1 0
-3.3288e-14 1 0
-9.10736e-14 1 0
3.63232e-14 1 0
8.18141e-14 1 0
-9.10736e-14 1 0
-6.94972e-14 1 0
8.18141e-14 1 0
6.34059e-14 1 0
-3.52728e-14 1 0
-3.35532e-14 1 0
4.37166e-14 1 0
2.50022e-14 1 0
-3.35532e-14 1 0
-6.47809e-15 1 0
2.50022e-14 1 0
-9.32571e-16 1 0
-6.94972e-14 1 0
-8.30288e-15 1 0
6.34059e-14 1 0
8.75813e-15 1 0
-8.30288e-15 1 0
-3.66312e-14 1 0
8.75813e-15 1 0
3.64965e-14 1 0
-6.47809e-15 1 0
-4.94689e-14 1 0
-9.32571e-16 1 0
5.64758e-14 1 0
-4.94689e-14 1 0
-6.55238e-14 1 0
5.64758e-14 1 0
6.97207e-14 1 0
0 1 0
-4.68399e-14 1 0
0 1 0
4.1844e-14 1 0
-4.68399e-14 1 0
-2.13299e-14 1 0
4.1844e-14 1 0
2.09943e-14 1 0
0 1 0
-1.66243e-14 1 0
0 1 0
1.15885e-14 1 0
-1.66243e-14 1 0
-6.01782e-15 1 0
1.15885e-14 1 0
6.6519e-15 1 0
-2.13299e-14 1 0
-3.08307e-14 1 0
2.09943e-14 1 0
3.50265e-14 1 0
-3.08307e-14 1 0
-6.41135e-14 1 0
3.50265e-14 1 0
7.01217e-14 1 0
-6.01782e-15 1 0
-1.47708e-14 1 0
6.6519e-15 1 0
1.16633e-14 1 0
-1.47708e-14 1 0
-6.12143e-14 1 0
1.16633e-14 1 0
5.79786e-14 1 0
0 1 0
-6.2664e-15 1 0
0 1 0
3.58702e-15 1 0
-6.2664e-15 1 0
-1.47029e-14 1 0
3.58702e-15 1 0
1.38242e-14 1 0
0 1 0
-2.05083e-14 1 0
0 1 0
2.41341e-14 1 0
-2.05083e-14 1 0
-2.15152e-14 1 0
2.41341e-14 1 0
1.45201e-14 1 0
-1.47029e-14 1 0
-1.96729e-14 1 0
1.38242e-14 1 0
2.39568e-14 1 0
-1.96729e-14 1 0
-3.74467e-14 1 0
2.39568e-14 1 0
2.46192e-14 1 0
-2.15152e-14 1 0
-3.46026e-14 1 0
1.45201e-14 1 0
3.06569e-14 1 0
-3.46026e-14 1 0
-1.91727e-14 1 0
3.06569e-14 1 0
2.36685e-15 1 0
-6.41135e-14 1 0
-7.84634e-14 1 0
7.01217e-14 1 0
8.80237e-14 1 0
-7.84634e-14 1 0
-1.96391e-14 1 0
8.80237e-14 1 0
1.9183e-14 1 0
-6.12143e-14 1 0
-6.12063e-14 1 0
5.79786e-14 1 0
5.41693e-14 1 0
-6.12063e-14 1 0
-4.77415e-14 1 0
5.41693e-14 1 0
6.28033e-14 1 0
-1.96391e-14 1 0
-2.51593e-14 1 0
1.9183e-14 1 0
1.43926e-14 1 0
-2.51593e-14 1 0
-6.99147e-14 1 0
1.43926e-14 1 0
7.63319e-14 1 0
-4.77415e-14 1 0
-3.3243e-14 1 0
6.28033e-14 1 0
3.15064e-14 1 0
-3.3243e-14 1 0
-7.89475e-14 1 0
3.15064e-14 1 0
7.47255e-14 1 0
-3.74467e-14 1 0
-6.12477e-14 1 0
2.46192e-14 1 0
5.8065e-14 1 0
-6.12477e-14 1 0
-4.8688e-14 1 0
5.8065e-14 1 0
3.95656e-14 1 0
-1.91727e-14 1 0
-4.9084e-14 1 0
2.36685e-15 1 0
2.68147e-14 1 0
-4.9084e-14 1 0
-3.1359e-14 1 0
2.68147e-14 1 0
2.21428e-14 1 0
-4.8688e-14 1 0
-3.45467e-14 1 0
3.95656e-14 1 0
3.73272e-14 1 0
-3.45467e-14 1 0
-9.04962e-14 1 0
3.73272e-14 1 0
8.63212e-14 1 0
-3.1359e-14 1 0
-5.16467e-14 1 0
2.21428e-14 1 0
3.73991e-14 1 0
-5.16467e-14 1 0
-8.85261e-14 1 0
3.73991e-14 1 0
6.40545e-14 1 0
-6.98471e-14 1 0
-5.63814e-14 1 0
7.47592e-14 1 0
6.26142e-14 1 0
-5.63814e-14 1 0
-9.02713e-14 1 0
6.26142e-14 1 0
7.92798e-14 1 0
-3.32485e-14 1 0
-4.38992e-14 1 0
3.68086e-14 1 0
5.17226e-14 1 0
-4.38992e-14 1 0
-9.12526e-15 1 0
5.17226e-14 1 0
-7.33214e-15 1 0
-9.02713e-14 1 0
-6.25291e-14 1 0
7.92798e-14 1 0
6.08395e-14 1 0
-6.25291e-14 1 0
-3.3234e-14 1 0
6.08395e-14 1 0
4.15405e-14 1 0
-9.12526e-15 1 0
-1.52324e-14 1 0
-7.33214e-15 1 0
8.86412e-15 1 0
-1.52324e-14 1 0
-2.4803e-14 1 0
8.86412e-15 1 0
2.95665e-14 1 0
-3.66312e-14 1 0
-5.12129e-14 1 0
3.64965e-14 1 0
4.6817e-14 1 0
-5.12129e-14 1 0
-1.3455e-15 1 0
4.6817e-14 1 0
7.88907e-15 1 0
-6.55238e-14 1 0
-5.82247e-14 1 0
6.97207e-14 1 0
5.731e-14 1 0
-5.82247e-14 1 0
-1.88175e-14 1 0
5.731e-14 1 0
3.02454e-14 1 0
-1.3455e-15 1 0
-3.07657e-14 1 0
7.88907e-15 1 0
4.05205e-14 1 0
-3.07657e-14 1 0
-5.63498e-14 1 0
4.05205e-14 1 0
5.92457e-14 1 0
-1.88175e-14 1 0
-3.7469e-14 1 0
3.02454e-14 1 0
3.97734e-14 1 0
-3.7469e-14 1 0
-3.95779e-14 1 0
3.97734e-14 1 0
4.5417e-14 1 0
-3.3234e-14 1 0
-2.96101e-14 1 0
4.15405e-14 1 0
2.36856e-14 1 0
-2.96101e-14 1 0
-7.62469e-15 1 0
2.36856e-14 1 0
1.15932e-15 1 0
-2.4803e-14 1 0
-1.24514e-14 1 0
2.95665e-14 1 0
7.73312e-15 1 0
-1.24514e-14 1 0
3.98207e-15 1 0
7.73312e-15 1 0
-9.17461e-15 1 0
-7.62469e-15 1 0
-1.23567e-14 1 0
1.15932e-15 1 0
1.81339e-14 1 0
-1.23567e-14 1 0
3.0895e-15 1 0
1.81339e-14 1 0
1.23368e-14 1 0
3.98207e-15 1 0
-1.81967e-14 1 0
-9.17461e-15 1 0
2.73389e-14 1 0
-1.81967e-14 1 0
-2.01408e-15 1 0
2.73389e-14 1 0
-4.96846e-15 1 0
-5.63498e-14 1 0
1.22779e-14 1 0
5.92457e-14 1 0
-7.79835e-15 1 0
1.22779e-14 1 0
2.01088e-14 1 0
-7.79835e-15 1 0
-1.18366e-14 1 0
-3.95779e-14 1 0
6.90025e-15 1 0
4.5417e-14 1 0
-6.41031e-15 1 0
6.90025e-15 1 0
6.19911e-15 1 0
-6.41031e-15 1 0
-5.84836e-15 1 0
2.01088e-14 1 0
-2.40698e-14 1 0
-1.18366e-14 1 0
2.59253e-14 1 0
-2.40698e-14 1 0
2.12121e-14 1 0
2.59253e-14 1 0
-1.08906e-14 1 0
6.19911e-15 1 0
-3.00437e-14 1 0
-5.84836e-15 1 0
3.04659e-14 1 0
-3.00437e-14 1 0
-2.23546e-14 1 0
3.04659e-14 1 0
2.0642e-14 1 0
-6.99147e-14 1 0
-5.09964e-14 1 0
7.63319e-14 1 0
5.21237e-14 1 0
-5.09964e-14 1 0
-4.96997e-14 1 0
5.21237e-14 1 0
5.24979e-14 1 0
-7.89475e-14 1 0
-6.24629e-14 1 0
7.47255e-14 1 0
6.41197e-14 1 0
-6.24629e-14 1 0
-7.19854e-14 1 0
6.41197e-14 1 0
6.76588e-14 1 0
-4.96997e-14 1 0
-2.21127e-14 1 0
5.24979e-14 1 0
1.10615e-14 1 0
-2.21127e-14 1 0
-6.73186e-14 1 0
1.10615e-14 1 0
6.17869e-14 1 0
-7.19854e-14 1 0
-2.73903e-14 1 0
6.76588e-14 1 0
3.53895e-14 1 0
-2.73903e-14 1 0
-4.93811e-14 1 0
3.53895e-14 1 0
3.93796e-14 1 0
-9.04962e-14 1 0
-9.20782e-14 1 0
8.63212e-14 1 0
8.24645e-14 1 0
-9.20782e-14 1 0
-6.84336e-14 1 0
8.24645e-14 1 0
4.90386e-14 1 0
-8.85261e-14 1 0
-7.86021e-14 1 0
6.40545e-14 1 0
4.13922e-14 1 0
-7.86021e-14 1 0
-5.99367e-14 1 0
4.13922e-14 1 0
3.01978e-14 1 0
-6.84336e-14 1 0
-4.53788e-14 1 0
4.90386e-14 1 0
4.79303e-14 1 0
-4.53788e-14 1 0
-3.19593e-14 1 0
4.79303e-14 1 0
3.88632e-14 1 0
-5.99367e-14 1 0
-3.73483e-14 1 0
3.01978e-14 1 0
2.79321e-14 1 0
-3.73483e-14 1 0
-3.60489e-14 1 0
2.79321e-14 1 0
2.81078e-14 1 0
-6.73186e-14 1 0
-3.18511e-14 1 0
6.17869e-14 1 0
4.06566e-14 1 0
-3.18511e-14 1 0
-2.12004e-14 1 0
4.06566e-14 1 0
3.35115e-14 1 0
-4.93811e-14 1 0
-3.207e-14 1 0
3.93796e-14 1 0
3.65664e-14 1 0
-3.207e-14 1 0
-3.69368e-14 1 0
3.65664e-14 1 0
3.51244e-14 1 0
-2.12004e-14 1 0
-5.58451e-14 1 0
3.35115e-14 1 0
5.30428e-14 1 0
-5.58451e-14 1 0
-4.12563e-14 1 0
5.30428e-14 1 0
5.39439e-14 1 0
-3.69368e-14 1 0
-2.05125e-14 1 0
3.51244e-14 1 0
2.28116e-14 1 0
-2.05125e-14 1 0
-3.59145e-14 1 0
2.28116e-14 1 0
4.16152e-14 1 0
-3.19593e-14 1 0
-3.67262e-14 1 0
3.88632e-14 1 0
2.68693e-14 1 0
-3.67262e-14 1 0
-2.87551e-14 1 0
2.68693e-14 1 0
2.19206e-14 1 0
-3.60489e-14 1 0
-2.64345e-14 1 0
2.81078e-14 1 0
3.4248e-14 1 0
-2.64345e-14 1 0
3.02555e-15 1 0
3.4248e-14 1 0
-2.85053e-15 1 0
-2.87551e-14 1 0
-5.31213e-14 1 0
2.19206e-14 1 0
6.3581e-14 1 0
-5.31213e-14 1 0
-5.86224e-14 1 0
6.3581e-14 1 0
5.12561e-14 1 0
3.02555e-15 1 0
-2.94109e-14 1 0
-2.85053e-15 1 0
2.27618e-14 1 0
-2.94109e-14 1 0
-6.10023e-15 1 0
2.27618e-14 1 0
1.0798e-14 1 0
-1.05097e-14 1 0
-4.24439e-14 1 0
2.74251e-14 1.00001 0
6.52671e-14 1.00001 0
-4.24439e-14 1 0
-3.99349e-14 1 0
6.52671e-14 1.00001 0
4.57694e-14 1.00001 0
-9.12544e-14 1.00001 0
-8.11776e-14 1.00001 0
1.05481e-13 1 0
7.22111e-14 1 0
-8.11776e-14 1.00001 0
-2.87567e-14 1.00001 0
7.22111e-14 1 0
3.99702e-14 1 0
-3.99349e-14 1 0
-4.41864e-14 1 0
4.57694e-14 1.00001 0
5.36138e-14 1.00001 0
-4.41864e-14 1 0
-5.62639e-14 1 0
5.36138e-14 1.00001 0
7.70516e-14 1.00001 0
-2.87567e-14 1.00001 0
8.78906e-15 1.00001 0
3.99702e-14 1 0
-2.85684e-14 1 0
8.78906e-15 1.00001 0
-4.09575e-14 1.00001 0
-2.85684e-14 1 0
2.87248e-14 1 0
-7.44363e-14 1 0
-2.09043e-14 1 0
7.0452e-14 1 0
3.87588e-14 1 0
-2.09043e-14 1 0
-2.34649e-14 1 0
3.87588e-14 1 0
4.69095e-14 1 0
-3.70418e-14 1 0
-2.26387e-14 1 0
4.23285e-14 1 0
1.51176e-14 1 0
-2.26387e-14 1 0
-9.85002e-14 1 0
1.51176e-14 1 0
1.01221e-13 1 0
-2.34649e-14 1 0
4.18807e-14 1 0
4.69095e-14 1 0
-2.58521e-14 1 0
4.18807e-14 1 0
-2.16222e-14 1 0
-2.58521e-14 1 0
3.67147e-14 1 0
-9.85002e-14 1 0
1.0138e-15 1 0
1.01221e-13 1 0
1.53053e-14 1 0
1.0138e-15 1 0
-2.90692e-14 1 0
1.53053e-14 1 0
1.89216e-14 1 0
-5.62639e-14 1 0
-2.58166e-14 1 0
7.70516e-14 1.00001 0
3.06606e-14 1.00001 0
-2.58166e-14 1 0
-4.62028e-15 1 0
3.06606e-14 1.00001 0
1.74135e-14 1.00001 0
-4.09575e-14 1.00001 0
-1.69836e-14 1.00001 0
2.87248e-14 1 0
2.79486e-14 1 0
-1.69836e-14 1.00001 0
-6.62257e-14 1.00001 0
2.79486e-14 1 0
8.90376e-14 1 0
-4.62028e-15 1 0
-2.74976e-15 1 0
1.74135e-14 1.00001 0
1.70612e-14 1.00001 0
-2.74976e-15 1 0
-3.1658e-15 1 0
1.70612e-14 1.00001 0
7.33203e-15 1.00001 0
-6.62257e-14 1.00001 0
-6.14381e-14 1.00001 0
8.90376e-14 1 0
8.47429e-14 1 0
-6.14381e-14 1.00001 0
-3.1727e-14 1.00001 0
8.47429e-14 1 0
5.60781e-14 1 0
-2.16222e-14 1 0
-4.65222e-14 1 0
3.67147e-14 1 0
7.33993e-14 1 0
-4.65222e-14 1 0
-6.08968e-14 1 0
7.33993e-14 1 0
5.69428e-14 1 0
-2.90692e-14 1 0
-7.00018e-14 1 0
1.89216e-14 1 0
6.03757e-14 1 0
-7.00018e-14 1 0
-3.06487e-14 1 0
6.03757e-14 1 0
2.79421e-14 1 0
-6.08968e-14 1 0
-6.20303e-14 1 0
5.69428e-14 1 0
4.99948e-14 1 0
-6.20303e-14 1 0
-6.08339e-14 1 0
4.99948e-14 1 0
8.65391e-14 1 0
-3.06487e-14 1 0
-3.3764e-14 1 0
2.79421e-14 1 0
4.01552e-14 1 0
-3.3764e-14 1 0
-1.20165e-13 1 0
4.01552e-14 1 0
9.38782e-14 1 0
-4.80195e-14 1 0
-7.37482e-15 1 0
4.84696e-14 1 0
-4.67837e-15 1 0
-7.37482e-15 1 0
-5.00384e-14 1 0
-4.67837e-15 1 0
3.30037e-14 1 0
-5.90085e-14 1 0
-7.02447e-15 1 0
5.16796e-14 1 0
2.57533e-15 1 0
-7.02447e-15 1 0
-5.69109e-14 1 0
2.57533e-15 1 0
6.6213e-14 1 0
-5.00384e-14 1 0
-2.06383e-14 1 0
3.30037e-14 1 0
3.71158e-14 1 0
-2.06383e-14 1 0
1.16425e-15 1 0
3.71158e-14 1 0
4.81002e-15 1 0
-5.69109e-14 1 0
-6.2718e-14 1 0
6.6213e-14 1 0
5.18068e-14 1 0
-6.2718e-14 1 0
2.16191e-16 1 0
5.18068e-14 1 0
-2.01506e-15 1 0
-5.36961e-14 1 0
2.02187e-14 1 0
6.17522e-14 1 0
-1.17438e-14 1 0
2.02187e-14 1 0
-4.56597e-14 1 0
-1.17438e-14 1 0
4.20855e-14 1 0
-3.87144e-14 1 0
1.65937e-14 1 0
1.6648e-14 1 0
-3.72767e-14 1 0
1.65937e-14 1 0
-2.02526e-14 1 0
-3.72767e-14 1 0
-3.31095e-16 1 0
-4.56597e-14 1 0
-3.11326e-14 1 0
4.20855e-14 1 0