# vtk DataFile Version 3.0
#This file was generated by the deal.II library on 2018/10/14 at 18:19:19
ASCII
DATASET UNSTRUCTURED_GRID

POINTS 20480 double
0 0 0
0.19635 0 0
0 0.311367 0
0.19635 0.311367 0
0.19635 0 0
0.392699 0 0
0.19635 0.311367 0
0.392699 0.311367 0
0 0.311367 0
0.19635 0.311367 0
0 0.623924 0
0.19635 0.623924 0
0.19635 0.311367 0
0.392699 0.311367 0
0.19635 0.623924 0
0.392699 0.623924 0
0.392699 0 0
0.589049 0 0
0.392699 0.311367 0
0.589049 0.311367 0
0.589049 0 0
0.785398 0 0
0.589049 0.311367 0
0.785398 0.311367 0
0.392699 0.311367 0
0.589049 0.311367 0
0.392699 0.623924 0
0.589049 0.623924 0
0.589049 0.311367 0
0.785398 0.311367 0
0.589049 0.623924 0
0.785398 0.623924 0
0 0.623924 0
0.19635 0.623924 0
0 0.936433 0
0.19635 0.936433 0
0.19635 0.623924 0
0.392699 0.623924 0
0.19635 0.936433 0
0.392699 0.936433 0
0 0.936433 0
0.19635 0.936433 0
0 1.24898 0
0.19635 1.24898 0
0.19635 0.936433 0
0.392699 0.936433 0
0.19635 1.24898 0
0.392699 1.24898 0
0.392699 0.623924 0
0.589049 0.623924 0
0.392699 0.936433 0
0.589049 0.936433 0
0.589049 0.623924 0
0.785398 0.623924 0
0.589049 0.936433 0
0.785398 0.936433 0
0.392699 0.936433 0
0.589049 0.936433 0
0.392699 1.24898 0
0.589049 1.24898 0
0.589049 0.936433 0
0.785398 0.936433 0
0.589049 1.24898 0
0.785398 1.24898 0
0.785398 0 0
0.981748 0 0
0.785398 0.311367 0
0.981748 0.311367 0
0.981748 0 0
1.1781 0 0
0.981748 0.311367 0
1.1781 0.311367 0
0.785398 0.311367 0
0.981748 0.311367 0
0.785398 0.623924 0
0.981748 0.623924 0
0.981748 0.311367 0
1.1781 0.311367 0
0.981748 0.623924 0
1.1781 0.623924 0
1.1781 0 0
1.37445 0 0
1.1781 0.311367 0
1.37445 0.311367 0
1.37445 0 0
1.5708 0 0
1.37445 0.311367 0
1.5708 0.311367 0
1.1781 0.311367 0
1.37445 0.311367 0
1.1781 0.623924 0
1.37445 0.623924 0
1.37445 0.311367 0
1.5708 0.311367 0
1.37445 0.623924 0
1.5708 0.623924 0
0.785398 0.623924 0
0.981748 0.623924 0
0.785398 0.936433 0
0.981748 0.936433 0
0.981748 0.623924 0
1.1781 0.623924 0
0.981748 0.936433 0
1.1781 0.936433 0
0.785398 0.936433 0
0.981748 0.936433 0
0.785398 1.24898 0
0.981748 1.24898 0
0.981748 0.936433 0
1.1781 0.936433 0
0.981748 1.24898 0
1.1781 1.24898 0
1.1781 0.623924 0
1.37445 0.623924 0
1.1781 0.936433 0
1.37445 0.936433 0
1.37445 0.623924 0
1.5708 0.623924 0
1.37445 0.936433 0
1.5708 0.936433 0
1.1781 0.936433 0
1.37445 0.936433 0
1.1781 1.24898 0
1.37445 1.24898 0
1.37445 0.936433 0
1.5708 0.936433 0
1.37445 1.24898 0
1.5708 1.24898 0
0 1.24898 0
0.19635 1.24898 0
0 1.56152 0
0.19635 1.56152 0
0.19635 1.24898 0
0.392699 1.24898 0
0.19635 1.56152 0
0.392699 1.56152 0
0 1.56152 0
0.19635 1.56152 0
0 1.87406 0
0.19635 1.87406 0
0.19635 1.56152 0
0.392699 1.56152 0
0.19635 1.87406 0
0.392699 1.87406 0
0.392699 1.24898 0
0.589049 1.24898 0
0.392699 1.56152 0
0.589049 1.56152 0
0.589049 1.24898 0
0.785398 1.24898 0
0.589049 1.56152 0
0.785398 1.56152 0
0.392699 1.56152 0
0.589049 1.56152 0
0.392699 1.87406 0
0.589049 1.87406 0
0.589049 1.56152 0
0.785398 1.56152 0
0.589049 1.87406 0
0.785398 1.87406 0
0 1.87406 0
0.19635 1.87406 0
0 2.1866 0
0.19635 2.1866 0
0.19635 1.87406 0
0.392699 1.87406 0
0.19635 2.1866 0
0.392699 2.1866 0
0 2.1866 0
0.19635 2.1866 0
0 2.49914 0
0.19635 2.49914 0
0.19635 2.1866 0
0.392699 2.1866 0
0.19635 2.49914 0
0.392699 2.49914 0
0.392699 1.87406 0
0.589049 1.87406 0
0.392699 2.1866 0
0.589049 2.1866 0
0.589049 1.87406 0
0.785398 1.87406 0
0.589049 2.1866 0
0.785398 2.1866 0
0.392699 2.1866 0
0.589049 2.1866 0
0.392699 2.49914 0
0.589049 2.49914 0
0.589049 2.1866 0
0.785398 2.1866 0
0.589049 2.49914 0
0.785398 2.49914 0
0.785398 1.24898 0
0.981748 1.24898 0
0.785398 1.56152 0
0.981748 1.56152 0
0.981748 1.24898 0
1.1781 1.24898 0
0.981748 1.56152 0
1.1781 1.56152 0
0.785398 1.56152 0
0.981748 1.56152 0
0.785398 1.87406 0
0.981748 1.87406 0
0.981748 1.56152 0
1.1781 1.56152 0
0.981748 1.87406 0
1.1781 1.87406 0
1.1781 1.24898 0
1.37445 1.24898 0
1.1781 1.56152 0
1.37445 1.56152 0
1.37445 1.24898 0
1.5708 1.24898 0
1.37445 1.56152 0
1.5708 1.56152 0
1.1781 1.56152 0
1.37445 1.56152 0
1.1781 1.87406 0
1.37445 1.87406 0
1.37445 1.56152 0
1.5708 1.56152 0
1.37445 1.87406 0
1.5708 1.87406 0
0.785398 1.87406 0
0.981748 1.87406 0
0.785398 2.1866 0
0.981748 2.1866 0
0.981748 1.87406 0
1.1781 1.87406 0
0.981748 2.1866 0
1.1781 2.1866 0
0.785398 2.1866 0
0.981748 2.1866 0
0.785398 2.49914 0
0.981748 2.49914 0
0.981748 2.1866 0
1.1781 2.1866 0
0.981748 2.49914 0
1.1781 2.49914 0
1.1781 1.87406 0
1.37445 1.87406 0
1.1781 2.1866 0
1.37445 2.1866 0
1.37445 1.87406 0
1.5708 1.87406 0
1.37445 2.1866 0
1.5708 2.1866 0
1.1781 2.1866 0
1.37445 2.1866 0
1.1781 2.49914 0
1.37445 2.49914 0
1.37445 2.1866 0
1.5708 2.1866 0
1.37445 2.49914 0
1.5708 2.49914 0
1.5708 0 0
1.76715 0 0
1.5708 0.311367 0
1.76715 0.311367 0
1.76715 0 0
1.9635 0 0
1.76715 0.311367 0
1.9635 0.311367 0
1.5708 0.311367 0
1.76715 0.311367 0
1.5708 0.623924 0
1.76715 0.623924 0
1.76715 0.311367 0
1.9635 0.311367 0
1.76715 0.623924 0
1.9635 0.623924 0
1.9635 0 0
2.15984 0 0
1.9635 0.311367 0
2.15984 0.311367 0
2.15984 0 0
2.35619 0 0
2.15984 0.311367 0
2.35619 0.311367 0
1.9635 0.311367 0
2.15984 0.311367 0
1.9635 0.623924 0
2.15984 0.623924 0
2.15984 0.311367 0
2.35619 0.311367 0
2.15984 0.623924 0
2.35619 0.623924 0
1.5708 0.623924 0
1.76715 0.623924 0
1.5708 0.936433 0
1.76715 0.936433 0
1.76715 0.623924 0
1.9635 0.623924 0
1.76715 0.936433 0
1.9635 0.936433 0
1.5708 0.936433 0
1.76715 0.936433 0
1.5708 1.24898 0
1.76715 1.24898 0
1.76715 0.936433 0
1.9635 0.936433 0
1.76715 1.24898 0
1.9635 1.24898 0
1.9635 0.623924 0
2.15984 0.623924 0
1.9635 0.936433 0
2.15984 0.936433 0
2.15984 0.623924 0
2.35619 0.623924 0
2.15984 0.936433 0
2.35619 0.936433 0
1.9635 0.936433 0
2.15984 0.936433 0
1.9635 1.24898 0
2.15984 1.24898 0
2.15984 0.936433 0
2.35619 0.936433 0
2.15984 1.24898 0
2.35619 1.24898 0
2.35619 0 0
2.55254 0 0
2.35619 0.311367 0
2.55254 0.311367 0
2.55254 0 0
2.74889 0 0
2.55254 0.311367 0
2.74889 0.311367 0
2.35619 0.311367 0
2.55254 0.311367 0
2.35619 0.623924 0
2.55254 0.623924 0
2.55254 0.311367 0
2.74889 0.311367 0
2.55254 0.623924 0
2.74889 0.623924 0
2.74889 0 0
2.94524 0 0
2.74889 0.311367 0
2.94524 0.311367 0
2.94524 0 0
3.14159 0 0
2.94524 0.311367 0
3.14159 0.311367 0
2.74889 0.311367 0
2.94524 0.311367 0
2.74889 0.623924 0
2.94524 0.623924 0
2.94524 0.311367 0
3.14159 0.311367 0
2.94524 0.623924 0
3.14159 0.623924 0
2.35619 0.623924 0
2.55254 0.623924 0
2.35619 0.936433 0
2.55254 0.936433 0
2.55254 0.623924 0
2.74889 0.623924 0
2.55254 0.936433 0
2.74889 0.936433 0
2.35619 0.936433 0
2.55254 0.936433 0
2.35619 1.24898 0
2.55254 1.24898 0
2.55254 0.936433 0
2.74889 0.936433 0
2.55254 1.24898 0
2.74889 1.24898 0
2.74889 0.623924 0
2.94524 0.623924 0
2.74889 0.936433 0
2.94524 0.936433 0
2.94524 0.623924 0
3.14159 0.623924 0
2.94524 0.936433 0
3.14159 0.936433 0
2.74889 0.936433 0
2.94524 0.936433 0
2.74889 1.24898 0
2.94524 1.24898 0
2.94524 0.936433 0
3.14159 0.936433 0
2.94524 1.24898 0
3.14159 1.24898 0
1.5708 1.24898 0
1.76715 1.24898 0
1.5708 1.56152 0
1.76715 1.56152 0
1.76715 1.24898 0
1.9635 1.24898 0
1.76715 1.56152 0
1.9635 1.56152 0
1.5708 1.56152 0
1.76715 1.56152 0
1.5708 1.87406 0
1.76715 1.87406 0
1.76715 1.56152 0
1.9635 1.56152 0
1.76715 1.87406 0
1.9635 1.87406 0
1.9635 1.24898 0
2.15984 1.24898 0
1.9635 1.56152 0
2.15984 1.56152 0
2.15984 1.24898 0
2.35619 1.24898 0
2.15984 1.56152 0
2.35619 1.56152 0
1.9635 1.56152 0
2.15984 1.56152 0
1.9635 1.87406 0
2.15984 1.87406 0
2.15984 1.56152 0
2.35619 1.56152 0
2.15984 1.87406 0
2.35619 1.87406 0
1.5708 1.87406 0
1.76715 1.87406 0
1.5708 2.1866 0
1.76715 2.1866 0
1.76715 1.87406 0
1.9635 1.87406 0
1.76715 2.1866 0
1.9635 2.1866 0
1.5708 2.1866 0
1.76715 2.1866 0
1.5708 2.49914 0
1.76715 2.49914 0
1.76715 2.1866 0
1.9635 2.1866 0
1.76715 2.49914 0
1.9635 2.49914 0
1.9635 1.87406 0
2.15984 1.87406 0
1.9635 2.1866 0
2.15984 2.1866 0
2.15984 1.87406 0
2.35619 1.87406 0
2.15984 2.1866 0
2.35619 2.1866 0
1.9635 2.1866 0
2.15984 2.1866 0
1.9635 2.49914 0
2.15984 2.49914 0
2.15984 2.1866 0
2.35619 2.1866 0
2.15984 2.49914 0
2.35619 2.49914 0
2.35619 1.24898 0
2.55254 1.24898 0
2.35619 1.56152 0
2.55254 1.56152 0
2.55254 1.24898 0
2.74889 1.24898 0
2.55254 1.56152 0
2.74889 1.56152 0
2.35619 1.56152 0
2.55254 1.56152 0
2.35619 1.87406 0
2.55254 1.87406 0
2.55254 1.56152 0
2.74889 1.56152 0
2.55254 1.87406 0
2.74889 1.87406 0
2.74889 1.24898 0
2.94524 1.24898 0
2.74889 1.56152 0
2.94524 1.56152 0
2.94524 1.24898 0
3.14159 1.24898 0
2.94524 1.56152 0
3.14159 1.56152 0
2.74889 1.56152 0
2.94524 1.56152 0
2.74889 1.87406 0
2.94524 1.87406 0
2.94524 1.56152 0
3.14159 1.56152 0
2.94524 1.87406 0
3.14159 1.87406 0
2.35619 1.87406 0
2.55254 1.87406 0
2.35619 2.1866 0
2.55254 2.1866 0
2.55254 1.87406 0
2.74889 1.87406 0
2.55254 2.1866 0
2.74889 2.1866 0
2.35619 2.1866 0
2.55254 2.1866 0
2.35619 2.49914 0
2.55254 2.49914 0
2.55254 2.1866 0
2.74889 2.1866 0
2.55254 2.49914 0
2.74889 2.49914 0
2.74889 1.87406 0
2.94524 1.87406 0
2.74889 2.1866 0
2.94524 2.1866 0
2.94524 1.87406 0
3.14159 1.87406 0
2.94524 2.1866 0
3.14159 2.1866 0
2.74889 2.1866 0
2.94524 2.1866 0
2.74889 2.49914 0
2.94524 2.49914 0
2.94524 2.1866 0
3.14159 2.1866 0
2.94524 2.49914 0
3.14159 2.49914 0
0 2.49914 0
0.19635 2.49914 0
0 2.81168 0
0.19635 2.81168 0
0.19635 2.49914 0
0.392699 2.49914 0
0.19635 2.81168 0
0.392699 2.81168 0
0 2.81168 0
0.19635 2.81168 0
0 3.12422 0
0.19635 3.12422 0
0.19635 2.81168 0
0.392699 2.81168 0
0.19635 3.12422 0
0.392699 3.12422 0
0.392699 2.49914 0
0.589049 2.49914 0
0.392699 2.81168 0
0.589049 2.81168 0
0.589049 2.49914 0
0.785398 2.49914 0
0.589049 2.81168 0
0.785398 2.81168 0
0.392699 2.81168 0
0.589049 2.81168 0
0.392699 3.12422 0
0.589049 3.12422 0
0.589049 2.81168 0
0.785398 2.81168 0
0.589049 3.12422 0
0.785398 3.12422 0
0 3.12422 0
0.19635 3.12422 0
0 3.43675 0
0.19635 3.43675 0
0.19635 3.12422 0
0.392699 3.12422 0
0.19635 3.43675 0
0.392699 3.43675 0
0 3.43675 0
0.19635 3.43675 0
0 3.74929 0
[...]
POINT_DATA 20480
VECTORS uf double
0 1 0
-3.05711e-14 1 0
0 1.00001 0
4.66392e-14 1.00001 0
-3.05711e-14 1 0
-2.28375e-14 1 0
4.66392e-14 1.00001 0
2.74469e-14 1.00001 0
0 1.00001 0
-1.63519e-14 1.00001 0
0 1 0
-4.9722e-15 1 0
-1.63519e-14 1.00001 0
2.40045e-15 1.00001 0
-4.9722e-15 1 0
-1.0435e-14 1 0
-2.28375e-14 1 0
-3.96416e-14 1 0
2.74469e-14 1.00001 0
4.88954e-14 1.00001 0
-3.96416e-14 1 0
-2.737e-14 1 0
4.88954e-14 1.00001 0
3.78276e-14 1.00001 0
2.40045e-15 1.00001 0
-3.17598e-14 1.00001 0
-1.0435e-14 1 0
3.25963e-14 1 0
-3.17598e-14 1.00001 0
-3.50489e-14 1.00001 0
3.25963e-14 1 0
3.19945e-14 1 0
0 1 0
-2.20494e-15 1 0
0 1 0
1.2363e-14 1 0
-2.20494e-15 1 0
-4.49804e-15 1 0
1.2363e-14 1 0
2.59268e-14 1 0
0 1 0
-2.76813e-14 1 0
0 1 0
4.4005e-14 1 0
-2.76813e-14 1 0
-9.5481e-14 1 0
4.4005e-14 1 0
9.80587e-14 1 0
-4.49804e-15 1 0
-4.31944e-14 1 0
2.59268e-14 1 0
5.13347e-14 1 0
-4.31944e-14 1 0
-3.21056e-14 1 0
5.13347e-14 1 0
3.94451e-14 1 0
-9.5481e-14 1 0
-4.76334e-14 1 0
9.80587e-14 1 0
3.77241e-14 1 0
-4.76334e-14 1 0
-5.01957e-14 1 0
3.77241e-14 1 0
5.31307e-14 1 0
-2.737e-14 1 0
-4.01774e-14 1 0
3.78276e-14 1.00001 0
4.49575e-14 1.00001 0
-4.01774e-14 1 0
-6.12153e-14 1 0
4.49575e-14 1.00001 0
6.15266e-14 1.00001 0
-3.50489e-14 1.00001 0
-4.88614e-14 1.00001 0
3.19945e-14 1 0
6.10426e-14 1 0
-4.88614e-14 1.00001 0
-4.54559e-14 1.00001 0
6.10426e-14 1 0
6.02765e-14 1 0
-6.12153e-14 1 0
-6.89397e-14 1 0
6.15266e-14 1.00001 0
7.73441e-14 1.00001 0
-6.89397e-14 1 0
-4.48342e-14 1 0
7.73441e-14 1.00001 0
5.15385e-14 1.00001 0
-4.54559e-14 1.00001 0
-4.78459e-14 1.00001 0
6.02765e-14 1 0
5.72222e-14 1 0
-4.78459e-14 1.00001 0
-2.65542e-14 1.00001 0
5.72222e-14 1 0
2.75393e-14 1 0
-3.21056e-14 1 0
-7.07977e-14 1 0
3.94451e-14 1 0
6.64043e-14 1 0
-7.07977e-14 1 0
-4.65112e-14 1 0
6.64043e-14 1 0
4.41166e-14 1 0
-5.01957e-14 1 0
-5.52169e-14 1 0
5.31307e-14 1 0
5.97017e-14 1 0
-5.52169e-14 1 0
-6.56982e-14 1 0
5.97017e-14 1 0
7.83402e-14 1 0
-4.65112e-14 1 0
-4.41095e-14 1 0
4.41166e-14 1 0
2.73164e-14 1 0
-4.41095e-14 1 0
-6.00198e-14 1 0
2.73164e-14 1 0
5.90397e-14 1 0
-6.56982e-14 1 0
-2.18661e-14 1 0
7.83402e-14 1 0
2.34821e-14 1 0
-2.18661e-14 1 0
-2.30168e-14 1 0
2.34821e-14 1 0
1.60022e-14 1 0
0 1 0
-5.88255e-14 1 0
0 1 0
5.46724e-14 1 0
-5.88255e-14 1 0
-4.29569e-14 1 0
5.46724e-14 1 0
3.57744e-14 1 0
0 1 0
-9.93643e-15 1 0
0 1 0
4.47883e-15 1 0
-9.93643e-15 1 0
-4.16464e-14 1 0
4.47883e-15 1 0
5.30914e-14 1 0
-4.29569e-14 1 0
-7.18351e-15 1 0
3.57744e-14 1 0
4.14653e-15 1 0
-7.18351e-15 1 0
-6.83055e-14 1 0
4.14653e-15 1 0
8.1023e-14 1 0
-4.16464e-14 1 0
-4.13308e-14 1 0
5.30914e-14 1 0
5.03938e-14 1 0
-4.13308e-14 1 0
-9.77291e-14 1 0
5.03938e-14 1 0
9.15432e-14 1 0
0 1 0
-3.74839e-14 1 0
0 1 0
4.1297e-14 1 0
-3.74839e-14 1 0
-3.73674e-14 1 0
4.1297e-14 1 0
2.25173e-14 1 0
0 1 0
-3.53753e-14 1 0
0 1 0
3.25019e-14 1 0
-3.53753e-14 1 0
-5.08117e-14 1 0
3.25019e-14 1 0
5.69315e-14 1 0
-3.73674e-14 1 0
-3.72467e-14 1 0
2.25173e-14 1 0
3.46167e-14 1 0
-3.72467e-14 1 0
-6.13318e-14 1 0
3.46167e-14 1 0
5.74322e-14 1 0
-5.08117e-14 1 0
-3.34519e-14 1 0
5.69315e-14 1 0
2.64929e-14 1 0
-3.34519e-14 1 0
-5.68949e-14 1 0
2.64929e-14 1 0
5.03699e-14 1 0
-6.83055e-14 1 0
-4.47794e-14 1 0
8.1023e-14 1 0
4.16755e-14 1 0
-4.47794e-14 1 0
-5.56783e-14 1 0
4.16755e-14 1 0
5.62314e-14 1 0
-9.77291e-14 1 0
-5.4052e-14 1 0
9.15432e-14 1 0
4.97442e-14 1 0
-5.4052e-14 1 0
-8.73446e-14 1 0
4.97442e-14 1 0
8.51532e-14 1 0
-5.56783e-14 1 0
-1.21485e-14 1 0
5.62314e-14 1 0
2.45544e-14 1 0
-1.21485e-14 1 0
-1.60106e-14 1 0
2.45544e-14 1 0
3.73808e-14 1 0
-8.73446e-14 1 0
-1.90576e-14 1 0
8.51532e-14 1 0
1.02911e-14 1 0
-1.90576e-14 1 0
-4.46108e-14 1 0
1.02911e-14 1 0
3.33734e-14 1 0
-6.13318e-14 1 0
-3.58917e-14 1 0
5.74322e-14 1 0
4.55573e-14 1 0
-3.58917e-14 1 0
-5.16835e-14 1 0
4.55573e-14 1 0
4.62271e-14 1 0
-5.68949e-14 1 0
-8.37131e-14 1 0
5.03699e-14 1 0
9.75093e-14 1 0
-8.37131e-14 1 0
-6.69849e-14 1 0
9.75093e-14 1 0
8.18589e-14 1 0
-5.16835e-14 1 0
-2.71938e-14 1 0
4.62271e-14 1 0
3.83489e-14 1 0
-2.71938e-14 1 0
-3.00491e-14 1 0
3.83489e-14 1 0
3.74298e-14 1 0
-6.69849e-14 1 0
-4.31299e-14 1 0
8.18589e-14 1 0
4.01708e-14 1 0
-4.31299e-14 1 0
-4.39078e-14 1 0
4.01708e-14 1 0
4.3539e-14 1 0
-4.48342e-14 1 0
-7.73759e-14 1 0
5.15385e-14 1.00001 0
1.12237e-13 1.00001 0
-7.73759e-14 1 0
-5.90122e-14 1 0
1.12237e-13 1.00001 0
7.22699e-14 1.00001 0
-2.65542e-14 1.00001 0
-8.47026e-14 1.00001 0
2.75393e-14 1 0
8.01525e-14 1 0
-8.47026e-14 1.00001 0
-3.52596e-14 1.00001 0
8.01525e-14 1 0
2.84453e-14 1 0
-5.90122e-14 1 0
-2.46446e-14 1 0
7.22699e-14 1.00001 0
3.03006e-14 1.00001 0
-2.46446e-14 1 0
-2.30247e-14 1 0
3.03006e-14 1.00001 0
3.64707e-14 1.00001 0
-3.52596e-14 1.00001 0
-5.69705e-14 1.00001 0
2.84453e-14 1 0
6.40338e-14 1 0
-5.69705e-14 1.00001 0
-4.16819e-14 1.00001 0
6.40338e-14 1 0
1.53039e-14 1 0
-6.00198e-14 1 0
-9.59755e-14 1 0
5.90397e-14 1 0
8.02589e-14 1 0
-9.59755e-14 1 0
-2.6359e-14 1 0
8.02589e-14 1 0
2.77272e-14 1 0
-2.30168e-14 1 0
-5.68077e-14 1 0
1.60022e-14 1 0
5.51967e-14 1 0
-5.68077e-14 1 0
-4.12232e-14 1 0
5.51967e-14 1 0
4.29633e-14 1 0
-2.6359e-14 1 0
-3.01621e-14 1 0
2.77272e-14 1 0
4.36015e-14 1 0
-3.01621e-14 1 0
2.81973e-14 1 0
4.36015e-14 1 0
-2.25565e-14 1 0
-4.12232e-14 1 0
-8.4871e-14 1 0
4.29633e-14 1 0
9.16215e-14 1 0
-8.4871e-14 1 0
7.87958e-15 1 0
9.16215e-14 1 0
1.18008e-14 1 0
-2.30247e-14 1 0
-2.7329e-14 1 0
3.64707e-14 1.00001 0
2.4591e-14 1.00001 0
-2.7329e-14 1 0
-6.91526e-14 1 0
2.4591e-14 1.00001 0
8.59956e-14 1.00001 0
-4.16819e-14 1.00001 0
-2.46965e-16 1.00001 0
1.53039e-14 1 0
-4.23617e-15 1 0
-2.46965e-16 1.00001 0
-5.52323e-14 1.00001 0
-4.23617e-15 1 0
6.04589e-14 1 0
-6.91526e-14 1 0
-2.47601e-14 1 0
8.59956e-14 1.00001 0
4.96801e-14 1.00001 0
-2.47601e-14 1 0
-2.92798e-14 1 0
4.96801e-14 1.00001 0
4.49591e-14 1.00001 0
-5.52323e-14 1.00001 0
-8.30933e-14 1.00001 0
6.04589e-14 1 0
7.62817e-14 1 0
-8.30933e-14 1.00001 0
-9.26587e-14 1.00001 0
7.62817e-14 1 0
1.06254e-13 1 0
2.81973e-14 1 0
-8.1446e-15 1 0
-2.25565e-14 1 0
1.91858e-14 1 0
-8.1446e-15 1 0
-6.53313e-14 1 0
1.91858e-14 1 0
6.60416e-14 1 0
7.87958e-15 1 0
2.09447e-14 1 0
1.18008e-14 1 0
-3.0668e-14 1 0
2.09447e-14 1 0
-5.43904e-14 1 0
-3.0668e-14 1 0
5.52132e-14 1 0
-6.53313e-14 1 0
-5.71849e-14 1 0
6.60416e-14 1 0
6.3585e-14 1 0
-5.71849e-14 1 0
-8.08587e-14 1 0
6.3585e-14 1 0
7.93994e-14 1 0
-5.43904e-14 1 0
-7.08861e-14 1 0
5.52132e-14 1 0
8.66635e-14 1 0
-7.08861e-14 1 0
-5.21371e-14 1 0
8.66635e-14 1 0
6.0947e-14 1 0
-1.60106e-14 1 0
-5.70573e-14 1 0
3.73808e-14 1 0
7.19358e-14 1 0
-5.70573e-14 1 0
-3.30637e-14 1 0
7.19358e-14 1 0
5.52131e-14 1 0
-4.46108e-14 1 0
-6.87717e-14 1 0
3.33734e-14 1 0
6.61264e-14 1 0
-6.87717e-14 1 0
-7.65949e-14 1 0
6.61264e-14 1 0
6.85678e-14 1 0
-3.30637e-14 1 0
-5.79413e-14 1 0
5.52131e-14 1 0
5.055e-14 1 0
-5.79413e-14 1 0
-1.3971e-14 1 0
5.055e-14 1 0
1.5985e-14 1 0
-7.65949e-14 1 0
-5.55611e-14 1 0
6.85678e-14 1 0
4.48814e-14 1 0
-5.55611e-14 1 0
-3.70576e-14 1 0
4.48814e-14 1 0
4.30787e-14 1 0
-3.00491e-14 1 0
-5.95943e-14 1 0
3.74298e-14 1 0
5.32476e-14 1 0
-5.95943e-14 1 0
-5.73693e-14 1 0
5.32476e-14 1 0
5.6483e-14 1 0
-4.39078e-14 1 0
-3.90261e-14 1 0
4.3539e-14 1 0
3.49642e-14 1 0
-3.90261e-14 1 0
-9.15813e-14 1 0
3.49642e-14 1 0
1.19202e-13 1 0
-5.73693e-14 1 0
-6.45932e-14 1 0
5.6483e-14 1 0
6.89954e-14 1 0
-6.45932e-14 1 0
-3.25816e-14 1 0
6.89954e-14 1 0
2.62773e-14 1 0
-9.15813e-14 1 0
-3.65175e-14 1 0
1.19202e-13 1 0
4.76111e-14 1 0
-3.65175e-14 1 0
-3.6509e-15 1 0
4.76111e-14 1 0
1.48362e-14 1 0
-1.3971e-14 1 0
1.80558e-14 1 0
1.5985e-14 1 0
-1.16034e-14 1 0
1.80558e-14 1 0
-4.3127e-14 1 0
-1.16034e-14 1 0
3.10955e-14 1 0
-3.70576e-14 1 0
9.12835e-16 1 0
4.30787e-14 1 0
1.19839e-14 1 0
9.12835e-16 1 0
-3.52632e-14 1 0
1.19839e-14 1 0
5.15379e-14 1 0
-4.3127e-14 1 0
-6.93368e-14 1 0
3.10955e-14 1 0
4.44509e-14 1 0
-6.93368e-14 1 0
-6.03291e-14 1 0
4.44509e-14 1 0
3.86357e-14 1 0
-3.52632e-14 1 0
-6.13385e-14 1 0
5.15379e-14 1 0
8.62911e-14 1 0
-6.13385e-14 1 0
-4.15996e-14 1 0
8.62911e-14 1 0
5.90653e-14 1 0
-3.25816e-14 1 0
-1.60055e-14 1 0
2.62773e-14 1 0
1.46975e-14 1 0
-1.60055e-14 1 0
-2.65739e-14 1 0
1.46975e-14 1 0
2.39246e-14 1 0
-3.6509e-15 1 0
-1.86303e-14 1 0
1.48362e-14 1 0
3.24531e-14 1 0
-1.86303e-14 1 0
-4.59928e-14 1 0
3.24531e-14 1 0
4.40488e-14 1 0
-2.65739e-14 1 0
-6.53218e-14 1 0
2.39246e-14 1 0
6.30193e-14 1 0
-6.53218e-14 1 0
-7.01413e-14 1 0
6.30193e-14 1 0
6.57946e-14 1 0
-4.59928e-14 1 0
-4.88504e-14 1 0
4.40488e-14 1 0
2.73554e-14 1 0
-4.88504e-14 1 0
-4.0346e-14 1 0
2.73554e-14 1 0
3.74594e-14 1 0
0 1 0
-3.91896e-14 1 0
0 1 0
4.06047e-14 1 0
-3.91896e-14 1 0
-4.4588e-14 1 0
4.06047e-14 1 0
4.94237e-14 1 0
0 1 0
-4.57017e-14 1 0
0 1 0
3.47633e-14 1 0
-4.57017e-14 1 0
-5.74159e-14 1 0
3.47633e-14 1 0
4.08329e-14 1 0
-4.4588e-14 1 0
-9.22039e-15 1 0
4.94237e-14 1 0
1.61612e-14 1 0
-9.22039e-15 1 0
-3.96123e-14 1 0
1.61612e-14 1 0
4.61655e-14 1 0
-5.74159e-14 1 0
-3.76317e-14 1 0
4.08329e-14 1 0
3.46915e-14 1 0
-3.76317e-14 1 0
-4.68134e-14 1 0
3.46915e-14 1 0
3.39257e-14 1 0
0 1 0
-8.93367e-15 1 0
0 1 0
1.65692e-14 1 0
-8.93367e-15 1 0
5.69874e-16 1 0
1.65692e-14 1 0
-8.43e-16 1 0
0 1 0
-3.27038e-14 1 0
0 1 0
3.19738e-14 1 0
-3.27038e-14 1 0
-1.48314e-14 1 0
3.19738e-14 1 0
1.24879e-14 1 0
5.69874e-16 1 0
-1.6646e-14 1 0
-8.43e-16 1 0
1.97425e-14 1 0
-1.6646e-14 1 0
-2.15381e-14 1 0
1.97425e-14 1 0
2.02219e-14 1 0
-1.48314e-14 1 0
-2.44001e-14 1 0
1.24879e-14 1 0
2.16455e-14 1 0
-2.44001e-14 1 0
-2.97359e-14 1 0
2.16455e-14 1 0
4.66724e-14 1 0
-3.96123e-14 1 0
-6.54452e-14 1 0
4.61655e-14 1 0
5.91694e-14 1 0
-6.54452e-14 1 0
-7.98046e-14 1 0
5.91694e-14 1 0
7.72039e-14 1 0
-4.68134e-14 1 0
-6.82955e-14 1 0
3.39257e-14 1 0
6.50431e-14 1 0
-6.82955e-14 1 0
-5.06312e-14 1 0
6.50431e-14 1 0
5.19986e-14 1 0
-7.98046e-14 1 0
-4.0644e-14 1 0
7.72039e-14 1 0
4.81909e-14 1 0
-4.0644e-14 1 0
-6.14516e-14 1 0
4.81909e-14 1 0
7.41387e-14 1 0
-5.06312e-14 1 0
-2.99373e-14 1 0
5.19986e-14 1 0
2.36419e-14 1 0
-2.99373e-14 1 0
-5.08699e-14 1 0
2.36419e-14 1 0
5.04048e-14 1 0
-2.15381e-14 1 0
-6.58578e-14 1 0
2.02219e-14 1 0
5.9118e-14 1 0
-6.58578e-14 1 0
-7.58471e-14 1 0
5.9118e-14 1 0
6.42666e-14 1 0
-2.97359e-14 1 0
-2.64641e-14 1 0
4.66724e-14 1 0
3.38338e-14 1 0
-2.64641e-14 1 0
-4.89225e-15 1 0
3.38338e-14 1 0
-1.36725e-14 1 0
-7.58471e-14 1 0
-5.96935e-15 1 0
6.42666e-14 1 0
1.67612e-14 1 0
-5.96935e-15 1 0
-4.25841e-14 1 0
1.67612e-14 1 0
4.81874e-14 1 0
-4.89225e-15 1 0
-6.90227e-14 1 0
-1.36725e-14 1 0
7.06543e-14 1 0
-6.90227e-14 1 0
-7.76506e-14 1 0
7.06543e-14 1 0
8.52543e-14 1 0
0 1 0
-3.87071e-14 1 0
0 1 0
3.92898e-14 1 0
-3.87071e-14 1 0
-2.30875e-14 1 0
3.92898e-14 1 0
2.35364e-14 1 0
0 1 0
-1.65202e-14 1 0
0 1 0
8.2666e-15 1 0
-1.65202e-14 1 0
-2.32878e-16 1 0
8.2666e-15 1 0
6.5377e-16 1 0
-2.30875e-14 1 0
-3.33714e-14 1 0
2.35364e-14 1 0
3.31471e-14 1 0
-3.33714e-14 1 0
-6.6746e-14 1 0
3.31471e-14 1 0
6.22965e-14 1 0
-2.32878e-16 1 0
-2.11489e-14 1 0
6.5377e-16 1 0
3.12307e-14 1 0
-2.11489e-14 1 0
-5.95704e-14 1 0
3.12307e-14 1 0
6.20014e-14 1 0
0 1 0
-1.04785e-14 1 0
0 1 0
9.78817e-15 1 0
-1.04785e-14 1 0
-2.23761e-14 1 0
9.78817e-15 1 0
2.00455e-14 1 0
0 1 0
-1.4427e-14 1 0
0 1 0
1.67778e-14 1 0
-1.4427e-14 1 0
-1.80036e-14 1 0
1.67778e-14 1 0
1.87019e-14 1 0
-2.23761e-14 1 0
-5.24416e-14 1 0
2.00455e-14 1 0
4.13291e-14 1 0
-5.24416e-14 1 0
-3.95026e-14 1 0
4.13291e-14 1 0
1.78133e-14 1 0
-1.80036e-14 1 0
-3.89701e-14 1 0
1.87019e-14 1 0
4.63135e-14 1 0
-3.89701e-14 1 0
-1.00311e-14 1 0
4.63135e-14 1 0
7.53486e-15 1 0
-6.6746e-14 1 0
-9.24156e-14 1 0
6.22965e-14 1 0
9.10194e-14 1 0
-9.24156e-14 1 0
9.28993e-16 1 0
9.10194e-14 1 0
1.36048e-14 1 0
-5.95704e-14 1 0
-5.65591e-14 1 0
6.20014e-14 1 0
5.17825e-14 1 0
-5.65591e-14 1 0
-4.62271e-14 1 0
5.17825e-14 1 0
5.55839e-14 1 0
9.28993e-16 1 0
-3.17162e-14 1 0
1.36048e-14 1 0
1.80205e-14 1 0
-3.17162e-14 1 0
-8.36376e-14 1 0
1.80205e-14 1 0
7.65605e-14 1 0
-4.62271e-14 1 0
-3.28181e-14 1 0
5.55839e-14 1 0
2.39547e-14 1 0
-3.28181e-14 1 0
-6.60945e-14 1 0
2.39547e-14 1 0
5.85971e-14 1 0
-3.95026e-14 1 0
-6.84072e-14 1 0
1.78133e-14 1 0
5.3794e-14 1 0
-6.84072e-14 1 0
-4.59366e-14 1 0
5.3794e-14 1 0
2.98476e-14 1 0
-1.00311e-14 1 0
-3.69208e-14 1 0
7.53486e-15 1 0
2.14597e-14 1 0
-3.69208e-14 1 0
-1.63148e-14 1 0
2.14597e-14 1 0
1.95544e-14 1 0
-4.59366e-14 1 0
-3.00132e-14 1 0
2.98476e-14 1 0
4.37248e-14 1 0
-3.00132e-14 1 0
-7.99508e-14 1 0
4.37248e-14 1 0
8.14604e-14 1 0
-1.63148e-14 1 0
-5.97281e-14 1 0
1.95544e-14 1 0
4.81654e-14 1 0
-5.97281e-14 1 0
-7.61915e-14 1 0
4.81654e-14 1 0
4.92648e-14 1 0
-6.14516e-14 1 0
-3.64275e-14 1 0
7.41387e-14 1 0
4.98288e-14 1 0
-3.64275e-14 1 0
-1.11548e-13 1 0
4.98288e-14 1 0
9.30352e-14 1 0
-5.08699e-14 1 0
-4.91646e-14 1 0
5.04048e-14 1 0
5.53709e-14 1 0
-4.91646e-14 1 0
-1.62558e-14 1 0
5.53709e-14 1 0
-4.97088e-16 1 0
-1.11548e-13 1 0
-6.28989e-14 1 0
9.30352e-14 1 0
6.82995e-14 1 0
-6.28989e-14 1 0
-5.16057e-14 1 0
6.82995e-14 1 0
5.27516e-14 1 0
-1.62558e-14 1 0
-3.50864e-14 1 0
-4.97088e-16 1 0
2.46045e-14 1 0
-3.50864e-14 1 0
-3.45338e-14 1 0
2.46045e-14 1 0
4.41868e-14 1 0
-4.25841e-14 1 0
-4.6731e-14 1 0
4.81874e-14 1 0
4.274e-14 1 0
-4.6731e-14 1 0
2.83733e-16 1 0
4.274e-14 1 0
7.64191e-15 1 0
-7.76506e-14 1 0
-5.26734e-14 1 0
8.52543e-14 1 0
5.28524e-14 1 0
-5.26734e-14 1 0
-2.9465e-14 1 0
5.28524e-14 1 0
3.49081e-14 1 0
2.83733e-16 1 0
-3.86241e-14 1 0
7.64191e-15 1 0
4.39217e-14 1 0
-3.86241e-14 1 0
-6.32661e-14 1 0
4.39217e-14 1 0
5.97631e-14 1 0
-2.9465e-14 1 0
-4.22447e-14 1 0
3.49081e-14 1 0
3.32294e-14 1 0
-4.22447e-14 1 0
-3.67808e-14 1 0
3.32294e-14 1 0
2.96082e-14 1 0
-5.16057e-14 1 0
-1.88226e-14 1 0
5.27516e-14 1 0
1.06544e-14 1 0
-1.88226e-14 1 0
-1.12349e-14 1 0
1.06544e-14 1 0
3.86793e-15 1 0
-3.45338e-14 1 0
-1.21979e-14 1 0
4.41868e-14 1 0
1.56858e-14 1 0
-1.21979e-14 1 0
8.21117e-15 1 0
1.56858e-14 1 0
-5.56257e-15 1 0
-1.12349e-14 1 0
-1.51342e-14 1 0
3.86793e-15 1 0
2.30019e-14 1 0
-1.51342e-14 1 0
-2.48411e-14 1 0
2.30019e-14 1 0
2.79282e-14 1 0
8.21117e-15 1 0
2.89488e-16 1 0
-5.56257e-15 1 0
-2.21574e-15 1 0
2.89488e-16 1 0
-5.05252e-15 1 0
-2.21574e-15 1 0
3.73189e-15 1 0
-6.32661e-14 1 0
6.1045e-15 1 0
5.97631e-14 1 0
-8.9228e-15 1 0
6.1045e-15 1 0
-2.14739e-15 1 0
-8.9228e-15 1 0
3.81916e-15 1 0
-3.67808e-14 1 0
-1.04956e-14 1 0
2.96082e-14 1 0
1.66044e-14 1 0
-1.04956e-14 1 0
-1.00805e-14 1 0
1.66044e-14 1 0
1.34575e-14 1 0
-2.14739e-15 1 0
-1.47241e-14 1 0
3.81916e-15 1 0
2.46317e-14 1 0
-1.47241e-14 1 0
1.24975e-14 1 0
2.46317e-14 1 0
-1.55856e-14 1 0
-1.00805e-14 1 0
-3.63283e-14 1 0
1.34575e-14 1 0
2.91404e-14 1 0
-3.63283e-14 1 0
-1.94222e-14 1 0
2.91404e-14 1 0
2.69693e-14 1 0
-8.36376e-14 1 0
-5.70029e-14 1 0
7.65605e-14 1 0
5.95586e-14 1 0
-5.70029e-14 1 0
-5.63419e-14 1 0
5.95586e-14 1 0
5.456e-14 1 0
-6.60945e-14 1 0
-6.17038e-14 1 0
5.85971e-14 1 0
5.58193e-14 1 0
-6.17038e-14 1 0
-6.33898e-14 1 0
5.58193e-14 1 0
5.51225e-14 1 0
-5.63419e-14 1 0
-2.27511e-14 1 0
5.456e-14 1 0
2.25013e-14 1 0
-2.27511e-14 1 0
-4.21321e-14 1 0
2.25013e-14 1 0
4.36235e-14 1 0
-6.33898e-14 1 0
-3.81497e-14 1 0
5.51225e-14 1 0
4.4886e-14 1 0
-3.81497e-14 1 0
-3.52301e-14 1 0
4.4886e-14 1 0
2.38176e-14 1 0
-7.99508e-14 1 0
-8.83001e-14 1 0
8.14604e-14 1 0
8.43912e-14 1 0
-8.83001e-14 1 0
-6.35189e-14 1 0
8.43912e-14 1 0
4.95418e-14 1 0
-7.61915e-14 1 0
-7.53093e-14 1 0
4.92648e-14 1 0
4.53042e-14 1 0
-7.53093e-14 1 0
-4.77556e-14 1 0
4.53042e-14 1 0
2.25319e-14 1 0
-6.35189e-14 1 0
-4.18087e-14 1 0
4.95418e-14 1 0
4.0049e-14 1 0
-4.18087e-14 1 0
-1.82151e-14 1 0
4.0049e-14 1 0
2.86326e-14 1 0
-4.77556e-14 1 0
-2.99662e-14 1 0
2.25319e-14 1 0
3.43255e-14 1 0
-2.99662e-14 1 0
-2.52842e-14 1 0
3.43255e-14 1 0
2.45099e-14 1 0
-4.21321e-14 1 0
-4.65064e-14 1 0
4.36235e-14 1 0
4.81062e-14 1 0
-4.65064e-14 1 0
-3.77765e-14 1 0
4.81062e-14 1 0
4.04478e-14 1 0
-3.52301e-14 1 0
-2.66347e-14 1 0
2.38176e-14 1 0
2.39285e-14 1 0
-2.66347e-14 1 0
-3.7098e-14 1 0
2.39285e-14 1 0
4.01479e-14 1 0
-3.77765e-14 1 0
-3.81091e-14 1 0
4.04478e-14 1 0
3.62073e-14 1 0
-3.81091e-14 1 0
-4.5751e-14 1 0
3.62073e-14 1 0
4.76475e-14 1 0
-3.7098e-14 1 0
-1.17539e-14 1 0
4.01479e-14 1 0
2.11482e-14 1 0
-1.17539e-14 1 0
-3.35441e-14 1 0
2.11482e-14 1 0
4.29066e-14 1 0
-1.82151e-14 1 0
-2.71647e-14 1 0
2.86326e-14 1 0
2.99151e-14 1 0
-2.71647e-14 1 0
-3.07597e-14 1 0
2.99151e-14 1 0
2.21904e-14 1 0
-2.52842e-14 1 0
-4.11571e-14 1 0
2.45099e-14 1 0
5.15273e-14 1 0
-4.11571e-14 1 0
-1.32705e-14 1 0
5.15273e-14 1 0
1.74637e-14 1 0
-3.07597e-14 1 0
-5.33728e-14 1 0
2.21904e-14 1 0
5.74744e-14 1 0
-5.33728e-14 1 0
-5.81636e-14 1 0
5.74744e-14 1 0
5.17083e-14 1 0
-1.32705e-14 1 0
-2.74861e-14 1 0
1.74637e-14 1 0
2.83775e-14 1 0
-2.74861e-14 1 0
-1.04553e-14 1 0
2.83775e-14 1 0
1.3344e-14 1 0
-2.92798e-14 1 0
-2.87831e-14 1 0
4.49591e-14 1.00001 0
3.20158e-14 1.00001 0
-2.87831e-14 1 0
-4.82873e-14 1 0
3.20158e-14 1.00001 0
5.12517e-14 1.00001 0
-9.26587e-14 1.00001 0
-6.28831e-14 1.00001 0
1.06254e-13 1 0
8.05281e-14 1 0
-6.28831e-14 1.00001 0
-2.08074e-14 1.00001 0
8.05281e-14 1 0
1.68873e-14 1 0
-4.82873e-14 1 0
-6.22033e-14 1 0
5.12517e-14 1.00001 0
6.30054e-14 1.00001 0
-6.22033e-14 1 0
-4.95473e-14 1 0
6.30054e-14 1.00001 0
7.17286e-14 1.00001 0
-2.08074e-14 1.00001 0
1.46424e-14 1.00001 0
1.68873e-14 1 0
-1.91703e-14 1 0
1.46424e-14 1.00001 0
-3.68421e-14 1.00001 0
-1.91703e-14 1 0
3.13608e-14 1 0
-8.08587e-14 1 0
-3.30924e-14 1 0
7.93994e-14 1 0
2.51315e-14 1 0
-3.30924e-14 1 0
-1.97764e-14 1 0
2.51315e-14 1 0
4.73742e-14 1 0
-5.21371e-14 1 0
-2.50521e-15 1 0
6.0947e-14 1 0
3.94889e-15 1 0
-2.50521e-15 1 0
-7.92017e-14 1 0
3.94889e-15 1 0
7.90823e-14 1 0
-1.97764e-14 1 0
1.16809e-14 1 0
4.73742e-14 1 0
-7.48873e-15 1 0
1.16809e-14 1 0
-3.36948e-14 1 0
-7.48873e-15 1 0
2.69065e-14 1 0
-7.92017e-14 1 0
-1.59802e-14 1 0
7.90823e-14 1 0
3.0845e-14 1 0
-1.59802e-14 1 0
-2.8204e-14 1 0
3.0845e-14 1 0
2.51274e-14 1 0
-4.95473e-14 1 0
-2.85544e-14 1 0
7.17286e-14 1.00001 0
3.78426e-14 1.00001 0
-2.85544e-14 1 0
-2.16273e-14 1 0
3.78426e-14 1.00001 0
4.62163e-14 1.00001 0
-3.68421e-14 1.00001 0
-2.41673e-14 1.00001 0
3.13608e-14 1 0
2.17146e-14 1 0
-2.41673e-14 1.00001 0
-8.74057e-14 1.00001 0
2.17146e-14 1 0
9.17967e-14 1 0
-2.16273e-14 1 0
-1.52864e-14 1 0
4.62163e-14 1.00001 0
3.8528e-14 1.00001 0
-1.52864e-14 1 0
-7.04133e-15 1 0
3.8528e-14 1.00001 0
3.38699e-15 1.00001 0
-8.74057e-14 1.00001 0
-8.95096e-14 1.00001 0
9.17967e-14 1 0
9.21307e-14 1 0
-8.95096e-14 1.00001 0
-2.44644e-14 1.00001 0
9.21307e-14 1 0
4.61441e-14 1 0
-3.36948e-14 1 0
-4.09151e-14 1 0
2.69065e-14 1 0
5.90724e-14 1 0
-4.09151e-14 1 0
-6.91661e-14 1 0
5.90724e-14 1 0
7.09048e-14 1 0
-2.8204e-14 1 0
-4.58311e-14 1 0
2.51274e-14 1 0
2.94574e-14 1 0
-4.58311e-14 1 0
-5.04524e-14 1 0
2.94574e-14 1 0
4.40086e-14 1 0
-6.91661e-14 1 0
-4.76569e-14 1 0
7.09048e-14 1 0
3.36637e-14 1 0
-4.76569e-14 1 0
-6.36557e-14 1 0
3.36637e-14 1 0
9.18082e-14 1 0
-5.04524e-14 1 0
-2.31302e-14 1 0
4.40086e-14 1 0
3.46901e-14 1 0
-2.31302e-14 1 0
-1.23538e-13 1 0
3.46901e-14 1 0
9.47105e-14 1 0
-6.03291e-14 1 0
-9.19373e-15 1 0
3.86357e-14 1 0
-1.71782e-15 1 0
-9.19373e-15 1 0
-4.96236e-14 1 0
-1.71782e-15 1 0
4.63187e-14 1 0
-4.15996e-14 1 0
2.76781e-16 1 0
5.90653e-14 1 0
2.5609e-15 1 0
2.76781e-16 1 0
-5.73313e-14 1 0
2.5609e-15 1 0
5.27182e-14 1 0
-4.96236e-14 1 0
-4.03182e-14 1 0
4.63187e-14 1 0
5.04576e-14 1 0
-4.03182e-14 1 0
-1.31323e-14 1 0
5.04576e-14 1 0
1.95418e-14 1 0
-5.73313e-14 1 0
-5.12243e-14 1 0
5.27182e-14 1 0
4.2643e-14 1 0
-5.12243e-14 1 0
-2.30811e-15 1 0
4.2643e-14 1 0
2.90055e-15 1 0
-7.01413e-14 1 0
-1.77167e-15 1 0
6.57946e-14 1 0
1.77281e-14 1 0
-1.77167e-15 1 0
-4.60924e-14 1 0
1.77281e-14 1 0
6.69442e-14 1 0
-4.0346e-14 1 0
-3.19117e-16 1 0
3.74594e-14 1 0
-1.79855e-14 1 0
-3.19117e-16 1 0
-3.70229e-14 1 0
-1.79855e-14 1 0
1.32182e-14 1 0
-4.60924e-14 1 0
-2.69061e-14 1 0