# vtk DataFile Version 3.0
#This file was generated by the deal.II library on 2018/10/14 at 18:33:16
ASCII
DATASET UNSTRUCTURED_GRID

POINTS 20480 double
0 0 0
0.19635 0 0
0 0.311121 0
0.19635 0.311121 0
0.19635 0 0
0.392699 0 0
0.19635 0.311121 0
0.392699 0.311121 0
0 0.311121 0
0.19635 0.311121 0
0 0.62369 0
0.19635 0.62369 0
0.19635 0.311121 0
0.392699 0.311121 0
0.19635 0.62369 0
0.392699 0.62369 0
0.392699 0 0
0.589049 0 0
0.392699 0.311121 0
0.589049 0.311121 0
0.589049 0 0
0.785398 0 0
0.589049 0.311121 0
0.785398 0.311121 0
0.392699 0.311121 0
0.589049 0.311121 0
0.392699 0.62369 0
0.589049 0.62369 0
0.589049 0.311121 0
0.785398 0.311121 0
0.589049 0.62369 0
0.785398 0.62369 0
0 0.62369 0
0.19635 0.62369 0
0 0.9362 0
0.19635 0.9362 0
0.19635 0.62369 0
0.392699 0.62369 0
0.19635 0.9362 0
0.392699 0.9362 0
0 0.9362 0
0.19635 0.9362 0
0 1.24876 0
0.19635 1.24876 0
0.19635 0.9362 0
0.392699 0.9362 0
0.19635 1.24876 0
0.392699 1.24876 0
0.392699 0.62369 0
0.589049 0.62369 0
0.392699 0.9362 0
0.589049 0.9362 0
0.589049 0.62369 0
0.785398 0.62369 0
0.589049 0.9362 0
0.785398 0.9362 0
0.392699 0.9362 0
0.589049 0.9362 0
0.392699 1.24876 0
0.589049 1.24876 0
0.589049 0.9362 0
0.785398 0.9362 0
0.589049 1.24876 0
0.785398 1.24876 0
0.785398 0 0
0.981748 0 0
0.785398 0.311121 0
0.981748 0.311121 0
0.981748 0 0
1.1781 0 0
0.981748 0.311121 0
1.1781 0.311121 0
0.785398 0.311121 0
0.981748 0.311121 0
0.785398 0.62369 0
0.981748 0.62369 0
0.981748 0.311121 0
1.1781 0.311121 0
0.981748 0.62369 0
1.1781 0.62369 0
1.1781 0 0
1.37445 0 0
1.1781 0.311121 0
1.37445 0.311121 0
1.37445 0 0
1.5708 0 0
1.37445 0.311121 0
1.5708 0.311121 0
1.1781 0.311121 0
1.37445 0.311121 0
1.1781 0.62369 0
1.37445 0.62369 0
1.37445 0.311121 0
1.5708 0.311121 0
1.37445 0.62369 0
1.5708 0.62369 0
0.785398 0.62369 0
0.981748 0.62369 0
0.785398 0.9362 0
0.981748 0.9362 0
0.981748 0.62369 0
1.1781 0.62369 0
0.981748 0.9362 0
1.1781 0.9362 0
0.785398 0.9362 0
0.981748 0.9362 0
0.785398 1.24876 0
0.981748 1.24876 0
0.981748 0.9362 0
1.1781 0.9362 0
0.981748 1.24876 0
1.1781 1.24876 0
1.1781 0.62369 0
1.37445 0.62369 0
1.1781 0.9362 0
1.37445 0.9362 0
1.37445 0.62369 0
1.5708 0.62369 0
1.37445 0.9362 0
1.5708 0.9362 0
1.1781 0.9362 0
1.37445 0.9362 0
1.1781 1.24876 0
1.37445 1.24876 0
1.37445 0.9362 0
1.5708 0.9362 0
1.37445 1.24876 0
1.5708 1.24876 0
0 1.24876 0
0.19635 1.24876 0
0 1.56131 0
0.19635 1.56131 0
0.19635 1.24876 0
0.392699 1.24876 0
0.19635 1.56131 0
0.392699 1.56131 0
0 1.56131 0
0.19635 1.56131 0
0 1.87386 0
0.19635 1.87386 0
0.19635 1.56131 0
0.392699 1.56131 0
0.19635 1.87386 0
0.392699 1.87386 0
0.392699 1.24876 0
0.589049 1.24876 0
0.392699 1.56131 0
0.589049 1.56131 0
0.589049 1.24876 0
0.785398 1.24876 0
0.589049 1.56131 0
0.785398 1.56131 0
0.392699 1.56131 0
0.589049 1.56131 0
0.392699 1.87386 0
0.589049 1.87386 0
0.589049 1.56131 0
0.785398 1.56131 0
0.589049 1.87386 0
0.785398 1.87386 0
0 1.87386 0
0.19635 1.87386 0
0 2.18641 0
0.19635 2.18641 0
0.19635 1.87386 0
0.392699 1.87386 0
0.19635 2.18641 0
0.392699 2.18641 0
0 2.18641 0
0.19635 2.18641 0
0 2.49895 0
0.19635 2.49895 0
0.19635 2.18641 0
0.392699 2.18641 0
0.19635 2.49895 0
0.392699 2.49895 0
0.392699 1.87386 0
0.589049 1.87386 0
0.392699 2.18641 0
0.589049 2.18641 0
0.589049 1.87386 0
0.785398 1.87386 0
0.589049 2.18641 0
0.785398 2.18641 0
0.392699 2.18641 0
0.589049 2.18641 0
0.392699 2.49895 0
0.589049 2.49895 0
0.589049 2.18641 0
0.785398 2.18641 0
0.589049 2.49895 0
0.785398 2.49895 0
0.785398 1.24876 0
0.981748 1.24876 0
0.785398 1.56131 0
0.981748 1.56131 0
0.981748 1.24876 0
1.1781 1.24876 0
0.981748 1.56131 0
1.1781 1.56131 0
0.785398 1.56131 0
0.981748 1.56131 0
0.785398 1.87386 0
0.981748 1.87386 0
0.981748 1.56131 0
1.1781 1.56131 0
0.981748 1.87386 0
1.1781 1.87386 0
1.1781 1.24876 0
1.37445 1.24876 0
1.1781 1.56131 0
1.37445 1.56131 0
1.37445 1.24876 0
1.5708 1.24876 0
1.37445 1.56131 0
1.5708 1.56131 0
1.1781 1.56131 0
1.37445 1.56131 0
1.1781 1.87386 0
1.37445 1.87386 0
1.37445 1.56131 0
1.5708 1.56131 0
1.37445 1.87386 0
1.5708 1.87386 0
0.785398 1.87386 0
0.981748 1.87386 0
0.785398 2.18641 0
0.981748 2.18641 0
0.981748 1.87386 0
1.1781 1.87386 0
0.981748 2.18641 0
1.1781 2.18641 0
0.785398 2.18641 0
0.981748 2.18641 0
0.785398 2.49895 0
0.981748 2.49895 0
0.981748 2.18641 0
1.1781 2.18641 0
0.981748 2.49895 0
1.1781 2.49895 0
1.1781 1.87386 0
1.37445 1.87386 0
1.1781 2.18641 0
1.37445 2.18641 0
1.37445 1.87386 0
1.5708 1.87386 0
1.37445 2.18641 0
1.5708 2.18641 0
1.1781 2.18641 0
1.37445 2.18641 0
1.1781 2.49895 0
1.37445 2.49895 0
1.37445 2.18641 0
1.5708 2.18641 0
1.37445 2.49895 0
1.5708 2.49895 0
1.5708 0 0
1.76715 0 0
1.5708 0.311121 0
1.76715 0.311121 0
1.76715 0 0
1.9635 0 0
1.76715 0.311121 0
1.9635 0.311121 0
1.5708 0.311121 0
1.76715 0.311121 0
1.5708 0.62369 0
1.76715 0.62369 0
1.76715 0.311121 0
1.9635 0.311121 0
1.76715 0.62369 0
1.9635 0.62369 0
1.9635 0 0
2.15984 0 0
1.9635 0.311121 0
2.15984 0.311121 0
2.15984 0 0
2.35619 0 0
2.15984 0.311121 0
2.35619 0.311121 0
1.9635 0.311121 0
2.15984 0.311121 0
1.9635 0.62369 0
2.15984 0.62369 0
2.15984 0.311121 0
2.35619 0.311121 0
2.15984 0.62369 0
2.35619 0.62369 0
1.5708 0.62369 0
1.76715 0.62369 0
1.5708 0.9362 0
1.76715 0.9362 0
1.76715 0.62369 0
1.9635 0.62369 0
1.76715 0.9362 0
1.9635 0.9362 0
1.5708 0.9362 0
1.76715 0.9362 0
1.5708 1.24876 0
1.76715 1.24876 0
1.76715 0.9362 0
1.9635 0.9362 0
1.76715 1.24876 0
1.9635 1.24876 0
1.9635 0.62369 0
2.15984 0.62369 0
1.9635 0.9362 0
2.15984 0.9362 0
2.15984 0.62369 0
2.35619 0.62369 0
2.15984 0.9362 0
2.35619 0.9362 0
1.9635 0.9362 0
2.15984 0.9362 0
1.9635 1.24876 0
2.15984 1.24876 0
2.15984 0.9362 0
2.35619 0.9362 0
2.15984 1.24876 0
2.35619 1.24876 0
2.35619 0 0
2.55254 0 0
2.35619 0.311121 0
2.55254 0.311121 0
2.55254 0 0
2.74889 0 0
2.55254 0.311121 0
2.74889 0.311121 0
2.35619 0.311121 0
2.55254 0.311121 0
2.35619 0.62369 0
2.55254 0.62369 0
2.55254 0.311121 0
2.74889 0.311121 0
2.55254 0.62369 0
2.74889 0.62369 0
2.74889 0 0
2.94524 0 0
2.74889 0.311121 0
2.94524 0.311121 0
2.94524 0 0
3.14159 0 0
2.94524 0.311121 0
3.14159 0.311121 0
2.74889 0.311121 0
2.94524 0.311121 0
2.74889 0.62369 0
2.94524 0.62369 0
2.94524 0.311121 0
3.14159 0.311121 0
2.94524 0.62369 0
3.14159 0.62369 0
2.35619 0.62369 0
2.55254 0.62369 0
2.35619 0.9362 0
2.55254 0.9362 0
2.55254 0.62369 0
2.74889 0.62369 0
2.55254 0.9362 0
2.74889 0.9362 0
2.35619 0.9362 0
2.55254 0.9362 0
2.35619 1.24876 0
2.55254 1.24876 0
2.55254 0.9362 0
2.74889 0.9362 0
2.55254 1.24876 0
2.74889 1.24876 0
2.74889 0.62369 0
2.94524 0.62369 0
2.74889 0.9362 0
2.94524 0.9362 0
2.94524 0.62369 0
3.14159 0.62369 0
2.94524 0.9362 0
3.14159 0.9362 0
2.74889 0.9362 0
2.94524 0.9362 0
2.74889 1.24876 0
2.94524 1.24876 0
2.94524 0.9362 0
3.14159 0.9362 0
2.94524 1.24876 0
3.14159 1.24876 0
1.5708 1.24876 0
1.76715 1.24876 0
1.5708 1.56131 0
1.76715 1.56131 0
1.76715 1.24876 0
1.9635 1.24876 0
1.76715 1.56131 0
1.9635 1.56131 0
1.5708 1.56131 0
1.76715 1.56131 0
1.5708 1.87386 0
1.76715 1.87386 0
1.76715 1.56131 0
1.9635 1.56131 0
1.76715 1.87386 0
1.9635 1.87386 0
1.9635 1.24876 0
2.15984 1.24876 0
1.9635 1.56131 0
2.15984 1.56131 0
2.15984 1.24876 0
2.35619 1.24876 0
2.15984 1.56131 0
2.35619 1.56131 0
1.9635 1.56131 0
2.15984 1.56131 0
1.9635 1.87386 0
2.15984 1.87386 0
2.15984 1.56131 0
2.35619 1.56131 0
2.15984 1.87386 0
2.35619 1.87386 0
1.5708 1.87386 0
1.76715 1.87386 0
1.5708 2.18641 0
1.76715 2.18641 0
1.76715 1.87386 0
1.9635 1.87386 0
1.76715 2.18641 0
1.9635 2.18641 0
1.5708 2.18641 0
1.76715 2.18641 0
1.5708 2.49895 0
1.76715 2.49895 0
1.76715 2.18641 0
1.9635 2.18641 0
1.76715 2.49895 0
1.9635 2.49895 0
1.9635 1.87386 0
2.15984 1.87386 0
1.9635 2.18641 0
2.15984 2.18641 0
2.15984 1.87386 0
2.35619 1.87386 0
2.15984 2.18641 0
2.35619 2.18641 0
1.9635 2.18641 0
2.15984 2.18641 0
1.9635 2.49895 0
2.15984 2.49895 0
2.15984 2.18641 0
2.35619 2.18641 0
2.15984 2.49895 0
2.35619 2.49895 0
2.35619 1.24876 0
2.55254 1.24876 0
2.35619 1.56131 0
2.55254 1.56131 0
2.55254 1.24876 0
2.74889 1.24876 0
2.55254 1.56131 0
2.74889 1.56131 0
2.35619 1.56131 0
2.55254 1.56131 0
2.35619 1.87386 0
2.55254 1.87386 0
2.55254 1.56131 0
2.74889 1.56131 0
2.55254 1.87386 0
2.74889 1.87386 0
2.74889 1.24876 0
2.94524 1.24876 0
2.74889 1.56131 0
2.94524 1.56131 0
2.94524 1.24876 0
3.14159 1.24876 0
2.94524 1.56131 0
3.14159 1.56131 0
2.74889 1.56131 0
2.94524 1.56131 0
2.74889 1.87386 0
2.94524 1.87386 0
2.94524 1.56131 0
3.14159 1.56131 0
2.94524 1.87386 0
3.14159 1.87386 0
2.35619 1.87386 0
2.55254 1.87386 0
2.35619 2.18641 0
2.55254 2.18641 0
2.55254 1.87386 0
2.74889 1.87386 0
2.55254 2.18641 0
2.74889 2.18641 0
2.35619 2.18641 0
2.55254 2.18641 0
2.35619 2.49895 0
2.55254 2.49895 0
2.55254 2.18641 0
2.74889 2.18641 0
2.55254 2.49895 0
2.74889 2.49895 0
2.74889 1.87386 0
2.94524 1.87386 0
2.74889 2.18641 0
2.94524 2.18641 0
2.94524 1.87386 0
3.14159 1.87386 0
2.94524 2.18641 0
3.14159 2.18641 0
2.74889 2.18641 0
2.94524 2.18641 0
2.74889 2.49895 0
2.94524 2.49895 0
2.94524 2.18641 0
3.14159 2.18641 0
2.94524 2.49895 0
3.14159 2.49895 0
0 2.49895 0
0.19635 2.49895 0
0 2.8115 0
0.19635 2.8115 0
0.19635 2.49895 0
0.392699 2.49895 0
0.19635 2.8115 0
0.392699 2.8115 0
0 2.8115 0
0.19635 2.8115 0
0 3.12405 0
0.19635 3.12405 0
0.19635 2.8115 0
0.392699 2.8115 0
0.19635 3.12405 0
0.392699 3.12405 0
0.392699 2.49895 0
0.589049 2.49895 0
0.392699 2.8115 0
0.589049 2.8115 0
0.589049 2.49895 0
0.785398 2.49895 0
0.589049 2.8115 0
0.785398 2.8115 0
0.392699 2.8115 0
0.589049 2.8115 0
0.392699 3.12405 0
0.589049 3.12405 0
0.589049 2.8115 0
0.785398 2.8115 0
0.589049 3.12405 0
0.785398 3.12405 0
0 3.12405 0
0.19635 3.12405 0
0 3.43659 0
0.19635 3.43659 0
0.19635 3.12405 0
0.392699 3.12405 0
0.19635 3.43659 0
0.392699 3.43659 0
0 3.43659 0
0.19635 3.43659 0
0 3.74914 0
0.19635 3.74914 0
0.19635 3.43659 0
0.392699 3.43659 0
0.19635 3.74914 0
0.392699 3.74914 0
0.392699 3.12405 0
0.589049 3.12405 0
0.392699 3.43659 0
[...]
POINT_DATA 20480
VECTORS uf double
0 1 0
-3.21058e-14 1 0
0 1.00001 0
3.94599e-14 1.00001 0
-3.21058e-14 1 0
-2.63239e-14 1 0
3.94599e-14 1.00001 0
3.32487e-14 1.00001 0
0 1.00001 0
-5.98946e-15 1.00001 0
0 1 0
-7.59313e-15 1 0
-5.98946e-15 1.00001 0
-4.64005e-15 1.00001 0
-7.59313e-15 1 0
-3.40802e-15 1 0
-2.63239e-14 1 0
-3.10138e-14 1 0
3.32487e-14 1.00001 0
4.26678e-14 1.00001 0
-3.10138e-14 1 0
-2.18603e-14 1 0
4.26678e-14 1.00001 0
1.6834e-14 1.00001 0
-4.64005e-15 1.00001 0
-3.42159e-14 1.00001 0
-3.40802e-15 1 0
2.91937e-14 1 0
-3.42159e-14 1.00001 0
-1.93981e-14 1.00001 0
2.91937e-14 1 0
3.3529e-14 1 0
0 1 0
-3.96347e-15 1 0
0 1 0
1.32222e-14 1 0
-3.96347e-15 1 0
-1.75508e-14 1 0
1.32222e-14 1 0
3.47355e-14 1 0
0 1 0
-2.68408e-14 1 0
0 1 0
2.94917e-14 1 0
-2.68408e-14 1 0
-7.10322e-14 1 0
2.94917e-14 1 0
6.80669e-14 1 0
-1.75508e-14 1 0
-2.22167e-14 1 0
3.47355e-14 1 0
2.73552e-14 1 0
-2.22167e-14 1 0
-2.69188e-14 1 0
2.73552e-14 1 0
2.58566e-14 1 0
-7.10322e-14 1 0
-4.45038e-14 1 0
6.80669e-14 1 0
3.97172e-14 1 0
-4.45038e-14 1 0
-2.86047e-14 1 0
3.97172e-14 1 0
3.29167e-14 1 0
-2.18603e-14 1 0
-3.66353e-14 1 0
1.6834e-14 1.00001 0
3.21015e-14 1.00001 0
-3.66353e-14 1 0
-5.60966e-14 1 0
3.21015e-14 1.00001 0
7.01329e-14 1.00001 0
-1.93981e-14 1.00001 0
-3.33844e-14 1.00001 0
3.3529e-14 1 0
6.00529e-14 1 0
-3.33844e-14 1.00001 0
-5.20791e-14 1.00001 0
6.00529e-14 1 0
4.80943e-14 1 0
-5.60966e-14 1 0
-5.45799e-14 1 0
7.01329e-14 1.00001 0
6.95651e-14 1.00001 0
-5.45799e-14 1 0
-4.10853e-14 1 0
6.95651e-14 1.00001 0
4.14133e-14 1.00001 0
-5.20791e-14 1.00001 0
-4.85901e-14 1.00001 0
4.80943e-14 1 0
4.07421e-14 1 0
-4.85901e-14 1.00001 0
-1.99611e-14 1.00001 0
4.07421e-14 1 0
2.47785e-14 1 0
-2.69188e-14 1 0
-7.01887e-14 1 0
2.58566e-14 1 0
6.33152e-14 1 0
-7.01887e-14 1 0
-3.87466e-14 1 0
6.33152e-14 1 0
4.19468e-14 1 0
-2.86047e-14 1 0
-5.16036e-14 1 0
3.29167e-14 1 0
5.25942e-14 1 0
-5.16036e-14 1 0
-5.52026e-14 1 0
5.25942e-14 1 0
6.54777e-14 1 0
-3.87466e-14 1 0
-2.92524e-14 1 0
4.19468e-14 1 0
2.45563e-14 1 0
-2.92524e-14 1 0
-4.36619e-14 1 0
2.45563e-14 1 0
4.48534e-14 1 0
-5.52026e-14 1 0
-2.47791e-14 1 0
6.54777e-14 1 0
3.02434e-14 1 0
-2.47791e-14 1 0
-1.42897e-14 1 0
3.02434e-14 1 0
1.00837e-14 1 0
0 1 0
-2.61027e-14 1 0
0 1 0
2.41931e-14 1 0
-2.61027e-14 1 0
-2.08646e-14 1 0
2.41931e-14 1 0
1.51467e-14 1 0
0 1 0
1.38613e-14 1 0
0 1 0
-1.33104e-14 1 0
1.38613e-14 1 0
-2.60779e-14 1 0
-1.33104e-14 1 0
2.59872e-14 1 0
-2.08646e-14 1 0
-8.05917e-15 1 0
1.51467e-14 1 0
1.62761e-14 1 0
-8.05917e-15 1 0
-6.31742e-14 1 0
1.62761e-14 1 0
8.14745e-14 1 0
-2.60779e-14 1 0
-4.62666e-14 1 0
2.59872e-14 1 0
5.6863e-14 1 0
-4.62666e-14 1 0
-8.41263e-14 1 0
5.6863e-14 1 0
8.54127e-14 1 0
0 1 0
-1.64745e-14 1 0
0 1 0
2.52067e-14 1 0
-1.64745e-14 1 0
-1.68804e-14 1 0
2.52067e-14 1 0
2.58351e-14 1 0
0 1 0
-2.7721e-14 1 0
0 1 0
2.42699e-14 1 0
-2.7721e-14 1 0
-4.18556e-14 1 0
2.42699e-14 1 0
3.89878e-14 1 0
-1.68804e-14 1 0
-4.12363e-14 1 0
2.58351e-14 1 0
3.22481e-14 1 0
-4.12363e-14 1 0
-5.515e-14 1 0
3.22481e-14 1 0
4.24254e-14 1 0
-4.18556e-14 1 0
-2.71908e-14 1 0
3.89878e-14 1 0
1.07709e-14 1 0
-2.71908e-14 1 0
-4.79439e-14 1 0
1.07709e-14 1 0
4.44452e-14 1 0
-6.31742e-14 1 0
-4.14714e-14 1 0
8.14745e-14 1 0
3.20711e-14 1 0
-4.14714e-14 1 0
-3.78462e-14 1 0
3.20711e-14 1 0
2.85656e-14 1 0
-8.41263e-14 1 0
-3.48433e-14 1 0
8.54127e-14 1 0
5.18761e-14 1 0
-3.48433e-14 1 0
-6.19811e-14 1 0
5.18761e-14 1 0
7.47224e-14 1 0
-3.78462e-14 1 0
-2.00718e-14 1 0
2.85656e-14 1 0
1.62918e-14 1 0
-2.00718e-14 1 0
-1.53668e-14 1 0
1.62918e-14 1 0
2.81516e-14 1 0
-6.19811e-14 1 0
-1.18747e-14 1 0
7.47224e-14 1 0
1.97059e-14 1 0
-1.18747e-14 1 0
-2.80241e-14 1 0
1.97059e-14 1 0
2.03515e-14 1 0
-5.515e-14 1 0
-4.1441e-14 1 0
4.24254e-14 1 0
4.82822e-14 1 0
-4.1441e-14 1 0
-4.59343e-14 1 0
4.82822e-14 1 0
3.82859e-14 1 0
-4.79439e-14 1 0
-8.92525e-14 1 0
4.44452e-14 1 0
8.09733e-14 1 0
-8.92525e-14 1 0
-6.48378e-14 1 0
8.09733e-14 1 0
7.20625e-14 1 0
-4.59343e-14 1 0
-2.8589e-14 1 0
3.82859e-14 1 0
2.95434e-14 1 0
-2.8589e-14 1 0
-2.51342e-14 1 0
2.95434e-14 1 0
3.3385e-14 1 0
-6.48378e-14 1 0
-4.29417e-14 1 0
7.20625e-14 1 0
4.26788e-14 1 0
-4.29417e-14 1 0
-4.37621e-14 1 0
4.26788e-14 1 0
5.28014e-14 1 0
-4.10853e-14 1 0
-7.08587e-14 1 0
4.14133e-14 1.00001 0
8.96125e-14 1.00001 0
-7.08587e-14 1 0
-5.10907e-14 1 0
8.96125e-14 1.00001 0
6.22045e-14 1.00001 0
-1.99611e-14 1.00001 0
-6.03463e-14 1.00001 0
2.47785e-14 1 0
5.77105e-14 1 0
-6.03463e-14 1.00001 0
-3.48036e-14 1.00001 0
5.77105e-14 1 0
2.97281e-14 1 0
-5.10907e-14 1 0
-2.71748e-14 1 0
6.22045e-14 1.00001 0
3.19783e-14 1.00001 0
-2.71748e-14 1 0
-2.10686e-14 1 0
3.19783e-14 1.00001 0
2.80963e-14 1.00001 0
-3.48036e-14 1.00001 0
-4.38093e-14 1.00001 0
2.97281e-14 1 0
4.14818e-14 1 0
-4.38093e-14 1.00001 0
-2.75484e-14 1.00001 0
4.14818e-14 1 0
8.87332e-15 1 0
-4.36619e-14 1 0
-6.41576e-14 1 0
4.48534e-14 1 0
6.63682e-14 1 0
-6.41576e-14 1 0
-2.40465e-14 1 0
6.63682e-14 1 0
2.73887e-14 1 0
-1.42897e-14 1 0
-6.04365e-14 1 0
1.00837e-14 1 0
5.98182e-14 1 0
-6.04365e-14 1 0
-4.43526e-14 1 0
5.98182e-14 1 0
4.22715e-14 1 0
-2.40465e-14 1 0
-6.60569e-15 1 0
2.73887e-14 1 0
6.09272e-15 1 0
-6.60569e-15 1 0
2.38706e-14 1 0
6.09272e-15 1 0
-1.61053e-14 1 0
-4.43526e-14 1 0
-4.07088e-14 1 0
4.22715e-14 1 0
5.60669e-14 1 0
-4.07088e-14 1 0
2.12008e-15 1 0
5.60669e-14 1 0
4.88164e-15 1 0
-2.10686e-14 1 0
-2.2589e-14 1 0
2.80963e-14 1.00001 0
2.11118e-14 1.00001 0
-2.2589e-14 1 0
-5.00367e-14 1 0
2.11118e-14 1.00001 0
6.47686e-14 1.00001 0
-2.75484e-14 1.00001 0
-7.18419e-15 1.00001 0
8.87332e-15 1 0
1.00087e-14 1 0
-7.18419e-15 1.00001 0
-4.25219e-14 1.00001 0
1.00087e-14 1 0
3.88678e-14 1 0
-5.00367e-14 1 0
-1.6054e-14 1 0
6.47686e-14 1.00001 0
2.75142e-14 1.00001 0
-1.6054e-14 1 0
-1.71937e-14 1 0
2.75142e-14 1.00001 0
3.71233e-14 1.00001 0
-4.25219e-14 1.00001 0
-5.34941e-14 1.00001 0
3.88678e-14 1 0
5.57749e-14 1 0
-5.34941e-14 1.00001 0
-8.66624e-14 1.00001 0
5.57749e-14 1 0
9.30114e-14 1 0
2.38706e-14 1 0
-1.0634e-14 1 0
-1.61053e-14 1 0
6.22449e-15 1 0
-1.0634e-14 1 0
-4.24097e-14 1 0
6.22449e-15 1 0
4.7035e-14 1 0
2.12008e-15 1 0
2.50672e-14 1 0
4.88164e-15 1 0
-2.14512e-14 1 0
2.50672e-14 1 0
-4.16016e-14 1 0
-2.14512e-14 1 0
5.58375e-14 1 0
-4.24097e-14 1 0
-4.79053e-14 1 0
4.7035e-14 1 0
5.36492e-14 1 0
-4.79053e-14 1 0
-6.97409e-14 1 0
5.36492e-14 1 0
6.86371e-14 1 0
-4.16016e-14 1 0
-5.56463e-14 1 0
5.58375e-14 1 0
7.10602e-14 1 0
-5.56463e-14 1 0
-3.16583e-14 1 0
7.10602e-14 1 0
3.02822e-14 1 0
-1.53668e-14 1 0
-4.64681e-14 1 0
2.81516e-14 1 0
4.85542e-14 1 0
-4.64681e-14 1 0
-2.46914e-14 1 0
4.85542e-14 1 0
4.25731e-14 1 0
-2.80241e-14 1 0
-4.77204e-14 1 0
2.03515e-14 1 0
4.77665e-14 1 0
-4.77204e-14 1 0
-6.30629e-14 1 0
4.77665e-14 1 0
5.8477e-14 1 0
-2.46914e-14 1 0
-3.61194e-14 1 0
4.25731e-14 1 0
4.34798e-14 1 0
-3.61194e-14 1 0
2.26615e-15 1 0
4.34798e-14 1 0
1.55401e-14 1 0
-6.30629e-14 1 0
-5.59075e-14 1 0
5.8477e-14 1 0
5.32294e-14 1 0
-5.59075e-14 1 0
-2.83522e-14 1 0
5.32294e-14 1 0
2.50803e-14 1 0
-2.51342e-14 1 0
-4.46433e-14 1 0
3.3385e-14 1 0
4.83208e-14 1 0
-4.46433e-14 1 0
-4.61611e-14 1 0
4.83208e-14 1 0
6.14047e-14 1 0
-4.37621e-14 1 0
-3.44732e-14 1 0
5.28014e-14 1 0
3.12043e-14 1 0
-3.44732e-14 1 0
-8.61425e-14 1 0
3.12043e-14 1 0
9.05788e-14 1 0
-4.61611e-14 1 0
-6.13772e-14 1 0
6.14047e-14 1 0
7.14724e-14 1 0
-6.13772e-14 1 0
-1.51249e-14 1 0
7.14724e-14 1 0
9.25347e-15 1 0
-8.61425e-14 1 0
-4.91776e-14 1 0
9.05788e-14 1 0
4.42237e-14 1 0
-4.91776e-14 1 0
-2.34445e-15 1 0
4.42237e-14 1 0
1.0569e-14 1 0
2.26615e-15 1 0
1.04795e-14 1 0
1.55401e-14 1 0
1.7661e-15 1 0
1.04795e-14 1 0
-3.83929e-14 1 0
1.7661e-15 1 0
2.01976e-14 1 0
-2.83522e-14 1 0
-5.5925e-15 1 0
2.50803e-14 1 0
7.91339e-15 1 0
-5.5925e-15 1 0
-1.61286e-14 1 0
7.91339e-15 1 0
1.96953e-14 1 0
-3.83929e-14 1 0
-5.3276e-14 1 0
2.01976e-14 1 0
3.77599e-14 1 0
-5.3276e-14 1 0
-3.48727e-14 1 0
3.77599e-14 1 0
3.83435e-14 1 0
-1.61286e-14 1 0
-5.12356e-14 1 0
1.96953e-14 1 0
6.17325e-14 1 0
-5.12356e-14 1 0
-4.52642e-14 1 0
6.17325e-14 1 0
5.10655e-14 1 0
-1.51249e-14 1 0
-8.51901e-15 1 0
9.25347e-15 1 0
1.43843e-14 1 0
-8.51901e-15 1 0
3.55247e-15 1 0
1.43843e-14 1 0
6.14456e-15 1 0
-2.34445e-15 1 0
-3.63385e-14 1 0
1.0569e-14 1 0
3.79404e-14 1 0
-3.63385e-14 1 0
-3.83561e-14 1 0
3.79404e-14 1 0
3.08814e-14 1 0
3.55247e-15 1 0
-4.02552e-14 1 0
6.14456e-15 1 0
4.1534e-14 1 0
-4.02552e-14 1 0
-4.95121e-14 1 0
4.1534e-14 1 0
5.39483e-14 1 0
-3.83561e-14 1 0
-2.79206e-14 1 0
3.08814e-14 1 0
2.53252e-14 1 0
-2.79206e-14 1 0
-3.96486e-14 1 0
2.53252e-14 1 0
2.02276e-14 1 0
0 1 0
-3.69205e-14 1 0
0 1 0
3.5275e-14 1 0
-3.69205e-14 1 0
-4.52488e-14 1 0
3.5275e-14 1 0
4.12427e-14 1 0
0 1 0
-3.35231e-14 1 0
0 1 0
2.92502e-14 1 0
-3.35231e-14 1 0
-4.25203e-14 1 0
2.92502e-14 1 0
3.25794e-14 1 0
-4.52488e-14 1 0
1.74429e-15 1 0
4.12427e-14 1 0
2.83522e-15 1 0
1.74429e-15 1 0
-4.27401e-14 1 0
2.83522e-15 1 0
4.03437e-14 1 0
-4.25203e-14 1 0
-1.97091e-14 1 0
3.25794e-14 1 0
1.47162e-14 1 0
-1.97091e-14 1 0
-4.0098e-14 1 0
1.47162e-14 1 0
2.72326e-14 1 0
0 1 0
-1.30914e-14 1 0
0 1 0
1.16397e-14 1 0
-1.30914e-14 1 0
-3.29305e-15 1 0
1.16397e-14 1 0
1.85782e-15 1 0
0 1 0
-2.0172e-14 1 0
0 1 0
2.52884e-14 1 0
-2.0172e-14 1 0
-1.74871e-14 1 0
2.52884e-14 1 0
2.19272e-14 1 0
-3.29305e-15 1 0
-5.16526e-15 1 0
1.85782e-15 1 0
4.49367e-15 1 0
-5.16526e-15 1 0
-1.89902e-14 1 0
4.49367e-15 1 0
2.02745e-14 1 0
-1.74871e-14 1 0
-1.62379e-14 1 0
2.19272e-14 1 0
2.64408e-14 1 0
-1.62379e-14 1 0
-2.27664e-14 1 0
2.64408e-14 1 0
3.77452e-14 1 0
-4.27401e-14 1 0
-5.48395e-14 1 0
4.03437e-14 1 0
5.80733e-14 1 0
-5.48395e-14 1 0
-6.07632e-14 1 0
5.80733e-14 1 0
5.27214e-14 1 0
-4.0098e-14 1 0
-6.57157e-14 1 0
2.72326e-14 1 0
5.98537e-14 1 0
-6.57157e-14 1 0
-3.19535e-14 1 0
5.98537e-14 1 0
4.28041e-14 1 0
-6.07632e-14 1 0
-4.17927e-14 1 0
5.27214e-14 1 0
4.34685e-14 1 0
-4.17927e-14 1 0
-6.65443e-14 1 0
4.34685e-14 1 0
6.39627e-14 1 0
-3.19535e-14 1 0
-1.71361e-14 1 0
4.28041e-14 1 0
1.85353e-14 1 0
-1.71361e-14 1 0
-4.10201e-14 1 0
1.85353e-14 1 0
4.01104e-14 1 0
-1.89902e-14 1 0
-6.04175e-14 1 0
2.02745e-14 1 0
5.26581e-14 1 0
-6.04175e-14 1 0
-6.48226e-14 1 0
5.26581e-14 1 0
5.38135e-14 1 0
-2.27664e-14 1 0
-2.1083e-14 1 0
3.77452e-14 1 0
2.66866e-14 1 0
-2.1083e-14 1 0
-7.70821e-15 1 0
2.66866e-14 1 0
-3.78615e-15 1 0
-6.48226e-14 1 0
-1.0595e-14 1 0
5.38135e-14 1 0
2.49776e-14 1 0
-1.0595e-14 1 0
-2.88373e-14 1 0
2.49776e-14 1 0
4.46077e-14 1 0
-7.70821e-15 1 0
-6.81905e-14 1 0
-3.78615e-15 1 0
6.84366e-14 1 0
-6.81905e-14 1 0
-6.95402e-14 1 0
6.84366e-14 1 0
6.73916e-14 1 0
0 1 0
-3.40655e-14 1 0
0 1 0
3.52721e-14 1 0
-3.40655e-14 1 0
-2.40775e-14 1 0
3.52721e-14 1 0
2.44542e-14 1 0
0 1 0
-1.89374e-14 1 0
0 1 0
1.71213e-14 1 0
-1.89374e-14 1 0
-3.54191e-15 1 0
1.71213e-14 1 0
-3.37652e-16 1 0
-2.40775e-14 1 0
-3.15087e-14 1 0
2.44542e-14 1 0
2.89509e-14 1 0
-3.15087e-14 1 0
-6.0335e-14 1 0
2.89509e-14 1 0
6.26533e-14 1 0
-3.54191e-15 1 0
-8.82923e-15 1 0
-3.37652e-16 1 0
1.35427e-14 1 0
-8.82923e-15 1 0
-6.22153e-14 1 0
1.35427e-14 1 0
5.97623e-14 1 0
0 1 0
-2.18846e-14 1 0
0 1 0
2.47726e-14 1 0
-2.18846e-14 1 0
-1.73212e-14 1 0
2.47726e-14 1 0
2.22605e-14 1 0
0 1 0
-3.11784e-14 1 0
0 1 0
2.46159e-14 1 0
-3.11784e-14 1 0
-2.74618e-14 1 0
2.46159e-14 1 0
2.61363e-14 1 0
-1.73212e-14 1 0
-3.65919e-14 1 0
2.22605e-14 1 0
3.184e-14 1 0
-3.65919e-14 1 0
-3.89008e-14 1 0
3.184e-14 1 0
2.41147e-14 1 0
-2.74618e-14 1 0
-3.35813e-14 1 0
2.61363e-14 1 0
3.59975e-14 1 0
-3.35813e-14 1 0
-2.31564e-14 1 0
3.59975e-14 1 0
1.73656e-14 1 0
-6.0335e-14 1 0
-7.91483e-14 1 0
6.26533e-14 1 0
7.87653e-14 1 0
-7.91483e-14 1 0
-4.64656e-15 1 0
7.87653e-14 1 0
1.12461e-14 1 0
-6.22153e-14 1 0
-5.4141e-14 1 0
5.97623e-14 1 0
4.76999e-14 1 0
-5.4141e-14 1 0
-4.3422e-14 1 0
4.76999e-14 1 0
4.97004e-14 1 0
-4.64656e-15 1 0
-3.93707e-14 1 0
1.12461e-14 1 0
2.61067e-14 1 0
-3.93707e-14 1 0
-6.61531e-14 1 0
2.61067e-14 1 0
6.20887e-14 1 0
-4.3422e-14 1 0
-3.75219e-14 1 0
4.97004e-14 1 0
2.72944e-14 1 0
-3.75219e-14 1 0
-5.24926e-14 1 0
2.72944e-14 1 0
5.14699e-14 1 0
-3.89008e-14 1 0
-5.34655e-14 1 0
2.41147e-14 1 0
4.56644e-14 1 0
-5.34655e-14 1 0
-3.47791e-14 1 0
4.56644e-14 1 0
3.14959e-14 1 0
-2.31564e-14 1 0
-4.17388e-14 1 0
1.73656e-14 1 0
2.66795e-14 1 0
-4.17388e-14 1 0
-2.31401e-14 1 0
2.66795e-14 1 0
1.89403e-14 1 0
-3.47791e-14 1 0
-2.73372e-14 1 0
3.14959e-14 1 0
3.95122e-14 1 0
-2.73372e-14 1 0
-7.41111e-14 1 0
3.95122e-14 1 0
6.97811e-14 1 0
-2.31401e-14 1 0
-4.64015e-14 1 0
1.89403e-14 1 0
3.73831e-14 1 0
-4.64015e-14 1 0
-6.8963e-14 1 0
3.73831e-14 1 0
4.85006e-14 1 0
-6.65443e-14 1 0
-3.90158e-14 1 0
6.39627e-14 1 0
3.56494e-14 1 0
-3.90158e-14 1 0
-8.47552e-14 1 0
3.56494e-14 1 0
6.07855e-14 1 0
-4.10201e-14 1 0
-3.1187e-14 1 0
4.01104e-14 1 0
3.55699e-14 1 0
-3.1187e-14 1 0
-3.77121e-15 1 0
3.55699e-14 1 0
5.9267e-15 1 0
-8.47552e-14 1 0
-4.95361e-14 1 0
6.07855e-14 1 0
3.98493e-14 1 0
-4.95361e-14 1 0
-4.27556e-14 1 0
3.98493e-14 1 0
4.76772e-14 1 0
-3.77121e-15 1 0
-1.76942e-14 1 0
5.9267e-15 1 0
2.43125e-14 1 0
-1.76942e-14 1 0
-3.5925e-14 1 0
2.43125e-14 1 0
3.90987e-14 1 0
-2.88373e-14 1 0
-2.61077e-14 1 0
4.46077e-14 1 0
3.93753e-14 1 0
-2.61077e-14 1 0
-4.32949e-15 1 0
3.93753e-14 1 0
4.17489e-15 1 0
-6.95402e-14 1 0
-5.46578e-14 1 0
6.73916e-14 1 0
5.4085e-14 1 0
-5.46578e-14 1 0
-1.7071e-14 1 0
5.4085e-14 1 0
2.87745e-14 1 0
-4.32949e-15 1 0
-2.7715e-14 1 0
4.17489e-15 1 0
2.81164e-14 1 0
-2.7715e-14 1 0
-5.31086e-14 1 0
2.81164e-14 1 0
5.18651e-14 1 0
-1.7071e-14 1 0
-3.12085e-14 1 0
2.87745e-14 1 0
3.71585e-14 1 0
-3.12085e-14 1 0
-3.05804e-14 1 0
3.71585e-14 1 0
4.3027e-14 1 0
-4.27556e-14 1 0
-1.75914e-14 1 0
4.76772e-14 1 0
9.39736e-15 1 0
-1.75914e-14 1 0
1.40701e-15 1 0
9.39736e-15 1 0
-1.46276e-14 1 0
-3.5925e-14 1 0
-1.50499e-14 1 0
3.90987e-14 1 0
1.53141e-14 1 0
-1.50499e-14 1 0
2.21524e-14 1 0
1.53141e-14 1 0
-2.06764e-14 1 0
1.40701e-15 1 0
-2.67007e-14 1 0
-1.46276e-14 1 0
1.54987e-14 1 0
-2.67007e-14 1 0
-1.1854e-15 1 0
1.54987e-14 1 0
9.23337e-15 1 0
2.21524e-14 1 0
-3.90565e-17 1 0
-2.06764e-14 1 0
-1.83165e-15 1 0
-3.90565e-17 1 0
-1.49628e-15 1 0
-1.83165e-15 1 0
-1.08706e-15 1 0
-5.31086e-14 1 0
7.92574e-15 1 0
5.18651e-14 1 0
-2.92169e-15 1 0
7.92574e-15 1 0
1.54162e-14 1 0
-2.92169e-15 1 0
1.44068e-15 1 0
-3.05804e-14 1 0
1.48952e-15 1 0
4.3027e-14 1 0
3.71595e-15 1 0
1.48952e-15 1 0
-3.47785e-15 1 0
3.71595e-15 1 0
1.37749e-14 1 0
1.54162e-14 1 0
-2.62234e-15 1 0
1.44068e-15 1 0
1.95738e-14 1 0
-2.62234e-15 1 0
1.61983e-14 1 0
1.95738e-14 1 0
-4.71764e-16 1 0
-3.47785e-15 1 0
-2.2574e-14 1 0
1.37749e-14 1 0
2.35912e-14 1 0
-2.2574e-14 1 0
-3.48725e-14 1 0
2.35912e-14 1 0
3.81821e-14 1 0
-6.61531e-14 1 0
-5.26682e-14 1 0
6.20887e-14 1 0
5.48247e-14 1 0
-5.26682e-14 1 0
-4.6222e-14 1 0
5.48247e-14 1 0
4.71226e-14 1 0
-5.24926e-14 1 0
-5.78861e-14 1 0
5.14699e-14 1 0
5.51078e-14 1 0
-5.78861e-14 1 0
-5.73709e-14 1 0
5.51078e-14 1 0
4.59635e-14 1 0
-4.6222e-14 1 0
-2.56492e-14 1 0
4.71226e-14 1 0
2.25215e-14 1 0
-2.56492e-14 1 0
-5.6795e-14 1 0
2.25215e-14 1 0
5.15081e-14 1 0
-5.73709e-14 1 0
-3.37198e-14 1 0
4.59635e-14 1 0
4.04004e-14 1 0
-3.37198e-14 1 0
-3.66425e-14 1 0
4.04004e-14 1 0
2.5702e-14 1 0
-7.41111e-14 1 0
-8.38984e-14 1 0
6.97811e-14 1 0
6.40747e-14 1 0
-8.38984e-14 1 0
-5.62568e-14 1 0
6.40747e-14 1 0
4.06926e-14 1 0
-6.8963e-14 1 0
-6.52238e-14 1 0
4.85006e-14 1 0
4.27873e-14 1 0
-6.52238e-14 1 0
-3.69249e-14 1 0
4.27873e-14 1 0
1.89269e-14 1 0
-5.62568e-14 1 0
-3.81488e-14 1 0
4.06926e-14 1 0
3.51684e-14 1 0
-3.81488e-14 1 0
-1.42941e-14 1 0
3.51684e-14 1 0
2.22011e-14 1 0
-3.69249e-14 1 0
-3.18989e-14 1 0
1.89269e-14 1 0
3.12059e-14 1 0
-3.18989e-14 1 0
-2.96446e-14 1 0
3.12059e-14 1 0
2.71652e-14 1 0
-5.6795e-14 1 0
-2.76315e-14 1 0
5.15081e-14 1 0
3.38476e-14 1 0
-2.76315e-14 1 0
-3.68844e-14 1 0
3.38476e-14 1 0
4.30357e-14 1 0
-3.66425e-14 1 0
-9.32514e-15 1 0
2.5702e-14 1 0
4.52021e-15 1 0
-9.32514e-15 1 0
-3.90621e-14 1 0
4.52021e-15 1 0
3.75163e-14 1 0
-3.68844e-14 1 0
-2.88765e-14 1 0
4.30357e-14 1 0
2.86729e-14 1 0
-2.88765e-14 1 0
-4.12085e-14 1 0
2.86729e-14 1 0
4.10354e-14 1 0
-3.90621e-14 1 0
-1.47332e-14 1 0
3.75163e-14 1 0
2.05561e-14 1 0
-1.47332e-14 1 0
-3.49948e-14 1 0
2.05561e-14 1 0
4.15129e-14 1 0
-1.42941e-14 1 0
-1.61993e-14 1 0
2.22011e-14 1 0
2.34575e-14 1 0
-1.61993e-14 1 0
-3.80358e-14 1 0
2.34575e-14 1 0
3.01062e-14 1 0
-2.96446e-14 1 0
-3.55589e-14 1 0
2.71652e-14 1 0
4.01772e-14 1 0
-3.55589e-14 1 0
-1.48953e-14 1 0
4.01772e-14 1 0
1.46184e-14 1 0
-3.80358e-14 1 0
-4.52261e-14 1 0
3.01062e-14 1 0
4.61674e-14 1 0
-4.52261e-14 1 0
-4.55245e-14 1 0
4.61674e-14 1 0
3.89901e-14 1 0
-1.48953e-14 1 0
-2.25475e-14 1 0
1.46184e-14 1 0
2.12357e-14 1 0
-2.25475e-14 1 0
-1.00362e-14 1 0
2.12357e-14 1 0
7.97399e-15 1 0
-1.71937e-14 1 0
-2.79888e-14 1 0
3.71233e-14 1.00001 0
4.45206e-14 1.00001 0
-2.79888e-14 1 0
-4.32155e-14 1 0
4.45206e-14 1.00001 0
5.07174e-14 1.00001 0
-8.66624e-14 1.00001 0
-6.76597e-14 1.00001 0
9.30114e-14 1 0
6.48443e-14 1 0
-6.76597e-14 1.00001 0
-2.05095e-14 1.00001 0
6.48443e-14 1 0
3.24853e-14 1 0
-4.32155e-14 1 0
-5.25203e-14 1 0
5.07174e-14 1.00001 0
5.20118e-14 1.00001 0
-5.25203e-14 1 0
-4.19289e-14 1 0
5.20118e-14 1.00001 0
5.39654e-14 1.00001 0
-2.05095e-14 1.00001 0
1.07582e-14 1.00001 0
3.24853e-14 1 0
-6.48476e-15 1 0
1.07582e-14 1.00001 0
-3.03797e-14 1.00001 0
-6.48476e-15 1 0
4.00911e-14 1 0
-6.97409e-14 1 0
-1.16829e-14 1 0
6.86371e-14 1 0
1.0925e-14 1 0
-1.16829e-14 1 0
-3.40391e-14 1 0
1.0925e-14 1 0
4.12488e-14 1 0
-3.16583e-14 1 0
-1.02049e-14 1 0
3.02822e-14 1 0
2.09662e-14 1 0
-1.02049e-14 1 0
-6.85003e-14 1 0
2.09662e-14 1 0
7.59649e-14 1 0
-3.40391e-14 1 0
1.11417e-14 1 0
4.12488e-14 1 0
-5.36543e-15 1 0
1.11417e-14 1 0
-3.06446e-14 1 0
-5.36543e-15 1 0
2.75614e-14 1 0
-6.85003e-14 1 0
-1.84554e-14 1 0
7.59649e-14 1 0
3.88902e-14 1 0
-1.84554e-14 1 0
-2.56113e-14 1 0
3.88902e-14 1 0
2.60143e-14 1 0
-4.19289e-14 1 0
-2.54729e-14 1 0
5.39654e-14 1.00001 0
3.5069e-14 1.00001 0
-2.54729e-14 1 0
-1.25678e-14 1 0
3.5069e-14 1.00001 0
3.13221e-14 1.00001 0
-3.03797e-14 1.00001 0
-1.31057e-14 1.00001 0
4.00911e-14 1 0
1.60645e-14 1 0
-1.31057e-14 1.00001 0
-6.59798e-14 1.00001 0
1.60645e-14 1 0
8.75981e-14 1 0
-1.25678e-14 1 0
-3.22095e-15 1 0
3.13221e-14 1.00001 0
1.53492e-14 1.00001 0
-3.22095e-15 1 0
-1.94037e-15 1 0
1.53492e-14 1.00001 0
8.02347e-15 1.00001 0
-6.59798e-14 1.00001 0
-5.28612e-14 1.00001 0
8.75981e-14 1 0
7.1683e-14 1 0
-5.28612e-14 1.00001 0
-2.53071e-14 1.00001 0
7.1683e-14 1 0
4.58503e-14 1 0
-3.06446e-14 1 0
-1.6744e-14 1 0
2.75614e-14 1 0
2.00935e-14 1 0
-1.6744e-14 1 0
-7.50228e-14 1 0
2.00935e-14 1 0
5.68206e-14 1 0
-2.56113e-14 1 0
-2.11234e-14 1 0
2.60143e-14 1 0
2.8427e-14 1 0
-2.11234e-14 1 0
-2.50301e-14 1 0
2.8427e-14 1 0
3.13221e-14 1 0
-7.50228e-14 1 0
-3.44309e-14 1 0
5.68206e-14 1 0
2.11751e-14 1 0
-3.44309e-14 1 0
-5.73917e-14 1 0
2.11751e-14 1 0
7.95247e-14 1 0
-2.50301e-14 1 0
-9.49693e-15 1 0
3.13221e-14 1 0
1.74956e-14 1 0
-9.49693e-15 1 0
-1.03853e-13 1 0
1.74956e-14 1 0
8.2055e-14 1 0
-3.48727e-14 1 0
-1.27148e-14 1 0
3.83435e-14 1 0
-4.39045e-15 1 0
-1.27148e-14 1 0
-4.96992e-14 1 0
-4.39045e-15 1 0
5.33258e-14 1 0
-4.52642e-14 1 0
1.52829e-14 1 0
5.10655e-14 1 0
-9.11042e-15 1 0
1.52829e-14 1 0
-6.13773e-14 1 0
-9.11042e-15 1 0
6.0835e-14 1 0
-4.96992e-14 1 0
-3.35536e-14 1 0
5.33258e-14 1 0
3.86293e-14 1 0
-3.35536e-14 1 0
-6.3841e-15 1 0
3.86293e-14 1 0
7.46793e-15 1 0
-6.13773e-14 1 0
-3.73125e-14 1 0
6.0835e-14 1 0
1.97638e-14 1 0
-3.73125e-14 1 0
6.77689e-15 1 0
1.97638e-14 1 0
-1.38125e-14 1 0
-4.95121e-14 1 0
2.35879e-15 1 0
5.39483e-14 1 0
4.83205e-15 1 0
2.35879e-15 1 0
-5.59496e-14 1 0
4.83205e-15 1 0
5.86729e-14 1 0
-3.96486e-14 1 0
4.56222e-15 1 0
2.02276e-14 1 0
-3.77759e-15 1 0
4.56222e-15 1 0
-2.98604e-14 1 0
-3.77759e-15 1 0
1.57773e-14 1 0
-5.59496e-14 1 0