# vtk DataFile Version 3.0
#This file was generated by the deal.II library on 2018/10/14 at 18:19:19
ASCII
DATASET UNSTRUCTURED_GRID

POINTS 20480 double
0 0 0
0.19635 0 0
0 0.311367 0
0.19635 0.311367 0
0.19635 0 0
0.392699 0 0
0.19635 0.311367 0
0.392699 0.311367 0
0 0.311367 0
0.19635 0.311367 0
0 0.623924 0
0.19635 0.623924 0
0.19635 0.311367 0
0.392699 0.311367 0
0.19635 0.623924 0
0.392699 0.623924 0
0.392699 0 0
0.589049 0 0
0.392699 0.311367 0
0.589049 0.311367 0
0.589049 0 0
0.785398 0 0
0.589049 0.311367 0
0.785398 0.311367 0
0.392699 0.311367 0
0.589049 0.311367 0
0.392699 0.623924 0
0.589049 0.623924 0
0.589049 0.311367 0
0.785398 0.311367 0
0.589049 0.623924 0
0.785398 0.623924 0
0 0.623924 0
0.19635 0.623924 0
0 0.936433 0
0.19635 0.936433 0
0.19635 0.623924 0
0.392699 0.623924 0
0.19635 0.936433 0
0.392699 0.936433 0
0 0.936433 0
0.19635 0.936433 0
0 1.24898 0
0.19635 1.24898 0
0.19635 0.936433 0
0.392699 0.936433 0
0.19635 1.24898 0
0.392699 1.24898 0
0.392699 0.623924 0
0.589049 0.623924 0
0.392699 0.936433 0
0.589049 0.936433 0
0.589049 0.623924 0
0.785398 0.623924 0
0.589049 0.936433 0
0.785398 0.936433 0
0.392699 0.936433 0
0.589049 0.936433 0
0.392699 1.24898 0
0.589049 1.24898 0
0.589049 0.936433 0
0.785398 0.936433 0
0.589049 1.24898 0
0.785398 1.24898 0
0.785398 0 0
0.981748 0 0
0.785398 0.311367 0
0.981748 0.311367 0
0.981748 0 0
1.1781 0 0
0.981748 0.311367 0
1.1781 0.311367 0
0.785398 0.311367 0
0.981748 0.311367 0
0.785398 0.623924 0
0.981748 0.623924 0
0.981748 0.311367 0
1.1781 0.311367 0
0.981748 0.623924 0
1.1781 0.623924 0
1.1781 0 0
1.37445 0 0
1.1781 0.311367 0
1.37445 0.311367 0
1.37445 0 0
1.5708 0 0
1.37445 0.311367 0
1.5708 0.311367 0
1.1781 0.311367 0
1.37445 0.311367 0
1.1781 0.623924 0
1.37445 0.623924 0
1.37445 0.311367 0
1.5708 0.311367 0
1.37445 0.623924 0
1.5708 0.623924 0
0.785398 0.623924 0
0.981748 0.623924 0
0.785398 0.936433 0
0.981748 0.936433 0
0.981748 0.623924 0
1.1781 0.623924 0
0.981748 0.936433 0
1.1781 0.936433 0
0.785398 0.936433 0
0.981748 0.936433 0
0.785398 1.24898 0
0.981748 1.24898 0
0.981748 0.936433 0
1.1781 0.936433 0
0.981748 1.24898 0
1.1781 1.24898 0
1.1781 0.623924 0
1.37445 0.623924 0
1.1781 0.936433 0
1.37445 0.936433 0
1.37445 0.623924 0
1.5708 0.623924 0
1.37445 0.936433 0
1.5708 0.936433 0
1.1781 0.936433 0
1.37445 0.936433 0
1.1781 1.24898 0
1.37445 1.24898 0
1.37445 0.936433 0
1.5708 0.936433 0
1.37445 1.24898 0
1.5708 1.24898 0
0 1.24898 0
0.19635 1.24898 0
0 1.56152 0
0.19635 1.56152 0
0.19635 1.24898 0
0.392699 1.24898 0
0.19635 1.56152 0
0.392699 1.56152 0
0 1.56152 0
0.19635 1.56152 0
0 1.87406 0
0.19635 1.87406 0
0.19635 1.56152 0
0.392699 1.56152 0
0.19635 1.87406 0
0.392699 1.87406 0
0.392699 1.24898 0
0.589049 1.24898 0
0.392699 1.56152 0
0.589049 1.56152 0
0.589049 1.24898 0
0.785398 1.24898 0
0.589049 1.56152 0
0.785398 1.56152 0
0.392699 1.56152 0
0.589049 1.56152 0
0.392699 1.87406 0
0.589049 1.87406 0
0.589049 1.56152 0
0.785398 1.56152 0
0.589049 1.87406 0
0.785398 1.87406 0
0 1.87406 0
0.19635 1.87406 0
0 2.1866 0
0.19635 2.1866 0
0.19635 1.87406 0
0.392699 1.87406 0
0.19635 2.1866 0
0.392699 2.1866 0
0 2.1866 0
0.19635 2.1866 0
0 2.49914 0
0.19635 2.49914 0
0.19635 2.1866 0
0.392699 2.1866 0
0.19635 2.49914 0
0.392699 2.49914 0
0.392699 1.87406 0
0.589049 1.87406 0
0.392699 2.1866 0
0.589049 2.1866 0
0.589049 1.87406 0
0.785398 1.87406 0
0.589049 2.1866 0
0.785398 2.1866 0
0.392699 2.1866 0
0.589049 2.1866 0
0.392699 2.49914 0
0.589049 2.49914 0
0.589049 2.1866 0
0.785398 2.1866 0
0.589049 2.49914 0
0.785398 2.49914 0
0.785398 1.24898 0
0.981748 1.24898 0
0.785398 1.56152 0
0.981748 1.56152 0
0.981748 1.24898 0
1.1781 1.24898 0
0.981748 1.56152 0
1.1781 1.56152 0
0.785398 1.56152 0
0.981748 1.56152 0
0.785398 1.87406 0
0.981748 1.87406 0
0.981748 1.56152 0
1.1781 1.56152 0
0.981748 1.87406 0
1.1781 1.87406 0
1.1781 1.24898 0
1.37445 1.24898 0
1.1781 1.56152 0
1.37445 1.56152 0
1.37445 1.24898 0
1.5708 1.24898 0
1.37445 1.56152 0
1.5708 1.56152 0
1.1781 1.56152 0
1.37445 1.56152 0
1.1781 1.87406 0
1.37445 1.87406 0
1.37445 1.56152 0
1.5708 1.56152 0
1.37445 1.87406 0
1.5708 1.87406 0
0.785398 1.87406 0
0.981748 1.87406 0
0.785398 2.1866 0
0.981748 2.1866 0
0.981748 1.87406 0
1.1781 1.87406 0
0.981748 2.1866 0
1.1781 2.1866 0
0.785398 2.1866 0
0.981748 2.1866 0
0.785398 2.49914 0
0.981748 2.49914 0
0.981748 2.1866 0
1.1781 2.1866 0
0.981748 2.49914 0
1.1781 2.49914 0
1.1781 1.87406 0
1.37445 1.87406 0
1.1781 2.1866 0
1.37445 2.1866 0
1.37445 1.87406 0
1.5708 1.87406 0
1.37445 2.1866 0
1.5708 2.1866 0
1.1781 2.1866 0
1.37445 2.1866 0
1.1781 2.49914 0
1.37445 2.49914 0
1.37445 2.1866 0
1.5708 2.1866 0
1.37445 2.49914 0
1.5708 2.49914 0
1.5708 0 0
1.76715 0 0
1.5708 0.311367 0
1.76715 0.311367 0
1.76715 0 0
1.9635 0 0
1.76715 0.311367 0
1.9635 0.311367 0
1.5708 0.311367 0
1.76715 0.311367 0
1.5708 0.623924 0
1.76715 0.623924 0
1.76715 0.311367 0
1.9635 0.311367 0
1.76715 0.623924 0
1.9635 0.623924 0
1.9635 0 0
2.15984 0 0
1.9635 0.311367 0
2.15984 0.311367 0
2.15984 0 0
2.35619 0 0
2.15984 0.311367 0
2.35619 0.311367 0
1.9635 0.311367 0
2.15984 0.311367 0
1.9635 0.623924 0
2.15984 0.623924 0
2.15984 0.311367 0
2.35619 0.311367 0
2.15984 0.623924 0
2.35619 0.623924 0
1.5708 0.623924 0
1.76715 0.623924 0
1.5708 0.936433 0
1.76715 0.936433 0
1.76715 0.623924 0
1.9635 0.623924 0
1.76715 0.936433 0
1.9635 0.936433 0
1.5708 0.936433 0
1.76715 0.936433 0
1.5708 1.24898 0
1.76715 1.24898 0
1.76715 0.936433 0
1.9635 0.936433 0
1.76715 1.24898 0
1.9635 1.24898 0
1.9635 0.623924 0
2.15984 0.623924 0
1.9635 0.936433 0
2.15984 0.936433 0
2.15984 0.623924 0
2.35619 0.623924 0
2.15984 0.936433 0
2.35619 0.936433 0
1.9635 0.936433 0
2.15984 0.936433 0
1.9635 1.24898 0
2.15984 1.24898 0
2.15984 0.936433 0
2.35619 0.936433 0
2.15984 1.24898 0
2.35619 1.24898 0
2.35619 0 0
2.55254 0 0
2.35619 0.311367 0
2.55254 0.311367 0
2.55254 0 0
2.74889 0 0
2.55254 0.311367 0
2.74889 0.311367 0
2.35619 0.311367 0
2.55254 0.311367 0
2.35619 0.623924 0
2.55254 0.623924 0
2.55254 0.311367 0
2.74889 0.311367 0
2.55254 0.623924 0
2.74889 0.623924 0
2.74889 0 0
2.94524 0 0
2.74889 0.311367 0
2.94524 0.311367 0
2.94524 0 0
3.14159 0 0
2.94524 0.311367 0
3.14159 0.311367 0
2.74889 0.311367 0
2.94524 0.311367 0
2.74889 0.623924 0
2.94524 0.623924 0
2.94524 0.311367 0
3.14159 0.311367 0
2.94524 0.623924 0
3.14159 0.623924 0
2.35619 0.623924 0
2.55254 0.623924 0
2.35619 0.936433 0
2.55254 0.936433 0
2.55254 0.623924 0
2.74889 0.623924 0
2.55254 0.936433 0
2.74889 0.936433 0
2.35619 0.936433 0
2.55254 0.936433 0
2.35619 1.24898 0
2.55254 1.24898 0
2.55254 0.936433 0
2.74889 0.936433 0
2.55254 1.24898 0
2.74889 1.24898 0
2.74889 0.623924 0
2.94524 0.623924 0
2.74889 0.936433 0
2.94524 0.936433 0
2.94524 0.623924 0
3.14159 0.623924 0
2.94524 0.936433 0
3.14159 0.936433 0
2.74889 0.936433 0
2.94524 0.936433 0
2.74889 1.24898 0
2.94524 1.24898 0
2.94524 0.936433 0
3.14159 0.936433 0
2.94524 1.24898 0
3.14159 1.24898 0
1.5708 1.24898 0
1.76715 1.24898 0
1.5708 1.56152 0
1.76715 1.56152 0
1.76715 1.24898 0
1.9635 1.24898 0
1.76715 1.56152 0
1.9635 1.56152 0
1.5708 1.56152 0
1.76715 1.56152 0
1.5708 1.87406 0
1.76715 1.87406 0
1.76715 1.56152 0
1.9635 1.56152 0
1.76715 1.87406 0
1.9635 1.87406 0
1.9635 1.24898 0
2.15984 1.24898 0
1.9635 1.56152 0
2.15984 1.56152 0
2.15984 1.24898 0
2.35619 1.24898 0
2.15984 1.56152 0
2.35619 1.56152 0
1.9635 1.56152 0
2.15984 1.56152 0
1.9635 1.87406 0
2.15984 1.87406 0
2.15984 1.56152 0
2.35619 1.56152 0
2.15984 1.87406 0
2.35619 1.87406 0
1.5708 1.87406 0
1.76715 1.87406 0
1.5708 2.1866 0
1.76715 2.1866 0
1.76715 1.87406 0
1.9635 1.87406 0
1.76715 2.1866 0
1.9635 2.1866 0
1.5708 2.1866 0
1.76715 2.1866 0
1.5708 2.49914 0
1.76715 2.49914 0
1.76715 2.1866 0
1.9635 2.1866 0
1.76715 2.49914 0
1.9635 2.49914 0
1.9635 1.87406 0
2.15984 1.87406 0
1.9635 2.1866 0
2.15984 2.1866 0
2.15984 1.87406 0
2.35619 1.87406 0
2.15984 2.1866 0
2.35619 2.1866 0
1.9635 2.1866 0
2.15984 2.1866 0
1.9635 2.49914 0
2.15984 2.49914 0
2.15984 2.1866 0
2.35619 2.1866 0
2.15984 2.49914 0
2.35619 2.49914 0
2.35619 1.24898 0
2.55254 1.24898 0
2.35619 1.56152 0
2.55254 1.56152 0
2.55254 1.24898 0
2.74889 1.24898 0
2.55254 1.56152 0
2.74889 1.56152 0
2.35619 1.56152 0
2.55254 1.56152 0
2.35619 1.87406 0
2.55254 1.87406 0
2.55254 1.56152 0
2.74889 1.56152 0
2.55254 1.87406 0
2.74889 1.87406 0
2.74889 1.24898 0
2.94524 1.24898 0
2.74889 1.56152 0
2.94524 1.56152 0
2.94524 1.24898 0
3.14159 1.24898 0
2.94524 1.56152 0
3.14159 1.56152 0
2.74889 1.56152 0
2.94524 1.56152 0
2.74889 1.87406 0
2.94524 1.87406 0
2.94524 1.56152 0
3.14159 1.56152 0
2.94524 1.87406 0
3.14159 1.87406 0
2.35619 1.87406 0
2.55254 1.87406 0
2.35619 2.1866 0
2.55254 2.1866 0
2.55254 1.87406 0
2.74889 1.87406 0
2.55254 2.1866 0
2.74889 2.1866 0
2.35619 2.1866 0
2.55254 2.1866 0
2.35619 2.49914 0
2.55254 2.49914 0
2.55254 2.1866 0
2.74889 2.1866 0
2.55254 2.49914 0
2.74889 2.49914 0
2.74889 1.87406 0
2.94524 1.87406 0
2.74889 2.1866 0
2.94524 2.1866 0
2.94524 1.87406 0
3.14159 1.87406 0
2.94524 2.1866 0
3.14159 2.1866 0
2.74889 2.1866 0
2.94524 2.1866 0
2.74889 2.49914 0
2.94524 2.49914 0
2.94524 2.1866 0
3.14159 2.1866 0
2.94524 2.49914 0
3.14159 2.49914 0
0 2.49914 0
0.19635 2.49914 0
0 2.81168 0
0.19635 2.81168 0
0.19635 2.49914 0
0.392699 2.49914 0
0.19635 2.81168 0
0.392699 2.81168 0
0 2.81168 0
0.19635 2.81168 0
0 3.12422 0
0.19635 3.12422 0
0.19635 2.81168 0
0.392699 2.81168 0
0.19635 3.12422 0
0.392699 3.12422 0
0.392699 2.49914 0
0.589049 2.49914 0
0.392699 2.81168 0
0.589049 2.81168 0
0.589049 2.49914 0
0.785398 2.49914 0
0.589049 2.81168 0
0.785398 2.81168 0
0.392699 2.81168 0
0.589049 2.81168 0
0.392699 3.12422 0
0.589049 3.12422 0
0.589049 2.81168 0
0.785398 2.81168 0
0.589049 3.12422 0
0.785398 3.12422 0
0 3.12422 0
0.19635 3.12422 0
0 3.43675 0
0.19635 3.43675 0
0.19635 3.12422 0
0.392699 3.12422 0
0.19635 3.43675 0
0.392699 3.43675 0
0 3.43675 0
0.19635 3.43675 0
0 3.74929 0
[...]
POINT_DATA 20480
VECTORS velocity double
0 0 0
0 0 0
0 -0.00241985 0
-4.8671e-16 -0.00241985 0
0 0 0
0 0 0
-4.8671e-16 -0.00241985 0
-1.95699e-15 -0.00241985 0
0 -0.00241985 0
-4.8671e-16 -0.00241985 0
0 -0.00230446 0
-9.64073e-16 -0.00230446 0
-4.8671e-16 -0.00241985 0
-1.95699e-15 -0.00241985 0
-9.64073e-16 -0.00230446 0
1.62607e-15 -0.00230446 0
0 0 0
0 0 0
-1.95699e-15 -0.00241985 0
-3.32668e-16 -0.00241985 0
0 0 0
0 0 0
-3.32668e-16 -0.00241985 0
-8.03878e-16 -0.00241985 0
-1.95699e-15 -0.00241985 0
-3.32668e-16 -0.00241985 0
1.62607e-15 -0.00230446 0
-1.97714e-15 -0.00230446 0
-3.32668e-16 -0.00241985 0
-8.03878e-16 -0.00241985 0
-1.97714e-15 -0.00230446 0
1.10214e-15 -0.00230446 0
0 -0.00230446 0
-9.64073e-16 -0.00230446 0
0 -0.00228489 0
-5.27784e-16 -0.00228489 0
-9.64073e-16 -0.00230446 0
1.62607e-15 -0.00230446 0
-5.27784e-16 -0.00228489 0
2.31593e-16 -0.00228489 0
0 -0.00228489 0
-5.27784e-16 -0.00228489 0
0 -0.00218018 0
-7.63756e-16 -0.00218018 0
-5.27784e-16 -0.00228489 0
2.31593e-16 -0.00228489 0
-7.63756e-16 -0.00218018 0
-2.07066e-15 -0.00218018 0
1.62607e-15 -0.00230446 0
-1.97714e-15 -0.00230446 0
2.31593e-16 -0.00228489 0
9.62622e-16 -0.00228489 0
-1.97714e-15 -0.00230446 0
1.10214e-15 -0.00230446 0
9.62622e-16 -0.00228489 0
-4.17831e-16 -0.00228489 0
2.31593e-16 -0.00228489 0
9.62622e-16 -0.00228489 0
-2.07066e-15 -0.00218018 0
2.5346e-15 -0.00218018 0
9.62622e-16 -0.00228489 0
-4.17831e-16 -0.00228489 0
2.5346e-15 -0.00218018 0
-4.3749e-15 -0.00218018 0
0 0 0
0 0 0
-8.03878e-16 -0.00241985 0
-1.01749e-15 -0.00241985 0
0 0 0
0 0 0
-1.01749e-15 -0.00241985 0
2.24269e-15 -0.00241985 0
-8.03878e-16 -0.00241985 0
-1.01749e-15 -0.00241985 0
1.10214e-15 -0.00230446 0
5.29169e-16 -0.00230446 0
-1.01749e-15 -0.00241985 0
2.24269e-15 -0.00241985 0
5.29169e-16 -0.00230446 0
-1.53541e-16 -0.00230446 0
0 0 0
0 0 0
2.24269e-15 -0.00241985 0
6.51355e-16 -0.00241985 0
0 0 0
0 0 0
6.51355e-16 -0.00241985 0
-6.64235e-16 -0.00241985 0
2.24269e-15 -0.00241985 0
6.51355e-16 -0.00241985 0
-1.53541e-16 -0.00230446 0
4.12886e-16 -0.00230446 0
6.51355e-16 -0.00241985 0
-6.64235e-16 -0.00241985 0
4.12886e-16 -0.00230446 0
1.78582e-15 -0.00230446 0
1.10214e-15 -0.00230446 0
5.29169e-16 -0.00230446 0
-4.17831e-16 -0.00228489 0
4.87995e-16 -0.00228489 0
5.29169e-16 -0.00230446 0
-1.53541e-16 -0.00230446 0
4.87995e-16 -0.00228489 0
1.46823e-15 -0.00228489 0
-4.17831e-16 -0.00228489 0
4.87995e-16 -0.00228489 0
-4.3749e-15 -0.00218018 0
-5.55855e-15 -0.00218018 0
4.87995e-16 -0.00228489 0
1.46823e-15 -0.00228489 0
-5.55855e-15 -0.00218018 0
-4.7014e-15 -0.00218018 0
-1.53541e-16 -0.00230446 0
4.12886e-16 -0.00230446 0
1.46823e-15 -0.00228489 0
-4.36093e-15 -0.00228489 0
4.12886e-16 -0.00230446 0
1.78582e-15 -0.00230446 0
-4.36093e-15 -0.00228489 0
-2.31007e-15 -0.00228489 0
1.46823e-15 -0.00228489 0
-4.36093e-15 -0.00228489 0
-4.7014e-15 -0.00218018 0
-2.1307e-15 -0.00218018 0
-4.36093e-15 -0.00228489 0
-2.31007e-15 -0.00228489 0
-2.1307e-15 -0.00218018 0
-3.11376e-15 -0.00218018 0
0 -0.00218018 0
-7.63756e-16 -0.00218018 0
0 -0.00209501 0
1.20899e-15 -0.00209501 0
-7.63756e-16 -0.00218018 0
-2.07066e-15 -0.00218018 0
1.20899e-15 -0.00209501 0
-1.2556e-15 -0.00209501 0
0 -0.00209501 0
1.20899e-15 -0.00209501 0
0 -0.00200561 0
-1.38731e-15 -0.00200561 0
1.20899e-15 -0.00209501 0
-1.2556e-15 -0.00209501 0
-1.38731e-15 -0.00200561 0
1.5687e-15 -0.00200561 0
-2.07066e-15 -0.00218018 0
2.5346e-15 -0.00218018 0
-1.2556e-15 -0.00209501 0
-4.60515e-15 -0.00209501 0
2.5346e-15 -0.00218018 0
-4.3749e-15 -0.00218018 0
-4.60515e-15 -0.00209501 0
-6.91004e-15 -0.00209501 0
-1.2556e-15 -0.00209501 0
-4.60515e-15 -0.00209501 0
1.5687e-15 -0.00200561 0
-4.88587e-15 -0.00200561 0
-4.60515e-15 -0.00209501 0
-6.91004e-15 -0.00209501 0
-4.88587e-15 -0.00200561 0
-6.35898e-15 -0.00200561 0
0 -0.00200561 0
-1.38731e-15 -0.00200561 0
0 -0.00191926 0
5.94003e-16 -0.00191926 0
-1.38731e-15 -0.00200561 0
1.5687e-15 -0.00200561 0
5.94003e-16 -0.00191926 0
-1.65302e-15 -0.00191926 0
0 -0.00191926 0
5.94003e-16 -0.00191926 0
0 -0.00183391 0
-1.73885e-15 -0.00183391 0
5.94003e-16 -0.00191926 0
-1.65302e-15 -0.00191926 0
-1.73885e-15 -0.00183391 0
-6.8607e-15 -0.00183391 0
1.5687e-15 -0.00200561 0
-4.88587e-15 -0.00200561 0
-1.65302e-15 -0.00191926 0
9.38939e-15 -0.00191926 0
-4.88587e-15 -0.00200561 0
-6.35898e-15 -0.00200561 0
9.38939e-15 -0.00191926 0
-9.76404e-15 -0.00191926 0
-1.65302e-15 -0.00191926 0
9.38939e-15 -0.00191926 0
-6.8607e-15 -0.00183391 0
-8.31611e-15 -0.00183391 0
9.38939e-15 -0.00191926 0
-9.76404e-15 -0.00191926 0
-8.31611e-15 -0.00183391 0
-4.33107e-15 -0.00183391 0
-4.3749e-15 -0.00218018 0
-5.55855e-15 -0.00218018 0
-6.91004e-15 -0.00209501 0
-5.00632e-15 -0.00209501 0
-5.55855e-15 -0.00218018 0
-4.7014e-15 -0.00218018 0
-5.00632e-15 -0.00209501 0
-5.36065e-15 -0.00209501 0
-6.91004e-15 -0.00209501 0
-5.00632e-15 -0.00209501 0
-6.35898e-15 -0.00200561 0
-4.30013e-15 -0.00200561 0
-5.00632e-15 -0.00209501 0
-5.36065e-15 -0.00209501 0
-4.30013e-15 -0.00200561 0
-5.88421e-15 -0.00200561 0
-4.7014e-15 -0.00218018 0
-2.1307e-15 -0.00218018 0
-5.36065e-15 -0.00209501 0
-3.71799e-15 -0.00209501 0
-2.1307e-15 -0.00218018 0
-3.11376e-15 -0.00218018 0
-3.71799e-15 -0.00209501 0
-3.3411e-15 -0.00209501 0
-5.36065e-15 -0.00209501 0
-3.71799e-15 -0.00209501 0
-5.88421e-15 -0.00200561 0
-8.64522e-15 -0.00200561 0
-3.71799e-15 -0.00209501 0
-3.3411e-15 -0.00209501 0
-8.64522e-15 -0.00200561 0
-1.1195e-14 -0.00200561 0
-6.35898e-15 -0.00200561 0
-4.30013e-15 -0.00200561 0
-9.76404e-15 -0.00191926 0
-2.20896e-15 -0.00191926 0
-4.30013e-15 -0.00200561 0
-5.88421e-15 -0.00200561 0
-2.20896e-15 -0.00191926 0
-1.95349e-15 -0.00191926 0
-9.76404e-15 -0.00191926 0
-2.20896e-15 -0.00191926 0
-4.33107e-15 -0.00183391 0
-5.39711e-15 -0.00183391 0
-2.20896e-15 -0.00191926 0
-1.95349e-15 -0.00191926 0
-5.39711e-15 -0.00183391 0
-4.47451e-15 -0.00183391 0
-5.88421e-15 -0.00200561 0
-8.64522e-15 -0.00200561 0
-1.95349e-15 -0.00191926 0
-6.82513e-15 -0.00191926 0
-8.64522e-15 -0.00200561 0
-1.1195e-14 -0.00200561 0
-6.82513e-15 -0.00191926 0
-7.20763e-15 -0.00191926 0
-1.95349e-15 -0.00191926 0
-6.82513e-15 -0.00191926 0
-4.47451e-15 -0.00183391 0
-8.86779e-15 -0.00183391 0
-6.82513e-15 -0.00191926 0
-7.20763e-15 -0.00191926 0
-8.86779e-15 -0.00183391 0
-3.24892e-15 -0.00183391 0
0 0 0
0 0 0
-6.64235e-16 -0.00241985 0
-5.94089e-16 -0.00241985 0
0 0 0
0 0 0
-5.94089e-16 -0.00241985 0
3.4163e-15 -0.00241985 0
-6.64235e-16 -0.00241985 0
-5.94089e-16 -0.00241985 0
1.78582e-15 -0.00230446 0
3.76636e-16 -0.00230446 0
-5.94089e-16 -0.00241985 0
3.4163e-15 -0.00241985 0
3.76636e-16 -0.00230446 0
-1.57095e-15 -0.00230446 0
0 0 0
0 0 0
3.4163e-15 -0.00241985 0
4.67384e-16 -0.00241985 0
0 0 0
0 0 0
4.67384e-16 -0.00241985 0
1.98243e-16 -0.00241985 0
3.4163e-15 -0.00241985 0
4.67384e-16 -0.00241985 0
-1.57095e-15 -0.00230446 0
7.1532e-16 -0.00230446 0
4.67384e-16 -0.00241985 0
1.98243e-16 -0.00241985 0
7.1532e-16 -0.00230446 0
-2.1826e-15 -0.00230446 0
1.78582e-15 -0.00230446 0
3.76636e-16 -0.00230446 0
-2.31007e-15 -0.00228489 0
-4.34493e-15 -0.00228489 0
3.76636e-16 -0.00230446 0
-1.57095e-15 -0.00230446 0
-4.34493e-15 -0.00228489 0
2.34283e-16 -0.00228489 0
-2.31007e-15 -0.00228489 0
-4.34493e-15 -0.00228489 0
-3.11376e-15 -0.00218018 0
-3.22064e-15 -0.00218018 0
-4.34493e-15 -0.00228489 0
2.34283e-16 -0.00228489 0
-3.22064e-15 -0.00218018 0
-1.17076e-15 -0.00218018 0
-1.57095e-15 -0.00230446 0
7.1532e-16 -0.00230446 0
2.34283e-16 -0.00228489 0
-9.61345e-16 -0.00228489 0
7.1532e-16 -0.00230446 0
-2.1826e-15 -0.00230446 0
-9.61345e-16 -0.00228489 0
1.7716e-15 -0.00228489 0
2.34283e-16 -0.00228489 0
-9.61345e-16 -0.00228489 0
-1.17076e-15 -0.00218018 0
-3.26477e-16 -0.00218018 0
-9.61345e-16 -0.00228489 0
1.7716e-15 -0.00228489 0
-3.26477e-16 -0.00218018 0
-2.8948e-15 -0.00218018 0
0 0 0
0 0 0
1.98243e-16 -0.00241985 0
1.12548e-16 -0.00241985 0
0 0 0
0 0 0
1.12548e-16 -0.00241985 0
-1.54084e-15 -0.00241985 0
1.98243e-16 -0.00241985 0
1.12548e-16 -0.00241985 0
-2.1826e-15 -0.00230446 0
-1.14213e-16 -0.00230446 0
1.12548e-16 -0.00241985 0
-1.54084e-15 -0.00241985 0
-1.14213e-16 -0.00230446 0
3.53714e-16 -0.00230446 0
0 0 0
0 0 0
-1.54084e-15 -0.00241985 0
5.59819e-16 -0.00241985 0
0 0 0
0 0 0
5.59819e-16 -0.00241985 0
-1.51646e-15 -0.00241985 0
-1.54084e-15 -0.00241985 0
5.59819e-16 -0.00241985 0
3.53714e-16 -0.00230446 0
1.62815e-15 -0.00230446 0
5.59819e-16 -0.00241985 0
-1.51646e-15 -0.00241985 0
1.62815e-15 -0.00230446 0
-6.8675e-17 -0.00230446 0
-2.1826e-15 -0.00230446 0
-1.14213e-16 -0.00230446 0
1.7716e-15 -0.00228489 0
-1.78093e-15 -0.00228489 0
-1.14213e-16 -0.00230446 0
3.53714e-16 -0.00230446 0
-1.78093e-15 -0.00228489 0
-8.95262e-16 -0.00228489 0
1.7716e-15 -0.00228489 0
-1.78093e-15 -0.00228489 0
-2.8948e-15 -0.00218018 0
-3.01169e-15 -0.00218018 0
-1.78093e-15 -0.00228489 0
-8.95262e-16 -0.00228489 0
-3.01169e-15 -0.00218018 0
-5.46256e-15 -0.00218018 0
3.53714e-16 -0.00230446 0
1.62815e-15 -0.00230446 0
-8.95262e-16 -0.00228489 0
5.27836e-16 -0.00228489 0
1.62815e-15 -0.00230446 0
-6.8675e-17 -0.00230446 0
5.27836e-16 -0.00228489 0
3.29386e-15 -0.00228489 0
-8.95262e-16 -0.00228489 0
5.27836e-16 -0.00228489 0
-5.46256e-15 -0.00218018 0
-1.45069e-15 -0.00218018 0
5.27836e-16 -0.00228489 0
3.29386e-15 -0.00228489 0
-1.45069e-15 -0.00218018 0
-2.77607e-15 -0.00218018 0
-3.11376e-15 -0.00218018 0
-3.22064e-15 -0.00218018 0
-3.3411e-15 -0.00209501 0
-7.29125e-15 -0.00209501 0
-3.22064e-15 -0.00218018 0
-1.17076e-15 -0.00218018 0
-7.29125e-15 -0.00209501 0
-8.24809e-15 -0.00209501 0
-3.3411e-15 -0.00209501 0
-7.29125e-15 -0.00209501 0
-1.1195e-14 -0.00200561 0
-1.51118e-14 -0.00200561 0
-7.29125e-15 -0.00209501 0
-8.24809e-15 -0.00209501 0
-1.51118e-14 -0.00200561 0
-1.00664e-14 -0.00200561 0
-1.17076e-15 -0.00218018 0
-3.26477e-16 -0.00218018 0
-8.24809e-15 -0.00209501 0
-9.30181e-15 -0.00209501 0
-3.26477e-16 -0.00218018 0
-2.8948e-15 -0.00218018 0
-9.30181e-15 -0.00209501 0
-2.36714e-15 -0.00209501 0
-8.24809e-15 -0.00209501 0
-9.30181e-15 -0.00209501 0
-1.00664e-14 -0.00200561 0
-6.87662e-15 -0.00200561 0
-9.30181e-15 -0.00209501 0
-2.36714e-15 -0.00209501 0
-6.87662e-15 -0.00200561 0
-5.69482e-15 -0.00200561 0
-1.1195e-14 -0.00200561 0
-1.51118e-14 -0.00200561 0
-7.20763e-15 -0.00191926 0
-6.44988e-15 -0.00191926 0
-1.51118e-14 -0.00200561 0
-1.00664e-14 -0.00200561 0
-6.44988e-15 -0.00191926 0
-9.17595e-15 -0.00191926 0
-7.20763e-15 -0.00191926 0
-6.44988e-15 -0.00191926 0
-3.24892e-15 -0.00183391 0
1.96848e-16 -0.00183391 0
-6.44988e-15 -0.00191926 0
-9.17595e-15 -0.00191926 0
1.96848e-16 -0.00183391 0
-3.81827e-15 -0.00183391 0
-1.00664e-14 -0.00200561 0
-6.87662e-15 -0.00200561 0
-9.17595e-15 -0.00191926 0
-1.25607e-14 -0.00191926 0
-6.87662e-15 -0.00200561 0
-5.69482e-15 -0.00200561 0
-1.25607e-14 -0.00191926 0
-6.88533e-15 -0.00191926 0
-9.17595e-15 -0.00191926 0
-1.25607e-14 -0.00191926 0
-3.81827e-15 -0.00183391 0
-8.31001e-15 -0.00183391 0
-1.25607e-14 -0.00191926 0
-6.88533e-15 -0.00191926 0
-8.31001e-15 -0.00183391 0
-9.31715e-15 -0.00183391 0
-2.8948e-15 -0.00218018 0
-3.01169e-15 -0.00218018 0
-2.36714e-15 -0.00209501 0
-9.12812e-15 -0.00209501 0
-3.01169e-15 -0.00218018 0
-5.46256e-15 -0.00218018 0
-9.12812e-15 -0.00209501 0
-6.20705e-15 -0.00209501 0
-2.36714e-15 -0.00209501 0
-9.12812e-15 -0.00209501 0
-5.69482e-15 -0.00200561 0
-1.21839e-14 -0.00200561 0
-9.12812e-15 -0.00209501 0
-6.20705e-15 -0.00209501 0
-1.21839e-14 -0.00200561 0
-5.21335e-15 -0.00200561 0
-5.46256e-15 -0.00218018 0
-1.45069e-15 -0.00218018 0
-6.20705e-15 -0.00209501 0
-4.01935e-15 -0.00209501 0
-1.45069e-15 -0.00218018 0
-2.77607e-15 -0.00218018 0
-4.01935e-15 -0.00209501 0
-2.95826e-15 -0.00209501 0
-6.20705e-15 -0.00209501 0
-4.01935e-15 -0.00209501 0
-5.21335e-15 -0.00200561 0
-8.62738e-15 -0.00200561 0
-4.01935e-15 -0.00209501 0
-2.95826e-15 -0.00209501 0
-8.62738e-15 -0.00200561 0
-8.24808e-15 -0.00200561 0
-5.69482e-15 -0.00200561 0
-1.21839e-14 -0.00200561 0
-6.88533e-15 -0.00191926 0
3.57357e-15 -0.00191926 0
-1.21839e-14 -0.00200561 0
-5.21335e-15 -0.00200561 0
3.57357e-15 -0.00191926 0
-9.41361e-15 -0.00191926 0
-6.88533e-15 -0.00191926 0
3.57357e-15 -0.00191926 0
-9.31715e-15 -0.00183391 0
-9.92487e-15 -0.00183391 0
3.57357e-15 -0.00191926 0
-9.41361e-15 -0.00191926 0
-9.92487e-15 -0.00183391 0
-1.33195e-14 -0.00183391 0
-5.21335e-15 -0.00200561 0
-8.62738e-15 -0.00200561 0
-9.41361e-15 -0.00191926 0
-1.36964e-14 -0.00191926 0
-8.62738e-15 -0.00200561 0
-8.24808e-15 -0.00200561 0
-1.36964e-14 -0.00191926 0
-3.88396e-15 -0.00191926 0
-9.41361e-15 -0.00191926 0
-1.36964e-14 -0.00191926 0
-1.33195e-14 -0.00183391 0
-1.32878e-14 -0.00183391 0
-1.36964e-14 -0.00191926 0
-3.88396e-15 -0.00191926 0
-1.32878e-14 -0.00183391 0
-1.56761e-14 -0.00183391 0
0 -0.00183391 0
-1.73885e-15 -0.00183391 0
0 -0.00175014 0
1.98094e-15 -0.00175014 0
-1.73885e-15 -0.00183391 0
-6.8607e-15 -0.00183391 0
1.98094e-15 -0.00175014 0
-3.86635e-16 -0.00175014 0
0 -0.00175014 0
1.98094e-15 -0.00175014 0
0 -0.00166776 0
-4.90718e-15 -0.00166776 0
1.98094e-15 -0.00175014 0
-3.86635e-16 -0.00175014 0
-4.90718e-15 -0.00166776 0
-3.27547e-15 -0.00166776 0
-6.8607e-15 -0.00183391 0
-8.31611e-15 -0.00183391 0
-3.86635e-16 -0.00175014 0
-2.87752e-15 -0.00175014 0
-8.31611e-15 -0.00183391 0
-4.33107e-15 -0.00183391 0
-2.87752e-15 -0.00175014 0
-1.82456e-15 -0.00175014 0
-3.86635e-16 -0.00175014 0
-2.87752e-15 -0.00175014 0
-3.27547e-15 -0.00166776 0
3.12524e-16 -0.00166776 0
-2.87752e-15 -0.00175014 0
-1.82456e-15 -0.00175014 0
3.12524e-16 -0.00166776 0
-2.78768e-15 -0.00166776 0
0 -0.00166776 0
-4.90718e-15 -0.00166776 0
0 -0.00158681 0
2.66566e-15 -0.00158681 0
-4.90718e-15 -0.00166776 0
-3.27547e-15 -0.00166776 0
2.66566e-15 -0.00158681 0
-2.65661e-16 -0.00158681 0
0 -0.00158681 0
2.66566e-15 -0.00158681 0
0 -0.00150726 0
-2.167e-15 -0.00150726 0
2.66566e-15 -0.00158681 0
-2.65661e-16 -0.00158681 0
-2.167e-15 -0.00150726 0
-3.89449e-15 -0.00150726 0
-3.27547e-15 -0.00166776 0
3.12524e-16 -0.00166776 0
-2.65661e-16 -0.00158681 0
-8.29373e-15 -0.00158681 0
3.12524e-16 -0.00166776 0
-2.78768e-15 -0.00166776 0
-8.29373e-15 -0.00158681 0
-7.173e-15 -0.00158681 0
-2.65661e-16 -0.00158681 0
-8.29373e-15 -0.00158681 0
-3.89449e-15 -0.00150726 0
-5.30981e-15 -0.00150726 0
-8.29373e-15 -0.00158681 0
-7.173e-15 -0.00158681 0
-5.30981e-15 -0.00150726 0
-6.44542e-16 -0.00150726 0
-4.33107e-15 -0.00183391 0
-5.39711e-15 -0.00183391 0
-1.82456e-15 -0.00175014 0
-3.71679e-15 -0.00175014 0
-5.39711e-15 -0.00183391 0
-4.47451e-15 -0.00183391 0
-3.71679e-15 -0.00175014 0
-2.76348e-15 -0.00175014 0
-1.82456e-15 -0.00175014 0
-3.71679e-15 -0.00175014 0
-2.78768e-15 -0.00166776 0
-2.25892e-15 -0.00166776 0
-3.71679e-15 -0.00175014 0
-2.76348e-15 -0.00175014 0
-2.25892e-15 -0.00166776 0
3.05616e-15 -0.00166776 0
-4.47451e-15 -0.00183391 0
-8.86779e-15 -0.00183391 0
-2.76348e-15 -0.00175014 0
-1.05897e-14 -0.00175014 0
-8.86779e-15 -0.00183391 0
-3.24892e-15 -0.00183391 0
-1.05897e-14 -0.00175014 0
1.44922e-15 -0.00175014 0
-2.76348e-15 -0.00175014 0
-1.05897e-14 -0.00175014 0
3.05616e-15 -0.00166776 0
-6.54744e-15 -0.00166776 0
-1.05897e-14 -0.00175014 0
1.44922e-15 -0.00175014 0
-6.54744e-15 -0.00166776 0
-1.25578e-15 -0.00166776 0
-2.78768e-15 -0.00166776 0
-2.25892e-15 -0.00166776 0
-7.173e-15 -0.00158681 0
6.81504e-16 -0.00158681 0
-2.25892e-15 -0.00166776 0
3.05616e-15 -0.00166776 0
6.81504e-16 -0.00158681 0
-9.93611e-16 -0.00158681 0
-7.173e-15 -0.00158681 0
6.81504e-16 -0.00158681 0
-6.44542e-16 -0.00150726 0
-1.05048e-14 -0.00150726 0
6.81504e-16 -0.00158681 0
-9.93611e-16 -0.00158681 0
-1.05048e-14 -0.00150726 0
-6.05206e-15 -0.00150726 0
3.05616e-15 -0.00166776 0
-6.54744e-15 -0.00166776 0
-9.93611e-16 -0.00158681 0
-4.01561e-15 -0.00158681 0
-6.54744e-15 -0.00166776 0
-1.25578e-15 -0.00166776 0
-4.01561e-15 -0.00158681 0
-6.87717e-15 -0.00158681 0
-9.93611e-16 -0.00158681 0
-4.01561e-15 -0.00158681 0
-6.05206e-15 -0.00150726 0
-9.16354e-15 -0.00150726 0
-4.01561e-15 -0.00158681 0
-6.87717e-15 -0.00158681 0
-9.16354e-15 -0.00150726 0
-6.6727e-15 -0.00150726 0
0 -0.00150726 0
-2.167e-15 -0.00150726 0
0 -0.00142909 0
-6.80194e-16 -0.00142909 0
-2.167e-15 -0.00150726 0
-3.89449e-15 -0.00150726 0
-6.80194e-16 -0.00142909 0
-6.26262e-15 -0.00142909 0
0 -0.00142909 0
-6.80194e-16 -0.00142909 0
0 -0.00135229 0
-2.25125e-15 -0.00135229 0
-6.80194e-16 -0.00142909 0
-6.26262e-15 -0.00142909 0
-2.25125e-15 -0.00135229 0
-1.084e-14 -0.00135229 0
-3.89449e-15 -0.00150726 0
-5.30981e-15 -0.00150726 0
-6.26262e-15 -0.00142909 0
-5.50955e-15 -0.00142909 0
-5.30981e-15 -0.00150726 0
-6.44542e-16 -0.00150726 0
-5.50955e-15 -0.00142909 0
-5.28551e-15 -0.00142909 0
-6.26262e-15 -0.00142909 0
-5.50955e-15 -0.00142909 0
-1.084e-14 -0.00135229 0
-3.28482e-15 -0.00135229 0
-5.50955e-15 -0.00142909 0
-5.28551e-15 -0.00142909 0
-3.28482e-15 -0.00135229 0
2.18006e-15 -0.00135229 0
0 -0.00135229 0
-2.25125e-15 -0.00135229 0
0 -0.00127682 0
1.14132e-15 -0.00127682 0
-2.25125e-15 -0.00135229 0
-1.084e-14 -0.00135229 0
1.14132e-15 -0.00127682 0
-4.04086e-15 -0.00127682 0
0 -0.00127682 0
1.14132e-15 -0.00127682 0
0 -0.00120273 0
2.72022e-16 -0.00120273 0
1.14132e-15 -0.00127682 0
-4.04086e-15 -0.00127682 0
2.72022e-16 -0.00120273 0
-2.14669e-15 -0.00120273 0
-1.084e-14 -0.00135229 0
-3.28482e-15 -0.00135229 0
-4.04086e-15 -0.00127682 0
-1.04739e-14 -0.00127682 0
-3.28482e-15 -0.00135229 0
2.18006e-15 -0.00135229 0
-1.04739e-14 -0.00127682 0
-8.37749e-15 -0.00127682 0
-4.04086e-15 -0.00127682 0
-1.04739e-14 -0.00127682 0
-2.14669e-15 -0.00120273 0
-8.1432e-15 -0.00120273 0
-1.04739e-14 -0.00127682 0
-8.37749e-15 -0.00127682 0
-8.1432e-15 -0.00120273 0
-1.19601e-14 -0.00120273 0
-6.44542e-16 -0.00150726 0
-1.05048e-14 -0.00150726 0
-5.28551e-15 -0.00142909 0
-7.29641e-15 -0.00142909 0
-1.05048e-14 -0.00150726 0
-6.05206e-15 -0.00150726 0
-7.29641e-15 -0.00142909 0
-1.13294e-14 -0.00142909 0
-5.28551e-15 -0.00142909 0
-7.29641e-15 -0.00142909 0
2.18006e-15 -0.00135229 0
-8.68307e-15 -0.00135229 0
-7.29641e-15 -0.00142909 0
-1.13294e-14 -0.00142909 0
-8.68307e-15 -0.00135229 0
-1.57127e-14 -0.00135229 0
-6.05206e-15 -0.00150726 0
-9.16354e-15 -0.00150726 0
-1.13294e-14 -0.00142909 0
-1.28347e-14 -0.00142909 0
-9.16354e-15 -0.00150726 0
-6.6727e-15 -0.00150726 0
-1.28347e-14 -0.00142909 0
-1.29724e-14 -0.00142909 0
-1.13294e-14 -0.00142909 0
-1.28347e-14 -0.00142909 0
-1.57127e-14 -0.00135229 0
-1.4333e-14 -0.00135229 0
-1.28347e-14 -0.00142909 0
-1.29724e-14 -0.00142909 0
-1.4333e-14 -0.00135229 0
-1.73515e-14 -0.00135229 0
2.18006e-15 -0.00135229 0
-8.68307e-15 -0.00135229 0
-8.37749e-15 -0.00127682 0
-1.8369e-14 -0.00127682 0
-8.68307e-15 -0.00135229 0
-1.57127e-14 -0.00135229 0
-1.8369e-14 -0.00127682 0
-1.77356e-14 -0.00127682 0
-8.37749e-15 -0.00127682 0
-1.8369e-14 -0.00127682 0
-1.19601e-14 -0.00120273 0
-1.55594e-14 -0.00120273 0
-1.8369e-14 -0.00127682 0
-1.77356e-14 -0.00127682 0
-1.55594e-14 -0.00120273 0
-2.21483e-14 -0.00120273 0
-1.57127e-14 -0.00135229 0
-1.4333e-14 -0.00135229 0
-1.77356e-14 -0.00127682 0
-1.24946e-14 -0.00127682 0
-1.4333e-14 -0.00135229 0
-1.73515e-14 -0.00135229 0
-1.24946e-14 -0.00127682 0
-2.27262e-14 -0.00127682 0
-1.77356e-14 -0.00127682 0
-1.24946e-14 -0.00127682 0
-2.21483e-14 -0.00120273 0
-2.19632e-14 -0.00120273 0
-1.24946e-14 -0.00127682 0
-2.27262e-14 -0.00127682 0
-2.19632e-14 -0.00120273 0
-2.28514e-14 -0.00120273 0
-3.24892e-15 -0.00183391 0
1.96848e-16 -0.00183391 0
1.44922e-15 -0.00175014 0
-9.24126e-15 -0.00175014 0
1.96848e-16 -0.00183391 0
-3.81827e-15 -0.00183391 0
-9.24126e-15 -0.00175014 0
-4.54432e-15 -0.00175014 0
1.44922e-15 -0.00175014 0
-9.24126e-15 -0.00175014 0
-1.25578e-15 -0.00166776 0
-2.52858e-15 -0.00166776 0
-9.24126e-15 -0.00175014 0
-4.54432e-15 -0.00175014 0
-2.52858e-15 -0.00166776 0
-7.44407e-15 -0.00166776 0
-3.81827e-15 -0.00183391 0
-8.31001e-15 -0.00183391 0