# vtk DataFile Version 3.0
#This file was generated by the deal.II library on 2018/10/14 at 17:41:01
ASCII
DATASET UNSTRUCTURED_GRID

POINTS 20480 double
0 0 0
0.19635 0 0
0 0.312034 0
0.19635 0.312034 0
0.19635 0 0
0.392699 0 0
0.19635 0.312034 0
0.392699 0.312034 0
0 0.312034 0
0.19635 0.312034 0
0 0.624537 0
0.19635 0.624537 0
0.19635 0.312034 0
0.392699 0.312034 0
0.19635 0.624537 0
0.392699 0.624537 0
0.392699 0 0
0.589049 0 0
0.392699 0.312034 0
0.589049 0.312034 0
0.589049 0 0
0.785398 0 0
0.589049 0.312034 0
0.785398 0.312034 0
0.392699 0.312034 0
0.589049 0.312034 0
0.392699 0.624537 0
0.589049 0.624537 0
0.589049 0.312034 0
0.785398 0.312034 0
0.589049 0.624537 0
0.785398 0.624537 0
0 0.624537 0
0.19635 0.624537 0
0 0.937018 0
0.19635 0.937018 0
0.19635 0.624537 0
0.392699 0.624537 0
0.19635 0.937018 0
0.392699 0.937018 0
0 0.937018 0
0.19635 0.937018 0
0 1.24951 0
0.19635 1.24951 0
0.19635 0.937018 0
0.392699 0.937018 0
0.19635 1.24951 0
0.392699 1.24951 0
0.392699 0.624537 0
0.589049 0.624537 0
0.392699 0.937018 0
0.589049 0.937018 0
0.589049 0.624537 0
0.785398 0.624537 0
0.589049 0.937018 0
0.785398 0.937018 0
0.392699 0.937018 0
0.589049 0.937018 0
0.392699 1.24951 0
0.589049 1.24951 0
0.589049 0.937018 0
0.785398 0.937018 0
0.589049 1.24951 0
0.785398 1.24951 0
0.785398 0 0
0.981748 0 0
0.785398 0.312034 0
0.981748 0.312034 0
0.981748 0 0
1.1781 0 0
0.981748 0.312034 0
1.1781 0.312034 0
0.785398 0.312034 0
0.981748 0.312034 0
0.785398 0.624537 0
0.981748 0.624537 0
0.981748 0.312034 0
1.1781 0.312034 0
0.981748 0.624537 0
1.1781 0.624537 0
1.1781 0 0
1.37445 0 0
1.1781 0.312034 0
1.37445 0.312034 0
1.37445 0 0
1.5708 0 0
1.37445 0.312034 0
1.5708 0.312034 0
1.1781 0.312034 0
1.37445 0.312034 0
1.1781 0.624537 0
1.37445 0.624537 0
1.37445 0.312034 0
1.5708 0.312034 0
1.37445 0.624537 0
1.5708 0.624537 0
0.785398 0.624537 0
0.981748 0.624537 0
0.785398 0.937018 0
0.981748 0.937018 0
0.981748 0.624537 0
1.1781 0.624537 0
0.981748 0.937018 0
1.1781 0.937018 0
0.785398 0.937018 0
0.981748 0.937018 0
0.785398 1.24951 0
0.981748 1.24951 0
0.981748 0.937018 0
1.1781 0.937018 0
0.981748 1.24951 0
1.1781 1.24951 0
1.1781 0.624537 0
1.37445 0.624537 0
1.1781 0.937018 0
1.37445 0.937018 0
1.37445 0.624537 0
1.5708 0.624537 0
1.37445 0.937018 0
1.5708 0.937018 0
1.1781 0.937018 0
1.37445 0.937018 0
1.1781 1.24951 0
1.37445 1.24951 0
1.37445 0.937018 0
1.5708 0.937018 0
1.37445 1.24951 0
1.5708 1.24951 0
0 1.24951 0
0.19635 1.24951 0
0 1.562 0
0.19635 1.562 0
0.19635 1.24951 0
0.392699 1.24951 0
0.19635 1.562 0
0.392699 1.562 0
0 1.562 0
0.19635 1.562 0
0 1.87449 0
0.19635 1.87449 0
0.19635 1.562 0
0.392699 1.562 0
0.19635 1.87449 0
0.392699 1.87449 0
0.392699 1.24951 0
0.589049 1.24951 0
0.392699 1.562 0
0.589049 1.562 0
0.589049 1.24951 0
0.785398 1.24951 0
0.589049 1.562 0
0.785398 1.562 0
0.392699 1.562 0
0.589049 1.562 0
0.392699 1.87449 0
0.589049 1.87449 0
0.589049 1.562 0
0.785398 1.562 0
0.589049 1.87449 0
0.785398 1.87449 0
0 1.87449 0
0.19635 1.87449 0
0 2.18697 0
0.19635 2.18697 0
0.19635 1.87449 0
0.392699 1.87449 0
0.19635 2.18697 0
0.392699 2.18697 0
0 2.18697 0
0.19635 2.18697 0
0 2.49945 0
0.19635 2.49945 0
0.19635 2.18697 0
0.392699 2.18697 0
0.19635 2.49945 0
0.392699 2.49945 0
0.392699 1.87449 0
0.589049 1.87449 0
0.392699 2.18697 0
0.589049 2.18697 0
0.589049 1.87449 0
0.785398 1.87449 0
0.589049 2.18697 0
0.785398 2.18697 0
0.392699 2.18697 0
0.589049 2.18697 0
0.392699 2.49945 0
0.589049 2.49945 0
0.589049 2.18697 0
0.785398 2.18697 0
0.589049 2.49945 0
0.785398 2.49945 0
0.785398 1.24951 0
0.981748 1.24951 0
0.785398 1.562 0
0.981748 1.562 0
0.981748 1.24951 0
1.1781 1.24951 0
0.981748 1.562 0
1.1781 1.562 0
0.785398 1.562 0
0.981748 1.562 0
0.785398 1.87449 0
0.981748 1.87449 0
0.981748 1.562 0
1.1781 1.562 0
0.981748 1.87449 0
1.1781 1.87449 0
1.1781 1.24951 0
1.37445 1.24951 0
1.1781 1.562 0
1.37445 1.562 0
1.37445 1.24951 0
1.5708 1.24951 0
1.37445 1.562 0
1.5708 1.562 0
1.1781 1.562 0
1.37445 1.562 0
1.1781 1.87449 0
1.37445 1.87449 0
1.37445 1.562 0
1.5708 1.562 0
1.37445 1.87449 0
1.5708 1.87449 0
0.785398 1.87449 0
0.981748 1.87449 0
0.785398 2.18697 0
0.981748 2.18697 0
0.981748 1.87449 0
1.1781 1.87449 0
0.981748 2.18697 0
1.1781 2.18697 0
0.785398 2.18697 0
0.981748 2.18697 0
0.785398 2.49945 0
0.981748 2.49945 0
0.981748 2.18697 0
1.1781 2.18697 0
0.981748 2.49945 0
1.1781 2.49945 0
1.1781 1.87449 0
1.37445 1.87449 0
1.1781 2.18697 0
1.37445 2.18697 0
1.37445 1.87449 0
1.5708 1.87449 0
1.37445 2.18697 0
1.5708 2.18697 0
1.1781 2.18697 0
1.37445 2.18697 0
1.1781 2.49945 0
1.37445 2.49945 0
1.37445 2.18697 0
1.5708 2.18697 0
1.37445 2.49945 0
1.5708 2.49945 0
1.5708 0 0
1.76715 0 0
1.5708 0.312034 0
1.76715 0.312034 0
1.76715 0 0
1.9635 0 0
1.76715 0.312034 0
1.9635 0.312034 0
1.5708 0.312034 0
1.76715 0.312034 0
1.5708 0.624537 0
1.76715 0.624537 0
1.76715 0.312034 0
1.9635 0.312034 0
1.76715 0.624537 0
1.9635 0.624537 0
1.9635 0 0
2.15984 0 0
1.9635 0.312034 0
2.15984 0.312034 0
2.15984 0 0
2.35619 0 0
2.15984 0.312034 0
2.35619 0.312034 0
1.9635 0.312034 0
2.15984 0.312034 0
1.9635 0.624537 0
2.15984 0.624537 0
2.15984 0.312034 0
2.35619 0.312034 0
2.15984 0.624537 0
2.35619 0.624537 0
1.5708 0.624537 0
1.76715 0.624537 0
1.5708 0.937018 0
1.76715 0.937018 0
1.76715 0.624537 0
1.9635 0.624537 0
1.76715 0.937018 0
1.9635 0.937018 0
1.5708 0.937018 0
1.76715 0.937018 0
1.5708 1.24951 0
1.76715 1.24951 0
1.76715 0.937018 0
1.9635 0.937018 0
1.76715 1.24951 0
1.9635 1.24951 0
1.9635 0.624537 0
2.15984 0.624537 0
1.9635 0.937018 0
2.15984 0.937018 0
2.15984 0.624537 0
2.35619 0.624537 0
2.15984 0.937018 0
2.35619 0.937018 0
1.9635 0.937018 0
2.15984 0.937018 0
1.9635 1.24951 0
2.15984 1.24951 0
2.15984 0.937018 0
2.35619 0.937018 0
2.15984 1.24951 0
2.35619 1.24951 0
2.35619 0 0
2.55254 0 0
2.35619 0.312034 0
2.55254 0.312034 0
2.55254 0 0
2.74889 0 0
2.55254 0.312034 0
2.74889 0.312034 0
2.35619 0.312034 0
2.55254 0.312034 0
2.35619 0.624537 0
2.55254 0.624537 0
2.55254 0.312034 0
2.74889 0.312034 0
2.55254 0.624537 0
2.74889 0.624537 0
2.74889 0 0
2.94524 0 0
2.74889 0.312034 0
2.94524 0.312034 0
2.94524 0 0
3.14159 0 0
2.94524 0.312034 0
3.14159 0.312034 0
2.74889 0.312034 0
2.94524 0.312034 0
2.74889 0.624537 0
2.94524 0.624537 0
2.94524 0.312034 0
3.14159 0.312034 0
2.94524 0.624537 0
3.14159 0.624537 0
2.35619 0.624537 0
2.55254 0.624537 0
2.35619 0.937018 0
2.55254 0.937018 0
2.55254 0.624537 0
2.74889 0.624537 0
2.55254 0.937018 0
2.74889 0.937018 0
2.35619 0.937018 0
2.55254 0.937018 0
2.35619 1.24951 0
2.55254 1.24951 0
2.55254 0.937018 0
2.74889 0.937018 0
2.55254 1.24951 0
2.74889 1.24951 0
2.74889 0.624537 0
2.94524 0.624537 0
2.74889 0.937018 0
2.94524 0.937018 0
2.94524 0.624537 0
3.14159 0.624537 0
2.94524 0.937018 0
3.14159 0.937018 0
2.74889 0.937018 0
2.94524 0.937018 0
2.74889 1.24951 0
2.94524 1.24951 0
2.94524 0.937018 0
3.14159 0.937018 0
2.94524 1.24951 0
3.14159 1.24951 0
1.5708 1.24951 0
1.76715 1.24951 0
1.5708 1.562 0
1.76715 1.562 0
1.76715 1.24951 0
1.9635 1.24951 0
1.76715 1.562 0
1.9635 1.562 0
1.5708 1.562 0
1.76715 1.562 0
1.5708 1.87449 0
1.76715 1.87449 0
1.76715 1.562 0
1.9635 1.562 0
1.76715 1.87449 0
1.9635 1.87449 0
1.9635 1.24951 0
2.15984 1.24951 0
1.9635 1.562 0
2.15984 1.562 0
2.15984 1.24951 0
2.35619 1.24951 0
2.15984 1.562 0
2.35619 1.562 0
1.9635 1.562 0
2.15984 1.562 0
1.9635 1.87449 0
2.15984 1.87449 0
2.15984 1.562 0
2.35619 1.562 0
2.15984 1.87449 0
2.35619 1.87449 0
1.5708 1.87449 0
1.76715 1.87449 0
1.5708 2.18697 0
1.76715 2.18697 0
1.76715 1.87449 0
1.9635 1.87449 0
1.76715 2.18697 0
1.9635 2.18697 0
1.5708 2.18697 0
1.76715 2.18697 0
1.5708 2.49945 0
1.76715 2.49945 0
1.76715 2.18697 0
1.9635 2.18697 0
1.76715 2.49945 0
1.9635 2.49945 0
1.9635 1.87449 0
2.15984 1.87449 0
1.9635 2.18697 0
2.15984 2.18697 0
2.15984 1.87449 0
2.35619 1.87449 0
2.15984 2.18697 0
2.35619 2.18697 0
1.9635 2.18697 0
2.15984 2.18697 0
1.9635 2.49945 0
2.15984 2.49945 0
2.15984 2.18697 0
2.35619 2.18697 0
2.15984 2.49945 0
2.35619 2.49945 0
2.35619 1.24951 0
2.55254 1.24951 0
2.35619 1.562 0
2.55254 1.562 0
2.55254 1.24951 0
2.74889 1.24951 0
2.55254 1.562 0
2.74889 1.562 0
2.35619 1.562 0
2.55254 1.562 0
2.35619 1.87449 0
2.55254 1.87449 0
2.55254 1.562 0
2.74889 1.562 0
2.55254 1.87449 0
2.74889 1.87449 0
2.74889 1.24951 0
2.94524 1.24951 0
2.74889 1.562 0
2.94524 1.562 0
2.94524 1.24951 0
3.14159 1.24951 0
2.94524 1.562 0
3.14159 1.562 0
2.74889 1.562 0
2.94524 1.562 0
2.74889 1.87449 0
2.94524 1.87449 0
2.94524 1.562 0
3.14159 1.562 0
2.94524 1.87449 0
3.14159 1.87449 0
2.35619 1.87449 0
2.55254 1.87449 0
2.35619 2.18697 0
2.55254 2.18697 0
2.55254 1.87449 0
2.74889 1.87449 0
2.55254 2.18697 0
2.74889 2.18697 0
2.35619 2.18697 0
2.55254 2.18697 0
2.35619 2.49945 0
2.55254 2.49945 0
2.55254 2.18697 0
2.74889 2.18697 0
2.55254 2.49945 0
2.74889 2.49945 0
2.74889 1.87449 0
2.94524 1.87449 0
2.74889 2.18697 0
2.94524 2.18697 0
2.94524 1.87449 0
3.14159 1.87449 0
2.94524 2.18697 0
3.14159 2.18697 0
2.74889 2.18697 0
2.94524 2.18697 0
2.74889 2.49945 0
2.94524 2.49945 0
2.94524 2.18697 0
3.14159 2.18697 0
2.94524 2.49945 0
3.14159 2.49945 0
0 2.49945 0
0.19635 2.49945 0
0 2.81193 0
0.19635 2.81193 0
0.19635 2.49945 0
0.392699 2.49945 0
0.19635 2.81193 0
0.392699 2.81193 0
0 2.81193 0
0.19635 2.81193 0
0 3.12441 0
0.19635 3.12441 0
0.19635 2.81193 0
0.392699 2.81193 0
0.19635 3.12441 0
0.392699 3.12441 0
0.392699 2.49945 0
0.589049 2.49945 0
0.392699 2.81193 0
0.589049 2.81193 0
0.589049 2.49945 0
0.785398 2.49945 0
0.589049 2.81193 0
0.785398 2.81193 0
0.392699 2.81193 0
0.589049 2.81193 0
0.392699 3.12441 0
0.589049 3.12441 0
0.589049 2.81193 0
0.785398 2.81193 0
0.589049 3.12441 0
0.785398 3.12441 0
0 3.12441 0
0.19635 3.12441 0
0 3.43688 0
0.19635 3.43688 0
0.19635 3.12441 0
0.392699 3.12441 0
0.19635 3.43688 0
0.392699 3.43688 0
0 3.43688 0
0.19635 3.43688 0
0 3.74935 0
0.19635 3.74935 0
0.19635 3.43688 0
0.392699 3.43688 0
0.19635 3.74935 0
[...]
POINT_DATA 20480
VECTORS uf double
0 1 0
6.66895e-16 1 0
0 1.00445 0
-5.51023e-15 1.00445 0
6.66895e-16 1 0
-7.04448e-16 1 0
-5.51023e-15 1.00445 0
9.07228e-16 1.00445 0
0 1.00445 0
2.02922e-14 1.00445 0
0 1.00694 0
-2.02795e-14 1.00694 0
2.02922e-14 1.00445 0
1.12618e-14 1.00445 0
-2.02795e-14 1.00694 0
-1.00736e-14 1.00694 0
-7.04448e-16 1 0
1.349e-15 1 0
9.07228e-16 1.00445 0
7.77552e-15 1.00445 0
1.349e-15 1 0
4.66641e-15 1 0
7.77552e-15 1.00445 0
-2.54659e-15 1.00445 0
1.12618e-14 1.00445 0
-1.12139e-14 1.00445 0
-1.00736e-14 1.00694 0
1.74657e-14 1.00694 0
-1.12139e-14 1.00445 0
-1.59431e-15 1.00445 0
1.74657e-14 1.00694 0
1.25211e-14 1.00694 0
0 1.00694 0
2.31936e-15 1.00694 0
0 1.00989 0
4.60098e-15 1.00989 0
2.31936e-15 1.00694 0
-4.09917e-15 1.00694 0
4.60098e-15 1.00989 0
9.92656e-15 1.00989 0
0 1.00989 0
4.89817e-15 1.00989 0
0 1.01268 0
-1.50212e-14 1.01268 0
4.89817e-15 1.00989 0
-2.47834e-14 1.00989 0
-1.50212e-14 1.01268 0
1.77315e-14 1.01268 0
-4.09917e-15 1.00694 0
-2.52918e-14 1.00694 0
9.92656e-15 1.00989 0
1.35067e-14 1.00989 0
-2.52918e-14 1.00694 0
-1.73916e-14 1.00694 0
1.35067e-14 1.00989 0
1.61414e-14 1.00989 0
-2.47834e-14 1.00989 0
-1.81416e-14 1.00989 0
1.77315e-14 1.01268 0
7.73196e-15 1.01268 0
-1.81416e-14 1.00989 0
-3.24809e-14 1.00989 0
7.73196e-15 1.01268 0
3.17892e-14 1.01268 0
4.66641e-15 1 0
-4.8485e-15 1 0
-2.54659e-15 1.00445 0
1.27785e-14 1.00445 0
-4.8485e-15 1 0
-2.53395e-15 1 0
1.27785e-14 1.00445 0
9.96528e-15 1.00445 0
-1.59431e-15 1.00445 0
-1.02683e-14 1.00445 0
1.25211e-14 1.00694 0
1.26173e-14 1.00694 0
-1.02683e-14 1.00445 0
-1.06197e-14 1.00445 0
1.26173e-14 1.00694 0
9.35124e-15 1.00694 0
-2.53395e-15 1 0
-7.52803e-15 1 0
9.96528e-15 1.00445 0
1.24183e-14 1.00445 0
-7.52803e-15 1 0
3.26027e-15 1 0
1.24183e-14 1.00445 0
1.21313e-15 1.00445 0
-1.06197e-14 1.00445 0
-2.96448e-15 1.00445 0
9.35124e-15 1.00694 0
-6.81389e-15 1.00694 0
-2.96448e-15 1.00445 0
1.21694e-14 1.00445 0
-6.81389e-15 1.00694 0
-1.34907e-14 1.00694 0
-1.73916e-14 1.00694 0
-2.19167e-14 1.00694 0
1.61414e-14 1.00989 0
1.88244e-14 1.00989 0
-2.19167e-14 1.00694 0
-8.36544e-15 1.00694 0
1.88244e-14 1.00989 0
3.23196e-15 1.00989 0
-3.24809e-14 1.00989 0
-2.83366e-14 1.00989 0
3.17892e-14 1.01268 0
2.75086e-14 1.01268 0
-2.83366e-14 1.00989 0
-2.20693e-14 1.00989 0
2.75086e-14 1.01268 0
3.03834e-14 1.01268 0
-8.36544e-15 1.00694 0
-8.18038e-15 1.00694 0
3.23196e-15 1.00989 0
1.57107e-14 1.00989 0
-8.18038e-15 1.00694 0
-1.03602e-14 1.00694 0
1.57107e-14 1.00989 0
1.2119e-14 1.00989 0
-2.20693e-14 1.00989 0
-2.33869e-14 1.00989 0
3.03834e-14 1.01268 0
1.32199e-14 1.01268 0
-2.33869e-14 1.00989 0
-2.38872e-14 1.00989 0
1.32199e-14 1.01268 0
3.3137e-14 1.01268 0
0 1.01268 0
1.01762e-14 1.01268 0
0 1.01546 0
7.80821e-16 1.01546 0
1.01762e-14 1.01268 0
5.70524e-16 1.01268 0
7.80821e-16 1.01546 0
-3.50842e-15 1.01546 0
0 1.01546 0
-8.08637e-15 1.01546 0
0 1.01821 0
-9.4419e-16 1.01821 0
-8.08637e-15 1.01546 0
-7.75067e-15 1.01546 0
-9.4419e-16 1.01821 0
1.8747e-14 1.01821 0
5.70524e-16 1.01268 0
2.70634e-15 1.01268 0
-3.50842e-15 1.01546 0
2.29176e-15 1.01546 0
2.70634e-15 1.01268 0
-1.89392e-14 1.01268 0
2.29176e-15 1.01546 0
9.90618e-15 1.01546 0
-7.75067e-15 1.01546 0
3.64997e-15 1.01546 0
1.8747e-14 1.01821 0
1.1095e-14 1.01821 0
3.64997e-15 1.01546 0
-4.42422e-15 1.01546 0
1.1095e-14 1.01821 0
2.09478e-14 1.01821 0
0 1.01821 0
7.68908e-15 1.01821 0
0 1.02092 0
-1.06363e-15 1.02092 0
7.68908e-15 1.01821 0
-9.55766e-17 1.01821 0
-1.06363e-15 1.02092 0
-1.37931e-14 1.02092 0
0 1.02092 0
-2.14715e-15 1.02092 0
0 1.0236 0
8.05384e-15 1.0236 0
-2.14715e-15 1.02092 0
1.33041e-14 1.02092 0
8.05384e-15 1.0236 0
-7.23845e-15 1.0236 0
-9.55766e-17 1.01821 0
-1.02985e-14 1.01821 0
-1.37931e-14 1.02092 0
9.30036e-15 1.02092 0
-1.02985e-14 1.01821 0
-2.84657e-14 1.01821 0
9.30036e-15 1.02092 0
4.14239e-14 1.02092 0
1.33041e-14 1.02092 0
-2.76685e-14 1.02092 0
-7.23845e-15 1.0236 0
2.60086e-14 1.0236 0
-2.76685e-14 1.02092 0
-4.1779e-14 1.02092 0
2.60086e-14 1.0236 0
2.46629e-14 1.0236 0
-1.89392e-14 1.01268 0
-1.73443e-14 1.01268 0
9.90618e-15 1.01546 0
6.52775e-15 1.01546 0
-1.73443e-14 1.01268 0
-2.18422e-14 1.01268 0
6.52775e-15 1.01546 0
1.01142e-14 1.01546 0
-4.42422e-15 1.01546 0
-1.08154e-14 1.01546 0
2.09478e-14 1.01821 0
1.98313e-14 1.01821 0
-1.08154e-14 1.01546 0
2.30849e-15 1.01546 0
1.98313e-14 1.01821 0
2.71224e-15 1.01821 0
-2.18422e-14 1.01268 0
-1.30897e-14 1.01268 0
1.01142e-14 1.01546 0
2.44138e-14 1.01546 0
-1.30897e-14 1.01268 0
-1.76116e-14 1.01268 0
2.44138e-14 1.01546 0
1.61646e-14 1.01546 0
2.30849e-15 1.01546 0
-2.00523e-14 1.01546 0
2.71224e-15 1.01821 0
1.7684e-14 1.01821 0
-2.00523e-14 1.01546 0
-2.83238e-15 1.01546 0
1.7684e-14 1.01821 0
-3.48692e-15 1.01821 0
-2.84657e-14 1.01821 0
-1.02041e-14 1.01821 0
4.14239e-14 1.02092 0
3.35364e-14 1.02092 0
-1.02041e-14 1.01821 0
-5.6978e-15 1.01821 0
3.35364e-14 1.02092 0
1.90954e-14 1.02092 0
-4.1779e-14 1.02092 0
-4.0314e-14 1.02092 0
2.46629e-14 1.0236 0
2.91674e-14 1.0236 0
-4.0314e-14 1.02092 0
-3.04187e-14 1.02092 0
2.91674e-14 1.0236 0
3.30058e-14 1.0236 0
-5.6978e-15 1.01821 0
1.02519e-15 1.01821 0
1.90954e-14 1.02092 0
5.34282e-15 1.02092 0
1.02519e-15 1.01821 0
-8.53268e-15 1.01821 0
5.34282e-15 1.02092 0
2.19132e-14 1.02092 0
-3.04187e-14 1.02092 0
-3.58487e-14 1.02092 0
3.30058e-14 1.0236 0
4.83729e-14 1.0236 0
-3.58487e-14 1.02092 0
-3.91163e-14 1.02092 0
4.83729e-14 1.0236 0
4.43233e-14 1.0236 0
3.26027e-15 1 0
-2.04221e-15 1 0
1.21313e-15 1.00445 0
1.52836e-14 1.00445 0
-2.04221e-15 1 0
2.7433e-15 1 0
1.52836e-14 1.00445 0
-5.18021e-15 1.00445 0
1.21694e-14 1.00445 0
-4.79656e-15 1.00445 0
-1.34907e-14 1.00694 0
-7.00903e-15 1.00694 0
-4.79656e-15 1.00445 0
-4.40836e-15 1.00445 0
-7.00903e-15 1.00694 0
1.71064e-14 1.00694 0
2.7433e-15 1 0
-2.0935e-14 1 0
-5.18021e-15 1.00445 0
2.05793e-14 1.00445 0
-2.0935e-14 1 0
-2.5132e-14 1 0
2.05793e-14 1.00445 0
3.15605e-14 1.00445 0
-4.40836e-15 1.00445 0
-1.52997e-14 1.00445 0
1.71064e-14 1.00694 0
2.2679e-14 1.00694 0
-1.52997e-14 1.00445 0
-1.62028e-14 1.00445 0
2.2679e-14 1.00694 0
2.44912e-14 1.00694 0
-1.03602e-14 1.00694 0
1.85571e-15 1.00694 0
1.2119e-14 1.00989 0
9.39575e-15 1.00989 0
1.85571e-15 1.00694 0
-3.4804e-14 1.00694 0
9.39575e-15 1.00989 0
3.80339e-14 1.00989 0
-2.38872e-14 1.00989 0
-2.40556e-14 1.00989 0
3.3137e-14 1.01268 0
2.75424e-14 1.01268 0
-2.40556e-14 1.00989 0
-9.19696e-15 1.00989 0
2.75424e-14 1.01268 0
8.30282e-15 1.01268 0
-3.4804e-14 1.00694 0
-1.58157e-14 1.00694 0
3.80339e-14 1.00989 0
1.56099e-14 1.00989 0
-1.58157e-14 1.00694 0
-3.05561e-14 1.00694 0
1.56099e-14 1.00989 0
2.42834e-14 1.00989 0
-9.19696e-15 1.00989 0
-1.52011e-14 1.00989 0
8.30282e-15 1.01268 0
1.81537e-14 1.01268 0
-1.52011e-14 1.00989 0
-8.20652e-15 1.00989 0
1.81537e-14 1.01268 0
5.34435e-15 1.01268 0
-2.5132e-14 1 0
-8.1076e-15 1 0
3.15605e-14 1.00445 0
2.3384e-14 1.00445 0
-8.1076e-15 1 0
-7.99201e-15 1 0
2.3384e-14 1.00445 0
2.79522e-14 1.00445 0
-1.62028e-14 1.00445 0
-1.63902e-14 1.00445 0
2.44912e-14 1.00694 0
2.06869e-14 1.00694 0
-1.63902e-14 1.00445 0
-1.64434e-14 1.00445 0
2.06869e-14 1.00694 0
2.07276e-14 1.00694 0
-7.99201e-15 1 0
-1.41013e-14 1 0
2.79522e-14 1.00445 0
3.06957e-14 1.00445 0
-1.41013e-14 1 0
-1.55849e-14 1 0
3.06957e-14 1.00445 0
3.06959e-14 1.00445 0
-1.64434e-14 1.00445 0
-1.46929e-14 1.00445 0
2.07276e-14 1.00694 0
2.67263e-14 1.00694 0
-1.46929e-14 1.00445 0
-4.85561e-15 1.00445 0
2.67263e-14 1.00694 0
9.82184e-15 1.00694 0
-3.05561e-14 1.00694 0
-3.50757e-14 1.00694 0
2.42834e-14 1.00989 0
3.27278e-14 1.00989 0
-3.50757e-14 1.00694 0
-3.00282e-14 1.00694 0
3.27278e-14 1.00989 0
1.23194e-14 1.00989 0
-8.20652e-15 1.00989 0
-6.9267e-15 1.00989 0
5.34435e-15 1.01268 0
-2.36479e-15 1.01268 0
-6.9267e-15 1.00989 0
1.02301e-15 1.00989 0
-2.36479e-15 1.01268 0
-6.77031e-15 1.01268 0
-3.00282e-14 1.00694 0
-3.06599e-14 1.00694 0
1.23194e-14 1.00989 0
1.58859e-14 1.00989 0
-3.06599e-14 1.00694 0
-1.17924e-14 1.00694 0
1.58859e-14 1.00989 0
5.92103e-15 1.00989 0
1.02301e-15 1.00989 0
-2.41987e-14 1.00989 0
-6.77031e-15 1.01268 0
2.77283e-14 1.01268 0
-2.41987e-14 1.00989 0
-3.96836e-15 1.00989 0
2.77283e-14 1.01268 0
3.9102e-15 1.01268 0
-1.76116e-14 1.01268 0
-1.74999e-14 1.01268 0
1.61646e-14 1.01546 0
1.98702e-14 1.01546 0
-1.74999e-14 1.01268 0
-1.12569e-14 1.01268 0
1.98702e-14 1.01546 0
1.85661e-14 1.01546 0
-2.83238e-15 1.01546 0
-1.62979e-14 1.01546 0
-3.48692e-15 1.01821 0
9.74682e-15 1.01821 0
-1.62979e-14 1.01546 0
-8.74108e-15 1.01546 0
9.74682e-15 1.01821 0
-1.60395e-15 1.01821 0
-1.12569e-14 1.01268 0
-2.03064e-14 1.01268 0
1.85661e-14 1.01546 0
4.07227e-14 1.01546 0
-2.03064e-14 1.01268 0
6.7392e-15 1.01268 0
4.07227e-14 1.01546 0
2.05405e-15 1.01546 0
-8.74108e-15 1.01546 0
-4.19627e-14 1.01546 0
-1.60395e-15 1.01821 0
3.27405e-14 1.01821 0
-4.19627e-14 1.01546 0
-1.43977e-14 1.01546 0
3.27405e-14 1.01821 0
3.2093e-14 1.01821 0
-8.53268e-15 1.01821 0
-6.54233e-15 1.01821 0
2.19132e-14 1.02092 0
1.36326e-14 1.02092 0
-6.54233e-15 1.01821 0
-1.65738e-15 1.01821 0
1.36326e-14 1.02092 0
1.41087e-14 1.02092 0
-3.91163e-14 1.02092 0
-2.84955e-14 1.02092 0
4.43233e-14 1.0236 0
4.09723e-14 1.0236 0
-2.84955e-14 1.02092 0
-2.88027e-14 1.02092 0
4.09723e-14 1.0236 0
3.18754e-14 1.0236 0
-1.65738e-15 1.01821 0
-2.85634e-14 1.01821 0
1.41087e-14 1.02092 0
3.1377e-14 1.02092 0
-2.85634e-14 1.01821 0
-2.51177e-14 1.01821 0
3.1377e-14 1.02092 0
2.2563e-14 1.02092 0
-2.88027e-14 1.02092 0
-2.6904e-14 1.02092 0
3.18754e-14 1.0236 0
3.70231e-14 1.0236 0
-2.6904e-14 1.02092 0
-2.21553e-14 1.02092 0
3.70231e-14 1.0236 0
3.02103e-14 1.0236 0
6.7392e-15 1.01268 0
7.38414e-15 1.01268 0
2.05405e-15 1.01546 0
1.16234e-14 1.01546 0
7.38414e-15 1.01268 0
1.91684e-14 1.01268 0
1.16234e-14 1.01546 0
-1.47472e-15 1.01546 0
-1.43977e-14 1.01546 0
-1.97858e-14 1.01546 0
3.2093e-14 1.01821 0
2.1279e-14 1.01821 0
-1.97858e-14 1.01546 0
-2.56518e-15 1.01546 0
2.1279e-14 1.01821 0
7.05446e-15 1.01821 0
1.91684e-14 1.01268 0
-1.2345e-14 1.01268 0
-1.47472e-15 1.01546 0
1.63262e-15 1.01546 0
-1.2345e-14 1.01268 0
-2.26608e-14 1.01268 0
1.63262e-15 1.01546 0
2.72995e-14 1.01546 0
-2.56518e-15 1.01546 0
-5.66636e-15 1.01546 0
7.05446e-15 1.01821 0
3.4902e-14 1.01821 0
-5.66636e-15 1.01546 0
-1.37719e-14 1.01546 0
3.4902e-14 1.01821 0
2.70256e-14 1.01821 0
-2.51177e-14 1.01821 0
-1.68846e-14 1.01821 0
2.2563e-14 1.02092 0
2.06069e-14 1.02092 0
-1.68846e-14 1.01821 0
-8.07022e-15 1.01821 0
2.06069e-14 1.02092 0
1.61437e-14 1.02092 0
-2.21553e-14 1.02092 0
-2.12639e-14 1.02092 0
3.02103e-14 1.0236 0
2.25644e-14 1.0236 0
-2.12639e-14 1.02092 0
-2.91013e-15 1.02092 0
2.25644e-14 1.0236 0
2.96988e-15 1.0236 0
-8.07022e-15 1.01821 0
-2.65838e-14 1.01821 0
1.61437e-14 1.02092 0
2.27752e-14 1.02092 0
-2.65838e-14 1.01821 0
-1.78518e-14 1.01821 0
2.27752e-14 1.02092 0
2.35302e-14 1.02092 0
-2.91013e-15 1.02092 0
-1.20423e-14 1.02092 0
2.96988e-15 1.0236 0
5.50976e-15 1.0236 0
-1.20423e-14 1.02092 0
-1.54318e-14 1.02092 0
5.50976e-15 1.0236 0
1.80688e-14 1.0236 0
0 1.0236 0
-9.83234e-15 1.0236 0
0 1.02625 0
5.00453e-15 1.02625 0
-9.83234e-15 1.0236 0
8.17944e-15 1.0236 0
5.00453e-15 1.02625 0
-1.08726e-14 1.02625 0
0 1.02625 0
1.59273e-15 1.02625 0
0 1.02886 0
5.71364e-15 1.02886 0
1.59273e-15 1.02625 0
4.7946e-15 1.02625 0
5.71364e-15 1.02886 0
7.60936e-15 1.02886 0
8.17944e-15 1.0236 0
-1.73944e-14 1.0236 0
-1.08726e-14 1.02625 0
2.38849e-14 1.02625 0
-1.73944e-14 1.0236 0
-1.95276e-14 1.0236 0
2.38849e-14 1.02625 0
1.84758e-14 1.02625 0
4.7946e-15 1.02625 0
-2.84452e-14 1.02625 0
7.60936e-15 1.02886 0
2.67585e-14 1.02886 0
-2.84452e-14 1.02625 0
-2.99784e-14 1.02625 0
2.67585e-14 1.02886 0
4.61881e-14 1.02886 0
0 1.02886 0
-1.98185e-14 1.02886 0
0 1.03144 0
2.29191e-14 1.03144 0
-1.98185e-14 1.02886 0
-1.45567e-14 1.02886 0
2.29191e-14 1.03144 0
2.28553e-14 1.03144 0
0 1.03144 0
-8.19945e-15 1.03144 0
0 1.03399 0
2.67556e-15 1.03399 0
-8.19945e-15 1.03144 0
-6.20947e-16 1.03144 0
2.67556e-15 1.03399 0
-6.40284e-15 1.03399 0
-1.45567e-14 1.02886 0
-1.5069e-14 1.02886 0
2.28553e-14 1.03144 0
7.80233e-15 1.03144 0
-1.5069e-14 1.02886 0
-4.84301e-14 1.02886 0
7.80233e-15 1.03144 0
3.95349e-14 1.03144 0
-6.20947e-16 1.03144 0
1.80514e-14 1.03144 0
-6.40284e-15 1.03399 0
-1.20684e-14 1.03399 0
1.80514e-14 1.03144 0
2.67106e-15 1.03144 0
-1.20684e-14 1.03399 0
-2.9616e-15 1.03399 0
-1.95276e-14 1.0236 0
-4.47124e-14 1.0236 0
1.84758e-14 1.02625 0
3.40235e-14 1.02625 0
-4.47124e-14 1.0236 0
-5.50884e-14 1.0236 0
3.40235e-14 1.02625 0
4.69798e-14 1.02625 0
-2.99784e-14 1.02625 0
-2.35483e-14 1.02625 0
4.61881e-14 1.02886 0
4.1116e-14 1.02886 0
-2.35483e-14 1.02625 0
-2.92714e-14 1.02625 0
4.1116e-14 1.02886 0
3.48935e-14 1.02886 0
-5.50884e-14 1.0236 0
-6.16803e-14 1.0236 0
4.69798e-14 1.02625 0
5.56987e-14 1.02625 0
-6.16803e-14 1.0236 0
-4.63264e-14 1.0236 0
5.56987e-14 1.02625 0
4.55319e-14 1.02625 0
-2.92714e-14 1.02625 0
-3.9814e-14 1.02625 0
3.48935e-14 1.02886 0
3.46119e-14 1.02886 0
-3.9814e-14 1.02625 0
-3.54499e-14 1.02625 0
3.46119e-14 1.02886 0
3.93405e-14 1.02886 0
-4.84301e-14 1.02886 0
-3.1694e-14 1.02886 0
3.95349e-14 1.03144 0
2.7606e-14 1.03144 0
-3.1694e-14 1.02886 0
-2.37229e-14 1.02886 0
2.7606e-14 1.03144 0
1.89535e-14 1.03144 0
2.67106e-15 1.03144 0
-1.38948e-14 1.03144 0
-2.9616e-15 1.03399 0
2.31575e-14 1.03399 0
-1.38948e-14 1.03144 0
-1.38693e-15 1.03144 0
2.31575e-14 1.03399 0
5.69842e-15 1.03399 0
-2.37229e-14 1.02886 0
-2.57231e-14 1.02886 0
1.89535e-14 1.03144 0
2.7592e-14 1.03144 0
-2.57231e-14 1.02886 0
-2.81981e-14 1.02886 0
2.7592e-14 1.03144 0
2.46957e-14 1.03144 0
-1.38693e-15 1.03144 0
-1.05294e-14 1.03144 0
5.69842e-15 1.03399 0
1.23739e-14 1.03399 0
-1.05294e-14 1.03144 0
-1.44082e-14 1.03144 0
1.23739e-14 1.03399 0
1.007e-14 1.03399 0
0 1.03399 0
-1.67883e-15 1.03399 0
0 1.0365 0
-2.78633e-15 1.0365 0
-1.67883e-15 1.03399 0
1.48286e-15 1.03399 0
-2.78633e-15 1.0365 0
-5.35779e-15 1.0365 0
0 1.0365 0
-6.71343e-15 1.0365 0
0 1.039 0
1.25518e-14 1.039 0
-6.71343e-15 1.0365 0
-1.31714e-15 1.0365 0
1.25518e-14 1.039 0
8.22311e-16 1.039 0
1.48286e-15 1.03399 0
6.52539e-15 1.03399 0
-5.35779e-15 1.0365 0
-7.00557e-15 1.0365 0
6.52539e-15 1.03399 0
-9.6113e-15 1.03399 0
-7.00557e-15 1.0365 0
1.15937e-14 1.0365 0
-1.31714e-15 1.0365 0
-1.73109e-14 1.0365 0
8.22311e-16 1.039 0
1.29272e-14 1.039 0
-1.73109e-14 1.0365 0
-2.77262e-14 1.0365 0
1.29272e-14 1.039 0
2.8386e-14 1.039 0
0 1.039 0
-4.87539e-15 1.039 0
0 1.04147 0
1.5097e-15 1.04147 0
-4.87539e-15 1.039 0
-3.50544e-15 1.039 0
1.5097e-15 1.04147 0
1.07353e-14 1.04147 0
0 1.04147 0
-2.40725e-15 1.04147 0
0 1.04391 0
4.43197e-15 1.04391 0
-2.40725e-15 1.04147 0
-6.17407e-15 1.04147 0
4.43197e-15 1.04391 0
1.04585e-15 1.04391 0
-3.50544e-15 1.039 0
-8.78142e-16 1.039 0
1.07353e-14 1.04147 0
3.91347e-15 1.04147 0
-8.78142e-16 1.039 0
-1.67264e-14 1.039 0
3.91347e-15 1.04147 0
9.66056e-15 1.04147 0
-6.17407e-15 1.04147 0
1.4553e-15 1.04147 0
1.04585e-15 1.04391 0
-5.6923e-15 1.04391 0
1.4553e-15 1.04147 0
-3.24318e-15 1.04147 0
-5.6923e-15 1.04391 0
3.76374e-15 1.04391 0
-9.6113e-15 1.03399 0
-3.21681e-14 1.03399 0
1.15937e-14 1.0365 0
3.02584e-14 1.0365 0
-3.21681e-14 1.03399 0
-7.92336e-15 1.03399 0
3.02584e-14 1.0365 0
1.116e-14 1.0365 0
-2.77262e-14 1.0365 0
-3.29239e-14 1.0365 0
2.8386e-14 1.039 0
3.03249e-14 1.039 0
-3.29239e-14 1.0365 0
-2.50012e-14 1.0365 0
3.03249e-14 1.039 0
2.28979e-14 1.039 0
-7.92336e-15 1.03399 0
-3.0156e-14 1.03399 0
1.116e-14 1.0365 0
3.1493e-14 1.0365 0
-3.0156e-14 1.03399 0
-1.22846e-14 1.03399 0
3.1493e-14 1.0365 0
1.11933e-14 1.0365 0
-2.50012e-14 1.0365 0
-2.88331e-14 1.0365 0
2.28979e-14 1.039 0
2.57638e-14 1.039 0
-2.88331e-14 1.0365 0
-2.03622e-14 1.0365 0
2.57638e-14 1.039 0
2.50995e-14 1.039 0
-1.67264e-14 1.039 0
-2.07781e-14 1.039 0
9.66056e-15 1.04147 0
2.07747e-14 1.04147 0
-2.07781e-14 1.039 0
-1.83214e-14 1.039 0
2.07747e-14 1.04147 0
1.53107e-14 1.04147 0
-3.24318e-15 1.04147 0
-2.04028e-14 1.04147 0
3.76374e-15 1.04391 0
1.16799e-14 1.04391 0
-2.04028e-14 1.04147 0
-1.5354e-14 1.04147 0
1.16799e-14 1.04391 0
1.49612e-14 1.04391 0
-1.83214e-14 1.039 0
-2.07245e-14 1.039 0
1.53107e-14 1.04147 0
1.12832e-14 1.04147 0
-2.07245e-14 1.039 0
-2.08755e-14 1.039 0
1.12832e-14 1.04147 0
8.99831e-15 1.04147 0
-1.5354e-14 1.04147 0
-5.05917e-15 1.04147 0
1.49612e-14 1.04391 0
1.65649e-14 1.04391 0
-5.05917e-15 1.04147 0
-3.40197e-15 1.04147 0
1.65649e-14 1.04391 0
1.10069e-14 1.04391 0
-4.63264e-14 1.0236 0
-4.2556e-14 1.0236 0
4.55319e-14 1.02625 0
3.54807e-14 1.02625 0
-4.2556e-14 1.0236 0
-4.70829e-14 1.0236 0
3.54807e-14 1.02625 0
5.20668e-14 1.02625 0
-3.54499e-14 1.02625 0
-2.16066e-14 1.02625 0
3.93405e-14 1.02886 0
2.43213e-14 1.02886 0
-2.16066e-14 1.02625 0
-2.47091e-14 1.02625 0
2.43213e-14 1.02886 0
2.44787e-14 1.02886 0
-4.70829e-14 1.0236 0
-4.73611e-14 1.0236 0
5.20668e-14 1.02625 0
3.63633e-14 1.02625 0
-4.73611e-14 1.0236 0
-3.76881e-14 1.0236 0
3.63633e-14 1.02625 0
3.7876e-14 1.02625 0
-2.47091e-14 1.02625 0
-1.61598e-14 1.02625 0
2.44787e-14 1.02886 0
2.63459e-14 1.02886 0
-1.61598e-14 1.02625 0
-4.62866e-14 1.02625 0
2.63459e-14 1.02886 0
5.2414e-14 1.02886 0
-2.81981e-14 1.02886 0
-1.56497e-14 1.02886 0
2.46957e-14 1.03144 0
1.5607e-14 1.03144 0
-1.56497e-14 1.02886 0
-1.17665e-14 1.02886 0
1.5607e-14 1.03144 0
1.21781e-14 1.03144 0
-1.44082e-14 1.03144 0
-1.31351e-14 1.03144 0
1.007e-14 1.03399 0
1.40437e-14 1.03399 0
-1.31351e-14 1.03144 0
-8.39116e-15 1.03144 0
1.40437e-14 1.03399 0
6.83419e-15 1.03399 0
-1.17665e-14 1.02886 0
-1.63728e-14 1.02886 0
1.21781e-14 1.03144 0
1.6189e-14 1.03144 0
-1.63728e-14 1.02886 0
-3.0865e-14 1.02886 0
1.6189e-14 1.03144 0
2.97484e-14 1.03144 0
-8.39116e-15 1.03144 0
-1.66931e-14 1.03144 0
6.83419e-15 1.03399 0
1.34437e-14 1.03399 0
-1.66931e-14 1.03144 0
-2.65487e-14 1.03144 0
1.34437e-14 1.03399 0
2.29428e-14 1.03399 0
-3.76881e-14 1.0236 0
-8.37326e-15 1.0236 0
3.7876e-14 1.02625 0
1.38663e-14 1.02625 0
-8.37326e-15 1.0236 0
6.11075e-15 1.0236 0
1.38663e-14 1.02625 0
-1.27907e-14 1.02625 0
-4.62866e-14 1.02625 0
-2.4569e-14 1.02625 0
5.2414e-14 1.02886 0
2.74691e-14 1.02886 0
-2.4569e-14 1.02625 0
6.95197e-15 1.02625 0
2.74691e-14 1.02886 0
1.08416e-14 1.02886 0
6.11075e-15 1.0236 0
3.50385e-15 1.0236 0
-1.27907e-14 1.02625 0
6.45336e-15 1.02625 0
3.50385e-15 1.0236 0
-2.75832e-14 1.0236 0
6.45336e-15 1.02625 0
3.53611e-14 1.02625 0
6.95197e-15 1.02625 0
-1.32132e-14 1.02625 0
1.08416e-14 1.02886 0
2.48786e-14 1.02886 0
-1.32132e-14 1.02625 0
-2.80173e-14 1.02625 0
2.48786e-14 1.02886 0
3.32272e-14 1.02886 0
-3.0865e-14 1.02886 0
-2.03663e-14 1.02886 0
2.97484e-14 1.03144 0
2.27635e-14 1.03144 0
-2.03663e-14 1.02886 0
-2.56175e-14 1.02886 0
2.27635e-14 1.03144 0
3.05615e-14 1.03144 0
-2.65487e-14 1.03144 0
-2.70299e-14 1.03144 0
2.29428e-14 1.03399 0
2.97145e-14 1.03399 0
-2.70299e-14 1.03144 0
-2.16904e-14 1.03144 0
2.97145e-14 1.03399 0
1.83644e-14 1.03399 0
-2.56175e-14 1.02886 0
-3.17668e-14 1.02886 0
3.05615e-14 1.03144 0
3.54885e-14 1.03144 0
-3.17668e-14 1.02886 0
-2.52596e-14 1.02886 0
3.54885e-14 1.03144 0
2.40495e-14 1.03144 0
-2.16904e-14 1.03144 0
-2.64425e-14 1.03144 0
1.83644e-14 1.03399 0
3.09809e-14 1.03399 0
-2.64425e-14 1.03144 0
-8.39205e-15 1.03144 0
3.09809e-14 1.03399 0
1.02665e-14 1.03399 0
-1.22846e-14 1.03399 0
-1.75007e-14 1.03399 0
1.11933e-14 1.0365 0
1.19546e-14 1.0365 0
-1.75007e-14 1.03399 0
-1.39016e-14 1.03399 0
1.19546e-14 1.0365 0
1.1154e-14 1.0365 0
-2.03622e-14 1.0365 0
-2.83022e-14 1.0365 0
2.50995e-14 1.039 0
3.00816e-14 1.039 0
-2.83022e-14 1.0365 0
-1.9534e-14 1.0365 0
3.00816e-14 1.039 0
1.90074e-14 1.039 0
-1.39016e-14 1.03399 0
-2.45387e-14 1.03399 0
1.1154e-14 1.0365 0
2.9315e-14 1.0365 0
-2.45387e-14 1.03399 0
-2.59559e-14 1.03399 0
2.9315e-14 1.0365 0
2.81947e-14 1.0365 0
-1.9534e-14 1.0365 0
-3.21504e-14 1.0365 0
1.90074e-14 1.039 0
3.34842e-14 1.039 0