# vtk DataFile Version 3.0
#This file was generated by the deal.II library on 2018/10/14 at 19:15:02
ASCII
DATASET UNSTRUCTURED_GRID

POINTS 20480 double
0 0 0
0.19635 0 0
0 0.31039 0
0.19635 0.31039 0
0.19635 0 0
0.392699 0 0
0.19635 0.31039 0
0.392699 0.31039 0
0 0.31039 0
0.19635 0.31039 0
0 0.622966 0
0.19635 0.622966 0
0.19635 0.31039 0
0.392699 0.31039 0
0.19635 0.622966 0
0.392699 0.622966 0
0.392699 0 0
0.589049 0 0
0.392699 0.31039 0
0.589049 0.31039 0
0.589049 0 0
0.785398 0 0
0.589049 0.31039 0
0.785398 0.31039 0
0.392699 0.31039 0
0.589049 0.31039 0
0.392699 0.622966 0
0.589049 0.622966 0
0.589049 0.31039 0
0.785398 0.31039 0
0.589049 0.622966 0
0.785398 0.622966 0
0 0.622966 0
0.19635 0.622966 0
0 0.935456 0
0.19635 0.935456 0
0.19635 0.622966 0
0.392699 0.622966 0
0.19635 0.935456 0
0.392699 0.935456 0
0 0.935456 0
0.19635 0.935456 0
0 1.24801 0
0.19635 1.24801 0
0.19635 0.935456 0
0.392699 0.935456 0
0.19635 1.24801 0
0.392699 1.24801 0
0.392699 0.622966 0
0.589049 0.622966 0
0.392699 0.935456 0
0.589049 0.935456 0
0.589049 0.622966 0
0.785398 0.622966 0
0.589049 0.935456 0
0.785398 0.935456 0
0.392699 0.935456 0
0.589049 0.935456 0
0.392699 1.24801 0
0.589049 1.24801 0
0.589049 0.935456 0
0.785398 0.935456 0
0.589049 1.24801 0
0.785398 1.24801 0
0.785398 0 0
0.981748 0 0
0.785398 0.31039 0
0.981748 0.31039 0
0.981748 0 0
1.1781 0 0
0.981748 0.31039 0
1.1781 0.31039 0
0.785398 0.31039 0
0.981748 0.31039 0
0.785398 0.622966 0
0.981748 0.622966 0
0.981748 0.31039 0
1.1781 0.31039 0
0.981748 0.622966 0
1.1781 0.622966 0
1.1781 0 0
1.37445 0 0
1.1781 0.31039 0
1.37445 0.31039 0
1.37445 0 0
1.5708 0 0
1.37445 0.31039 0
1.5708 0.31039 0
1.1781 0.31039 0
1.37445 0.31039 0
1.1781 0.622966 0
1.37445 0.622966 0
1.37445 0.31039 0
1.5708 0.31039 0
1.37445 0.622966 0
1.5708 0.622966 0
0.785398 0.622966 0
0.981748 0.622966 0
0.785398 0.935456 0
0.981748 0.935456 0
0.981748 0.622966 0
1.1781 0.622966 0
0.981748 0.935456 0
1.1781 0.935456 0
0.785398 0.935456 0
0.981748 0.935456 0
0.785398 1.24801 0
0.981748 1.24801 0
0.981748 0.935456 0
1.1781 0.935456 0
0.981748 1.24801 0
1.1781 1.24801 0
1.1781 0.622966 0
1.37445 0.622966 0
1.1781 0.935456 0
1.37445 0.935456 0
1.37445 0.622966 0
1.5708 0.622966 0
1.37445 0.935456 0
1.5708 0.935456 0
1.1781 0.935456 0
1.37445 0.935456 0
1.1781 1.24801 0
1.37445 1.24801 0
1.37445 0.935456 0
1.5708 0.935456 0
1.37445 1.24801 0
1.5708 1.24801 0
0 1.24801 0
0.19635 1.24801 0
0 1.56055 0
0.19635 1.56055 0
0.19635 1.24801 0
0.392699 1.24801 0
0.19635 1.56055 0
0.392699 1.56055 0
0 1.56055 0
0.19635 1.56055 0
0 1.87309 0
0.19635 1.87309 0
0.19635 1.56055 0
0.392699 1.56055 0
0.19635 1.87309 0
0.392699 1.87309 0
0.392699 1.24801 0
0.589049 1.24801 0
0.392699 1.56055 0
0.589049 1.56055 0
0.589049 1.24801 0
0.785398 1.24801 0
0.589049 1.56055 0
0.785398 1.56055 0
0.392699 1.56055 0
0.589049 1.56055 0
0.392699 1.87309 0
0.589049 1.87309 0
0.589049 1.56055 0
0.785398 1.56055 0
0.589049 1.87309 0
0.785398 1.87309 0
0 1.87309 0
0.19635 1.87309 0
0 2.18561 0
0.19635 2.18561 0
0.19635 1.87309 0
0.392699 1.87309 0
0.19635 2.18561 0
0.392699 2.18561 0
0 2.18561 0
0.19635 2.18561 0
0 2.49814 0
0.19635 2.49814 0
0.19635 2.18561 0
0.392699 2.18561 0
0.19635 2.49814 0
0.392699 2.49814 0
0.392699 1.87309 0
0.589049 1.87309 0
0.392699 2.18561 0
0.589049 2.18561 0
0.589049 1.87309 0
0.785398 1.87309 0
0.589049 2.18561 0
0.785398 2.18561 0
0.392699 2.18561 0
0.589049 2.18561 0
0.392699 2.49814 0
0.589049 2.49814 0
0.589049 2.18561 0
0.785398 2.18561 0
0.589049 2.49814 0
0.785398 2.49814 0
0.785398 1.24801 0
0.981748 1.24801 0
0.785398 1.56055 0
0.981748 1.56055 0
0.981748 1.24801 0
1.1781 1.24801 0
0.981748 1.56055 0
1.1781 1.56055 0
0.785398 1.56055 0
0.981748 1.56055 0
0.785398 1.87309 0
0.981748 1.87309 0
0.981748 1.56055 0
1.1781 1.56055 0
0.981748 1.87309 0
1.1781 1.87309 0
1.1781 1.24801 0
1.37445 1.24801 0
1.1781 1.56055 0
1.37445 1.56055 0
1.37445 1.24801 0
1.5708 1.24801 0
1.37445 1.56055 0
1.5708 1.56055 0
1.1781 1.56055 0
1.37445 1.56055 0
1.1781 1.87309 0
1.37445 1.87309 0
1.37445 1.56055 0
1.5708 1.56055 0
1.37445 1.87309 0
1.5708 1.87309 0
0.785398 1.87309 0
0.981748 1.87309 0
0.785398 2.18561 0
0.981748 2.18561 0
0.981748 1.87309 0
1.1781 1.87309 0
0.981748 2.18561 0
1.1781 2.18561 0
0.785398 2.18561 0
0.981748 2.18561 0
0.785398 2.49814 0
0.981748 2.49814 0
0.981748 2.18561 0
1.1781 2.18561 0
0.981748 2.49814 0
1.1781 2.49814 0
1.1781 1.87309 0
1.37445 1.87309 0
1.1781 2.18561 0
1.37445 2.18561 0
1.37445 1.87309 0
1.5708 1.87309 0
1.37445 2.18561 0
1.5708 2.18561 0
1.1781 2.18561 0
1.37445 2.18561 0
1.1781 2.49814 0
1.37445 2.49814 0
1.37445 2.18561 0
1.5708 2.18561 0
1.37445 2.49814 0
1.5708 2.49814 0
1.5708 0 0
1.76715 0 0
1.5708 0.31039 0
1.76715 0.31039 0
1.76715 0 0
1.9635 0 0
1.76715 0.31039 0
1.9635 0.31039 0
1.5708 0.31039 0
1.76715 0.31039 0
1.5708 0.622966 0
1.76715 0.622966 0
1.76715 0.31039 0
1.9635 0.31039 0
1.76715 0.622966 0
1.9635 0.622966 0
1.9635 0 0
2.15984 0 0
1.9635 0.31039 0
2.15984 0.31039 0
2.15984 0 0
2.35619 0 0
2.15984 0.31039 0
2.35619 0.31039 0
1.9635 0.31039 0
2.15984 0.31039 0
1.9635 0.622966 0
2.15984 0.622966 0
2.15984 0.31039 0
2.35619 0.31039 0
2.15984 0.622966 0
2.35619 0.622966 0
1.5708 0.622966 0
1.76715 0.622966 0
1.5708 0.935456 0
1.76715 0.935456 0
1.76715 0.622966 0
1.9635 0.622966 0
1.76715 0.935456 0
1.9635 0.935456 0
1.5708 0.935456 0
1.76715 0.935456 0
1.5708 1.24801 0
1.76715 1.24801 0
1.76715 0.935456 0
1.9635 0.935456 0
1.76715 1.24801 0
1.9635 1.24801 0
1.9635 0.622966 0
2.15984 0.622966 0
1.9635 0.935456 0
2.15984 0.935456 0
2.15984 0.622966 0
2.35619 0.622966 0
2.15984 0.935456 0
2.35619 0.935456 0
1.9635 0.935456 0
2.15984 0.935456 0
1.9635 1.24801 0
2.15984 1.24801 0
2.15984 0.935456 0
2.35619 0.935456 0
2.15984 1.24801 0
2.35619 1.24801 0
2.35619 0 0
2.55254 0 0
2.35619 0.31039 0
2.55254 0.31039 0
2.55254 0 0
2.74889 0 0
2.55254 0.31039 0
2.74889 0.31039 0
2.35619 0.31039 0
2.55254 0.31039 0
2.35619 0.622966 0
2.55254 0.622966 0
2.55254 0.31039 0
2.74889 0.31039 0
2.55254 0.622966 0
2.74889 0.622966 0
2.74889 0 0
2.94524 0 0
2.74889 0.31039 0
2.94524 0.31039 0
2.94524 0 0
3.14159 0 0
2.94524 0.31039 0
3.14159 0.31039 0
2.74889 0.31039 0
2.94524 0.31039 0
2.74889 0.622966 0
2.94524 0.622966 0
2.94524 0.31039 0
3.14159 0.31039 0
2.94524 0.622966 0
3.14159 0.622966 0
2.35619 0.622966 0
2.55254 0.622966 0
2.35619 0.935456 0
2.55254 0.935456 0
2.55254 0.622966 0
2.74889 0.622966 0
2.55254 0.935456 0
2.74889 0.935456 0
2.35619 0.935456 0
2.55254 0.935456 0
2.35619 1.24801 0
2.55254 1.24801 0
2.55254 0.935456 0
2.74889 0.935456 0
2.55254 1.24801 0
2.74889 1.24801 0
2.74889 0.622966 0
2.94524 0.622966 0
2.74889 0.935456 0
2.94524 0.935456 0
2.94524 0.622966 0
3.14159 0.622966 0
2.94524 0.935456 0
3.14159 0.935456 0
2.74889 0.935456 0
2.94524 0.935456 0
2.74889 1.24801 0
2.94524 1.24801 0
2.94524 0.935456 0
3.14159 0.935456 0
2.94524 1.24801 0
3.14159 1.24801 0
1.5708 1.24801 0
1.76715 1.24801 0
1.5708 1.56055 0
1.76715 1.56055 0
1.76715 1.24801 0
1.9635 1.24801 0
1.76715 1.56055 0
1.9635 1.56055 0
1.5708 1.56055 0
1.76715 1.56055 0
1.5708 1.87309 0
1.76715 1.87309 0
1.76715 1.56055 0
1.9635 1.56055 0
1.76715 1.87309 0
1.9635 1.87309 0
1.9635 1.24801 0
2.15984 1.24801 0
1.9635 1.56055 0
2.15984 1.56055 0
2.15984 1.24801 0
2.35619 1.24801 0
2.15984 1.56055 0
2.35619 1.56055 0
1.9635 1.56055 0
2.15984 1.56055 0
1.9635 1.87309 0
2.15984 1.87309 0
2.15984 1.56055 0
2.35619 1.56055 0
2.15984 1.87309 0
2.35619 1.87309 0
1.5708 1.87309 0
1.76715 1.87309 0
1.5708 2.18561 0
1.76715 2.18561 0
1.76715 1.87309 0
1.9635 1.87309 0
1.76715 2.18561 0
1.9635 2.18561 0
1.5708 2.18561 0
1.76715 2.18561 0
1.5708 2.49814 0
1.76715 2.49814 0
1.76715 2.18561 0
1.9635 2.18561 0
1.76715 2.49814 0
1.9635 2.49814 0
1.9635 1.87309 0
2.15984 1.87309 0
1.9635 2.18561 0
2.15984 2.18561 0
2.15984 1.87309 0
2.35619 1.87309 0
2.15984 2.18561 0
2.35619 2.18561 0
1.9635 2.18561 0
2.15984 2.18561 0
1.9635 2.49814 0
2.15984 2.49814 0
2.15984 2.18561 0
2.35619 2.18561 0
2.15984 2.49814 0
2.35619 2.49814 0
2.35619 1.24801 0
2.55254 1.24801 0
2.35619 1.56055 0
2.55254 1.56055 0
2.55254 1.24801 0
2.74889 1.24801 0
2.55254 1.56055 0
2.74889 1.56055 0
2.35619 1.56055 0
2.55254 1.56055 0
2.35619 1.87309 0
2.55254 1.87309 0
2.55254 1.56055 0
2.74889 1.56055 0
2.55254 1.87309 0
2.74889 1.87309 0
2.74889 1.24801 0
2.94524 1.24801 0
2.74889 1.56055 0
2.94524 1.56055 0
2.94524 1.24801 0
3.14159 1.24801 0
2.94524 1.56055 0
3.14159 1.56055 0
2.74889 1.56055 0
2.94524 1.56055 0
2.74889 1.87309 0
2.94524 1.87309 0
2.94524 1.56055 0
3.14159 1.56055 0
2.94524 1.87309 0
3.14159 1.87309 0
2.35619 1.87309 0
2.55254 1.87309 0
2.35619 2.18561 0
2.55254 2.18561 0
2.55254 1.87309 0
2.74889 1.87309 0
2.55254 2.18561 0
2.74889 2.18561 0
2.35619 2.18561 0
2.55254 2.18561 0
2.35619 2.49814 0
2.55254 2.49814 0
2.55254 2.18561 0
2.74889 2.18561 0
2.55254 2.49814 0
2.74889 2.49814 0
2.74889 1.87309 0
2.94524 1.87309 0
2.74889 2.18561 0
2.94524 2.18561 0
2.94524 1.87309 0
3.14159 1.87309 0
2.94524 2.18561 0
3.14159 2.18561 0
2.74889 2.18561 0
2.94524 2.18561 0
2.74889 2.49814 0
2.94524 2.49814 0
2.94524 2.18561 0
3.14159 2.18561 0
2.94524 2.49814 0
3.14159 2.49814 0
0 2.49814 0
0.19635 2.49814 0
0 2.81065 0
0.19635 2.81065 0
0.19635 2.49814 0
0.392699 2.49814 0
0.19635 2.81065 0
0.392699 2.81065 0
0 2.81065 0
0.19635 2.81065 0
0 3.12316 0
0.19635 3.12316 0
0.19635 2.81065 0
0.392699 2.81065 0
0.19635 3.12316 0
0.392699 3.12316 0
0.392699 2.49814 0
0.589049 2.49814 0
0.392699 2.81065 0
0.589049 2.81065 0
0.589049 2.49814 0
0.785398 2.49814 0
0.589049 2.81065 0
0.785398 2.81065 0
0.392699 2.81065 0
0.589049 2.81065 0
0.392699 3.12316 0
0.589049 3.12316 0
0.589049 2.81065 0
0.785398 2.81065 0
0.589049 3.12316 0
0.785398 3.12316 0
0 3.12316 0
0.19635 3.12316 0
0 3.43566 0
0.19635 3.43566 0
0.19635 3.12316 0
0.392699 3.12316 0
0.19635 3.43566 0
0.392699 3.43566 0
0 3.43566 0
0.19635 3.43566 0
0 3.74815 0
[...]
POINT_DATA 20480
VECTORS uf double
0 1 0
-1.33269e-14 1 0
0 1.00828 0
1.48389e-14 1.00828 0
-1.33269e-14 1 0
-2.17558e-14 1 0
1.48389e-14 1.00828 0
2.91675e-14 1.00828 0
0 1.00828 0
-1.85748e-14 1.00828 0
0 1.01179 0
2.79875e-14 1.01179 0
-1.85748e-14 1.00828 0
-1.37264e-14 1.00828 0
2.79875e-14 1.01179 0
1.24884e-14 1.01179 0
-2.17558e-14 1 0
-3.41902e-14 1 0
2.91675e-14 1.00828 0
5.0755e-14 1.00828 0
-3.41902e-14 1 0
-7.47807e-15 1 0
5.0755e-14 1.00828 0
9.16293e-15 1.00828 0
-1.37264e-14 1.00828 0
-4.06755e-14 1.00828 0
1.24884e-14 1.01179 0
2.85042e-14 1.01179 0
-4.06755e-14 1.00828 0
-3.12058e-14 1.00828 0
2.85042e-14 1.01179 0
4.82103e-14 1.01179 0
0 1.01179 0
-2.8204e-14 1.01179 0
0 1.01637 0
1.88265e-14 1.01637 0
-2.8204e-14 1.01179 0
-4.01226e-14 1.01179 0
1.88265e-14 1.01637 0
5.19045e-14 1.01637 0
0 1.01637 0
-8.5768e-15 1.01637 0
0 1.02059 0
3.58476e-15 1.02059 0
-8.5768e-15 1.01637 0
-4.86167e-14 1.01637 0
3.58476e-15 1.02059 0
4.32702e-14 1.02059 0
-4.01226e-14 1.01179 0
-4.24619e-14 1.01179 0
5.19045e-14 1.01637 0
5.46838e-14 1.01637 0
-4.24619e-14 1.01179 0
-3.7119e-14 1.01179 0
5.46838e-14 1.01637 0
2.69422e-14 1.01637 0
-4.86167e-14 1.01637 0
-3.80048e-14 1.01637 0
4.32702e-14 1.02059 0
9.71194e-15 1.02059 0
-3.80048e-14 1.01637 0
-3.39587e-14 1.01637 0
9.71194e-15 1.02059 0
3.31518e-14 1.02059 0
-7.47807e-15 1 0
-1.97625e-14 1 0
9.16293e-15 1.00828 0
1.84403e-14 1.00828 0
-1.97625e-14 1 0
-4.14538e-14 1 0
1.84403e-14 1.00828 0
3.97493e-14 1.00828 0
-3.12058e-14 1.00828 0
-3.52193e-14 1.00828 0
4.82103e-14 1.01179 0
6.52796e-14 1.01179 0
-3.52193e-14 1.00828 0
-2.90007e-14 1.00828 0
6.52796e-14 1.01179 0
3.60761e-14 1.01179 0
-4.14538e-14 1 0
-1.50151e-14 1 0
3.97493e-14 1.00828 0
3.47328e-14 1.00828 0
-1.50151e-14 1 0
-4.14868e-14 1 0
3.47328e-14 1.00828 0
5.5885e-14 1.00828 0
-2.90007e-14 1.00828 0
-4.22623e-14 1.00828 0
3.60761e-14 1.01179 0
1.6615e-14 1.01179 0
-4.22623e-14 1.00828 0
-4.93211e-14 1.00828 0
1.6615e-14 1.01179 0
5.53891e-14 1.01179 0
-3.7119e-14 1.01179 0
-5.36476e-14 1.01179 0
2.69422e-14 1.01637 0
4.05957e-14 1.01637 0
-5.36476e-14 1.01179 0
-3.98545e-14 1.01179 0
4.05957e-14 1.01637 0
6.01086e-14 1.01637 0
-3.39587e-14 1.01637 0
-4.36603e-14 1.01637 0
3.31518e-14 1.02059 0
4.72015e-14 1.02059 0
-4.36603e-14 1.01637 0
-7.53311e-14 1.01637 0
4.72015e-14 1.02059 0
6.05387e-14 1.02059 0
-3.98545e-14 1.01179 0
-3.62368e-14 1.01179 0
6.01086e-14 1.01637 0
5.63494e-14 1.01637 0
-3.62368e-14 1.01179 0
-6.41433e-14 1.01179 0
5.63494e-14 1.01637 0
6.61022e-14 1.01637 0
-7.53311e-14 1.01637 0
-5.07781e-14 1.01637 0
6.05387e-14 1.02059 0
3.8828e-14 1.02059 0
-5.07781e-14 1.01637 0
-6.78353e-14 1.01637 0
3.8828e-14 1.02059 0
6.59588e-14 1.02059 0
0 1.02059 0
-8.2412e-15 1.02059 0
0 1.02481 0
5.95113e-15 1.02481 0
-8.2412e-15 1.02059 0
-3.48526e-14 1.02059 0
5.95113e-15 1.02481 0
2.51042e-14 1.02481 0
0 1.02481 0
-1.41631e-14 1.02481 0
0 1.02893 0
1.57407e-14 1.02893 0
-1.41631e-14 1.02481 0
-8.69563e-15 1.02481 0
1.57407e-14 1.02893 0
3.28063e-15 1.02893 0
-3.48526e-14 1.02059 0
3.7561e-15 1.02059 0
2.51042e-14 1.02481 0
-2.15683e-15 1.02481 0
3.7561e-15 1.02059 0
-1.68727e-14 1.02059 0
-2.15683e-15 1.02481 0
1.57547e-14 1.02481 0
-8.69563e-15 1.02481 0
1.85352e-14 1.02481 0
3.28063e-15 1.02893 0
-1.16688e-14 1.02893 0
1.85352e-14 1.02481 0
-4.0142e-14 1.02481 0
-1.16688e-14 1.02893 0
5.24273e-14 1.02893 0
0 1.02893 0
1.87755e-15 1.02893 0
0 1.03297 0
-8.46309e-15 1.03297 0
1.87755e-15 1.02893 0
2.12001e-14 1.02893 0
-8.46309e-15 1.03297 0
-2.07575e-14 1.03297 0
0 1.03297 0
-8.70295e-16 1.03297 0
0 1.03693 0
1.39173e-14 1.03693 0
-8.70295e-16 1.03297 0
1.40364e-14 1.03297 0
1.39173e-14 1.03693 0
-6.84778e-15 1.03693 0
2.12001e-14 1.02893 0
1.75818e-14 1.02893 0
-2.07575e-14 1.03297 0
-1.06866e-14 1.03297 0
1.75818e-14 1.02893 0
-3.09317e-14 1.02893 0
-1.06866e-14 1.03297 0
3.93523e-14 1.03297 0
1.40364e-14 1.03297 0
-2.71045e-14 1.03297 0
-6.84778e-15 1.03693 0
3.48548e-14 1.03693 0
-2.71045e-14 1.03297 0
-8.59577e-14 1.03297 0
3.48548e-14 1.03693 0
8.13754e-14 1.03693 0
-1.68727e-14 1.02059 0
-2.28177e-14 1.02059 0
1.57547e-14 1.02481 0
1.15063e-14 1.02481 0
-2.28177e-14 1.02059 0
-2.99139e-14 1.02059 0
1.15063e-14 1.02481 0
2.94642e-14 1.02481 0
-4.0142e-14 1.02481 0
-2.03762e-14 1.02481 0
5.24273e-14 1.02893 0
3.85893e-14 1.02893 0
-2.03762e-14 1.02481 0
-2.04453e-14 1.02481 0
3.85893e-14 1.02893 0
2.08168e-14 1.02893 0
-2.99139e-14 1.02059 0
-2.36412e-14 1.02059 0
2.94642e-14 1.02481 0
3.38159e-14 1.02481 0
-2.36412e-14 1.02059 0
-4.24247e-14 1.02059 0
3.38159e-14 1.02481 0
4.12457e-14 1.02481 0
-2.04453e-14 1.02481 0
-1.62504e-14 1.02481 0
2.08168e-14 1.02893 0
1.76338e-14 1.02893 0
-1.62504e-14 1.02481 0
-2.12245e-14 1.02481 0
1.76338e-14 1.02893 0
3.20709e-14 1.02893 0
-3.09317e-14 1.02893 0
-5.5297e-14 1.02893 0
3.93523e-14 1.03297 0
5.60415e-14 1.03297 0
-5.5297e-14 1.02893 0
-2.55416e-14 1.02893 0
5.60415e-14 1.03297 0
2.74467e-14 1.03297 0
-8.59577e-14 1.03297 0
-4.56742e-14 1.03297 0
8.13754e-14 1.03693 0
3.84018e-14 1.03693 0
-4.56742e-14 1.03297 0
-2.70435e-14 1.03297 0
3.84018e-14 1.03693 0
3.5289e-14 1.03693 0
-2.55416e-14 1.02893 0
-3.61583e-14 1.02893 0
2.74467e-14 1.03297 0
4.28976e-14 1.03297 0
-3.61583e-14 1.02893 0
-5.39642e-14 1.02893 0
4.28976e-14 1.03297 0
5.09713e-14 1.03297 0
-2.70435e-14 1.03297 0
-4.13994e-14 1.03297 0
3.5289e-14 1.03693 0
4.76241e-14 1.03693 0
-4.13994e-14 1.03297 0
-3.55684e-14 1.03297 0
4.76241e-14 1.03693 0
3.21215e-14 1.03693 0
-4.14868e-14 1 0
-4.60532e-14 1 0
5.5885e-14 1.00828 0
5.67524e-14 1.00828 0
-4.60532e-14 1 0
-3.13519e-14 1 0
5.67524e-14 1.00828 0
4.36265e-14 1.00828 0
-4.93211e-14 1.00828 0
-4.18362e-14 1.00828 0
5.53891e-14 1.01179 0
4.51362e-14 1.01179 0
-4.18362e-14 1.00828 0
-3.54786e-14 1.00828 0
4.51362e-14 1.01179 0
2.41959e-14 1.01179 0
-3.13519e-14 1 0
-6.9042e-14 1 0
4.36265e-14 1.00828 0
8.4549e-14 1.00828 0
-6.9042e-14 1 0
-4.63933e-14 1 0
8.4549e-14 1.00828 0
6.2508e-14 1.00828 0
-3.54786e-14 1.00828 0
-3.94338e-14 1.00828 0
2.41959e-14 1.01179 0
3.33302e-14 1.01179 0
-3.94338e-14 1.00828 0
-7.02963e-14 1.00828 0
3.33302e-14 1.01179 0
8.48243e-14 1.01179 0
-6.41433e-14 1.01179 0
-4.52129e-14 1.01179 0
6.61022e-14 1.01637 0
4.21535e-14 1.01637 0
-4.52129e-14 1.01179 0
-3.63748e-14 1.01179 0
4.21535e-14 1.01637 0
4.97047e-14 1.01637 0
-6.78353e-14 1.01637 0
-4.44236e-14 1.01637 0
6.59588e-14 1.02059 0
5.12386e-14 1.02059 0
-4.44236e-14 1.01637 0
-4.19365e-14 1.01637 0
5.12386e-14 1.02059 0
3.74367e-14 1.02059 0
-3.63748e-14 1.01179 0
-4.83529e-14 1.01179 0
4.97047e-14 1.01637 0
5.50578e-14 1.01637 0
-4.83529e-14 1.01179 0
-8.19967e-14 1.01179 0
5.50578e-14 1.01637 0
6.57258e-14 1.01637 0
-4.19365e-14 1.01637 0
-4.2909e-14 1.01637 0
3.74367e-14 1.02059 0
3.57346e-14 1.02059 0
-4.2909e-14 1.01637 0
-2.61135e-14 1.01637 0
3.57346e-14 1.02059 0
1.41503e-14 1.02059 0
-4.63933e-14 1 0
-4.51505e-14 1 0
6.2508e-14 1.00828 0
6.85714e-14 1.00828 0
-4.51505e-14 1 0
-4.80846e-14 1 0
6.85714e-14 1.00828 0
5.7011e-14 1.00828 0
-7.02963e-14 1.00828 0
-7.58975e-14 1.00828 0
8.48243e-14 1.01179 0
8.89041e-14 1.01179 0
-7.58975e-14 1.00828 0
-2.24554e-14 1.00828 0
8.89041e-14 1.01179 0
3.10541e-14 1.01179 0
-4.80846e-14 1 0
-4.01088e-14 1 0
5.7011e-14 1.00828 0
6.4215e-14 1.00828 0
-4.01088e-14 1 0
-3.11664e-14 1 0
6.4215e-14 1.00828 0
3.86612e-14 1.00828 0
-2.24554e-14 1.00828 0
-6.92007e-14 1.00828 0
3.10541e-14 1.01179 0
6.49105e-14 1.01179 0
-6.92007e-14 1.00828 0
-2.92265e-14 1.00828 0
6.49105e-14 1.01179 0
3.50002e-14 1.01179 0
-8.19967e-14 1.01179 0
-7.17732e-14 1.01179 0
6.57258e-14 1.01637 0
4.71336e-14 1.01637 0
-7.17732e-14 1.01179 0
-5.1199e-14 1.01179 0
4.71336e-14 1.01637 0
6.0152e-14 1.01637 0
-2.61135e-14 1.01637 0
-1.73507e-14 1.01637 0
1.41503e-14 1.02059 0
2.19861e-14 1.02059 0
-1.73507e-14 1.01637 0
-6.22347e-14 1.01637 0
2.19861e-14 1.02059 0
6.04416e-14 1.02059 0
-5.1199e-14 1.01179 0
-3.19525e-14 1.01179 0
6.0152e-14 1.01637 0
1.44597e-14 1.01637 0
-3.19525e-14 1.01179 0
-3.14208e-14 1.01179 0
1.44597e-14 1.01637 0
3.31078e-14 1.01637 0
-6.22347e-14 1.01637 0
-1.76455e-14 1.01637 0
6.04416e-14 1.02059 0
4.40072e-14 1.02059 0
-1.76455e-14 1.01637 0
-3.26894e-14 1.01637 0
4.40072e-14 1.02059 0
4.43221e-14 1.02059 0
-4.24247e-14 1.02059 0
-2.73143e-14 1.02059 0
4.12457e-14 1.02481 0
2.93606e-14 1.02481 0
-2.73143e-14 1.02059 0
-3.05472e-14 1.02059 0
2.93606e-14 1.02481 0
4.58993e-14 1.02481 0
-2.12245e-14 1.02481 0
-4.26238e-14 1.02481 0
3.20709e-14 1.02893 0
5.32605e-14 1.02893 0
-4.26238e-14 1.02481 0
-4.49832e-14 1.02481 0
5.32605e-14 1.02893 0
5.1765e-14 1.02893 0
-3.05472e-14 1.02059 0
-2.69181e-14 1.02059 0
4.58993e-14 1.02481 0
3.46568e-14 1.02481 0
-2.69181e-14 1.02059 0
-1.00354e-14 1.02059 0
3.46568e-14 1.02481 0
4.17729e-14 1.02481 0
-4.49832e-14 1.02481 0
-2.40511e-14 1.02481 0
5.1765e-14 1.02893 0
2.79326e-14 1.02893 0
-2.40511e-14 1.02481 0
-4.56004e-14 1.02481 0
2.79326e-14 1.02893 0
5.07618e-14 1.02893 0
-5.39642e-14 1.02893 0
-4.12374e-14 1.02893 0
5.09713e-14 1.03297 0
3.80634e-14 1.03297 0
-4.12374e-14 1.02893 0
-4.77662e-14 1.02893 0
3.80634e-14 1.03297 0
5.37868e-14 1.03297 0
-3.55684e-14 1.03297 0
-4.32791e-14 1.03297 0
3.21215e-14 1.03693 0
4.29569e-14 1.03693 0
-4.32791e-14 1.03297 0
-6.83352e-14 1.03297 0
4.29569e-14 1.03693 0
6.31312e-14 1.03693 0
-4.77662e-14 1.02893 0
-2.59716e-14 1.02893 0
5.37868e-14 1.03297 0
2.8464e-14 1.03297 0
-2.59716e-14 1.02893 0
-4.22721e-14 1.02893 0
2.8464e-14 1.03297 0
3.59125e-14 1.03297 0
-6.83352e-14 1.03297 0
-2.44653e-14 1.03297 0
6.31312e-14 1.03693 0
2.74984e-14 1.03693 0
-2.44653e-14 1.03297 0
-4.06424e-14 1.03297 0
2.74984e-14 1.03693 0
6.34032e-14 1.03693 0
-1.00354e-14 1.02059 0
7.34467e-16 1.02059 0
4.17729e-14 1.02481 0
1.34734e-14 1.02481 0
7.34467e-16 1.02059 0
-1.29385e-14 1.02059 0
1.34734e-14 1.02481 0
2.26529e-14 1.02481 0
-4.56004e-14 1.02481 0
-1.23273e-14 1.02481 0
5.07618e-14 1.02893 0
1.45706e-14 1.02893 0
-1.23273e-14 1.02481 0
-3.87455e-14 1.02481 0
1.45706e-14 1.02893 0
3.76216e-14 1.02893 0
-1.29385e-14 1.02059 0
-3.08024e-14 1.02059 0
2.26529e-14 1.02481 0
2.55636e-14 1.02481 0
-3.08024e-14 1.02059 0
-2.43117e-14 1.02059 0
2.55636e-14 1.02481 0
3.52875e-14 1.02481 0
-3.87455e-14 1.02481 0
-2.94573e-14 1.02481 0
3.76216e-14 1.02893 0
4.3657e-14 1.02893 0
-2.94573e-14 1.02481 0
-4.81285e-14 1.02481 0
4.3657e-14 1.02893 0
5.86502e-14 1.02893 0
-4.22721e-14 1.02893 0
-3.40261e-14 1.02893 0
3.59125e-14 1.03297 0
3.79665e-14 1.03297 0
-3.40261e-14 1.02893 0
-4.19523e-14 1.02893 0
3.79665e-14 1.03297 0
5.34464e-14 1.03297 0
-4.06424e-14 1.03297 0
-1.92471e-14 1.03297 0
6.34032e-14 1.03693 0
3.14026e-14 1.03693 0
-1.92471e-14 1.03297 0
-2.49765e-14 1.03297 0
3.14026e-14 1.03693 0
2.48519e-14 1.03693 0
-4.19523e-14 1.02893 0
-4.89953e-14 1.02893 0
5.34464e-14 1.03297 0
5.39089e-14 1.03297 0
-4.89953e-14 1.02893 0
-4.62776e-14 1.02893 0
5.39089e-14 1.03297 0
5.52868e-14 1.03297 0
-2.49765e-14 1.03297 0
-1.95856e-14 1.03297 0
2.48519e-14 1.03693 0
1.99496e-14 1.03693 0
-1.95856e-14 1.03297 0
-4.11175e-14 1.03297 0
1.99496e-14 1.03693 0
4.69491e-14 1.03693 0
0 1.03693 0
-2.03799e-14 1.03693 0
0 1.0408 0
2.03585e-14 1.0408 0
-2.03799e-14 1.03693 0
-9.23195e-15 1.03693 0
2.03585e-14 1.0408 0
1.2771e-14 1.0408 0
0 1.0408 0
-1.75096e-14 1.0408 0
0 1.04459 0
2.08201e-14 1.04459 0
-1.75096e-14 1.0408 0
-1.31035e-14 1.0408 0
2.08201e-14 1.04459 0
1.64936e-14 1.04459 0
-9.23195e-15 1.03693 0
-4.67744e-14 1.03693 0
1.2771e-14 1.0408 0
4.7555e-14 1.0408 0
-4.67744e-14 1.03693 0
-5.65195e-14 1.03693 0
4.7555e-14 1.0408 0
5.79445e-14 1.0408 0
-1.31035e-14 1.0408 0
-2.78339e-14 1.0408 0
1.64936e-14 1.04459 0
2.19106e-14 1.04459 0
-2.78339e-14 1.0408 0
-4.71038e-14 1.0408 0
2.19106e-14 1.04459 0
4.43367e-14 1.04459 0
0 1.04459 0
-2.59198e-14 1.04459 0
0 1.04829 0
2.53998e-14 1.04829 0
-2.59198e-14 1.04459 0
-1.62962e-14 1.04459 0
2.53998e-14 1.04829 0
2.16505e-14 1.04829 0
0 1.04829 0
-1.17978e-14 1.04829 0
0 1.05191 0
2.33102e-15 1.05191 0
-1.17978e-14 1.04829 0
-1.35823e-14 1.04829 0
2.33102e-15 1.05191 0
-4.25214e-15 1.05191 0
-1.62962e-14 1.04459 0
-3.38318e-14 1.04459 0
2.16505e-14 1.04829 0
2.97703e-14 1.04829 0
-3.38318e-14 1.04459 0
-5.92506e-14 1.04459 0
2.97703e-14 1.04829 0
5.4424e-14 1.04829 0
-1.35823e-14 1.04829 0
4.93123e-15 1.04829 0
-4.25214e-15 1.05191 0
-1.15974e-14 1.05191 0
4.93123e-15 1.04829 0
-3.35098e-14 1.04829 0
-1.15974e-14 1.05191 0
2.33925e-14 1.05191 0
-5.65195e-14 1.03693 0
-4.99136e-14 1.03693 0
5.79445e-14 1.0408 0
5.80603e-14 1.0408 0
-4.99136e-14 1.03693 0
-5.23247e-14 1.03693 0
5.80603e-14 1.0408 0
4.74952e-14 1.0408 0
-4.71038e-14 1.0408 0
-4.22203e-14 1.0408 0
4.43367e-14 1.04459 0
3.85866e-14 1.04459 0
-4.22203e-14 1.0408 0
-3.32499e-14 1.0408 0
3.85866e-14 1.04459 0
3.21857e-14 1.04459 0
-5.23247e-14 1.03693 0
-5.48549e-14 1.03693 0
4.74952e-14 1.0408 0
4.57567e-14 1.0408 0
-5.48549e-14 1.03693 0
-2.80286e-14 1.03693 0
4.57567e-14 1.0408 0
3.12077e-14 1.0408 0
-3.32499e-14 1.0408 0
-3.52716e-14 1.0408 0
3.21857e-14 1.04459 0
3.92299e-14 1.04459 0
-3.52716e-14 1.0408 0
-5.05256e-14 1.0408 0
3.92299e-14 1.04459 0
5.57625e-14 1.04459 0
-5.92506e-14 1.04459 0
-5.1693e-14 1.04459 0
5.4424e-14 1.04829 0
5.1337e-14 1.04829 0
-5.1693e-14 1.04459 0
-4.61547e-14 1.04459 0
5.1337e-14 1.04829 0
5.19336e-14 1.04829 0
-3.35098e-14 1.04829 0
-4.8648e-14 1.04829 0
2.33925e-14 1.05191 0
5.39e-14 1.05191 0
-4.8648e-14 1.04829 0
-4.90256e-14 1.04829 0
5.39e-14 1.05191 0
4.81404e-14 1.05191 0
-4.61547e-14 1.04459 0
-5.68736e-14 1.04459 0
5.19336e-14 1.04829 0
6.10738e-14 1.04829 0
-5.68736e-14 1.04459 0
-4.31782e-14 1.04459 0
6.10738e-14 1.04829 0
3.27594e-14 1.04829 0
-4.90256e-14 1.04829 0
-5.04128e-14 1.04829 0
4.81404e-14 1.05191 0
4.45735e-14 1.05191 0
-5.04128e-14 1.04829 0
-1.85712e-14 1.04829 0
4.45735e-14 1.05191 0
1.30923e-14 1.05191 0
0 1.05191 0
-1.60628e-14 1.05191 0
0 1.05545 0
1.75894e-14 1.05545 0
-1.60628e-14 1.05191 0
6.87865e-15 1.05191 0
1.75894e-14 1.05545 0
-8.96874e-15 1.05545 0
0 1.05545 0
-2.1606e-14 1.05545 0
0 1.05892 0
2.26733e-14 1.05892 0
-2.1606e-14 1.05545 0
1.062e-14 1.05545 0
2.26733e-14 1.05892 0
-6.28077e-15 1.05892 0
6.87865e-15 1.05191 0
1.78441e-14 1.05191 0
-8.96874e-15 1.05545 0
-1.01332e-14 1.05545 0
1.78441e-14 1.05191 0
7.04487e-15 1.05191 0
-1.01332e-14 1.05545 0
-1.1871e-14 1.05545 0
1.062e-14 1.05545 0
-1.92981e-14 1.05545 0
-6.28077e-15 1.05892 0
2.07901e-14 1.05892 0
-1.92981e-14 1.05545 0
-3.69836e-15 1.05545 0
2.07901e-14 1.05892 0
1.05803e-14 1.05892 0
0 1.05892 0
1.92588e-16 1.05892 0
0 1.06231 0
2.4292e-15 1.06231 0
1.92588e-16 1.05892 0
6.09919e-15 1.05892 0
2.4292e-15 1.06231 0
-2.88284e-15 1.06231 0
0 1.06231 0
-1.71935e-14 1.06231 0
0 1.06564 0
1.49708e-14 1.06564 0
-1.71935e-14 1.06231 0
-5.861e-15 1.06231 0
1.49708e-14 1.06564 0
8.86791e-15 1.06564 0
6.09919e-15 1.05892 0
-5.38756e-15 1.05892 0
-2.88284e-15 1.06231 0
-1.19105e-15 1.06231 0
-5.38756e-15 1.05892 0
-3.29835e-14 1.05892 0
-1.19105e-15 1.06231 0
3.64123e-14 1.06231 0
-5.861e-15 1.06231 0
4.73544e-15 1.06231 0
8.86791e-15 1.06564 0
-1.12119e-15 1.06564 0
4.73544e-15 1.06231 0
-2.15114e-14 1.06231 0
-1.12119e-15 1.06564 0
2.18732e-14 1.06564 0
7.04487e-15 1.05191 0
-4.72037e-14 1.05191 0
-1.1871e-14 1.05545 0
4.38904e-14 1.05545 0
-4.72037e-14 1.05191 0
-3.87151e-14 1.05191 0
4.38904e-14 1.05545 0
3.92119e-14 1.05545 0
-3.69836e-15 1.05545 0
-4.74259e-14 1.05545 0
1.05803e-14 1.05892 0
4.19889e-14 1.05892 0
-4.74259e-14 1.05545 0
-4.47275e-14 1.05545 0
4.19889e-14 1.05892 0
4.56939e-14 1.05892 0
-3.87151e-14 1.05191 0
-5.76854e-14 1.05191 0
3.92119e-14 1.05545 0
5.97672e-14 1.05545 0
-5.76854e-14 1.05191 0
-1.09601e-14 1.05191 0
5.97672e-14 1.05545 0
2.43249e-14 1.05545 0
-4.47275e-14 1.05545 0
-5.24197e-14 1.05545 0
4.56939e-14 1.05892 0
4.87805e-14 1.05892 0
-5.24197e-14 1.05545 0
-6.04929e-14 1.05545 0
4.87805e-14 1.05892 0
6.37234e-14 1.05892 0
-3.29835e-14 1.05892 0
-4.15113e-14 1.05892 0
3.64123e-14 1.06231 0
4.54032e-14 1.06231 0
-4.15113e-14 1.05892 0
-4.99207e-14 1.05892 0
4.54032e-14 1.06231 0
5.62704e-14 1.06231 0
-2.15114e-14 1.06231 0
-4.75049e-14 1.06231 0
2.18732e-14 1.06564 0
4.36001e-14 1.06564 0
-4.75049e-14 1.06231 0
-4.85701e-14 1.06231 0
4.36001e-14 1.06564 0
4.16682e-14 1.06564 0
-4.99207e-14 1.05892 0
-4.21272e-14 1.05892 0
5.62704e-14 1.06231 0
4.54568e-14 1.06231 0
-4.21272e-14 1.05892 0
-4.82678e-14 1.05892 0
4.54568e-14 1.06231 0
5.309e-14 1.06231 0
-4.85701e-14 1.06231 0
-3.64059e-14 1.06231 0
4.16682e-14 1.06564 0
3.37068e-14 1.06564 0
-3.64059e-14 1.06231 0
-4.58748e-14 1.06231 0
3.37068e-14 1.06564 0
3.03594e-14 1.06564 0
-2.80286e-14 1.03693 0
-4.09558e-14 1.03693 0
3.12077e-14 1.0408 0
4.40287e-14 1.0408 0
-4.09558e-14 1.03693 0
-5.58709e-14 1.03693 0
4.40287e-14 1.0408 0
5.69383e-14 1.0408 0
-5.05256e-14 1.0408 0
-3.29582e-14 1.0408 0
5.57625e-14 1.04459 0
2.56079e-14 1.04459 0
-3.29582e-14 1.0408 0
-4.76341e-14 1.0408 0
2.56079e-14 1.04459 0
4.94397e-14 1.04459 0
-5.58709e-14 1.03693 0
-3.60143e-14 1.03693 0
5.69383e-14 1.0408 0
4.25205e-14 1.0408 0
-3.60143e-14 1.03693 0
-6.34729e-14 1.03693 0
4.25205e-14 1.0408 0
6.06417e-14 1.0408 0
-4.76341e-14 1.0408 0
-4.65309e-14 1.0408 0
4.94397e-14 1.04459 0
4.94241e-14 1.04459 0
-4.65309e-14 1.0408 0
-7.68108e-14 1.0408 0
4.94241e-14 1.04459 0
7.65373e-14 1.04459 0
-4.31782e-14 1.04459 0
-3.25519e-14 1.04459 0
3.27594e-14 1.04829 0
3.51591e-14 1.04829 0
-3.25519e-14 1.04459 0
-4.59997e-14 1.04459 0
3.51591e-14 1.04829 0
4.36159e-14 1.04829 0
-1.85712e-14 1.04829 0
-3.51201e-14 1.04829 0
1.30923e-14 1.05191 0
3.83212e-14 1.05191 0
-3.51201e-14 1.04829 0
-3.9938e-14 1.04829 0
3.83212e-14 1.05191 0
3.83922e-14 1.05191 0
-4.59997e-14 1.04459 0
-4.6028e-14 1.04459 0
4.36159e-14 1.04829 0
4.77672e-14 1.04829 0
-4.6028e-14 1.04459 0
-5.82406e-14 1.04459 0
4.77672e-14 1.04829 0
5.28394e-14 1.04829 0
-3.9938e-14 1.04829 0
-3.97342e-14 1.04829 0
3.83922e-14 1.05191 0
3.78172e-14 1.05191 0
-3.97342e-14 1.04829 0
-3.35277e-14 1.04829 0
3.78172e-14 1.05191 0
3.53277e-14 1.05191 0
-6.34729e-14 1.03693 0
-2.85086e-14 1.03693 0
6.06417e-14 1.0408 0
1.6291e-14 1.0408 0
-2.85086e-14 1.03693 0
-3.29137e-14 1.03693 0
1.6291e-14 1.0408 0
3.46181e-14 1.0408 0
-7.68108e-14 1.0408 0
-2.37477e-15 1.0408 0
7.65373e-14 1.04459 0
5.6865e-15 1.04459 0
-2.37477e-15 1.0408 0
-3.38085e-14 1.0408 0
5.6865e-15 1.04459 0
4.19184e-14 1.04459 0
-3.29137e-14 1.03693 0
-1.93791e-14 1.03693 0
3.46181e-14 1.0408 0
1.78268e-14 1.0408 0
-1.93791e-14 1.03693 0
-4.68166e-14 1.03693 0
1.78268e-14 1.0408 0
4.47678e-14 1.0408 0
-3.38085e-14 1.0408 0
-2.89049e-14 1.0408 0
4.19184e-14 1.04459 0
3.09328e-14 1.04459 0
-2.89049e-14 1.0408 0
-4.64529e-14 1.0408 0
3.09328e-14 1.04459 0
4.02153e-14 1.04459 0
-5.82406e-14 1.04459 0
-1.41493e-14 1.04459 0
5.28394e-14 1.04829 0
2.11644e-14 1.04829 0
-1.41493e-14 1.04459 0
-4.36165e-14 1.04459 0
2.11644e-14 1.04829 0
3.4058e-14 1.04829 0
-3.35277e-14 1.04829 0
-1.87494e-14 1.04829 0
3.53277e-14 1.05191 0
2.10815e-14 1.05191 0
-1.87494e-14 1.04829 0
-1.29876e-14 1.04829 0
2.10815e-14 1.05191 0
1.79144e-14 1.05191 0
-4.36165e-14 1.04459 0
-2.30504e-14 1.04459 0
3.4058e-14 1.04829 0
2.24394e-14 1.04829 0
-2.30504e-14 1.04459 0
-3.25822e-14 1.04459 0
2.24394e-14 1.04829 0
2.91257e-14 1.04829 0
-1.29876e-14 1.04829 0
-1.25937e-14 1.04829 0
1.79144e-14 1.05191 0
9.84968e-15 1.05191 0
-1.25937e-14 1.04829 0
-1.94112e-15 1.04829 0
9.84968e-15 1.05191 0
8.89322e-15 1.05191 0
-1.09601e-14 1.05191 0
-3.99984e-14 1.05191 0
2.43249e-14 1.05545 0
3.48047e-14 1.05545 0
-3.99984e-14 1.05191 0
-3.7441e-14 1.05191 0
3.48047e-14 1.05545 0
2.64566e-14 1.05545 0
-6.04929e-14 1.05545 0
-4.10062e-14 1.05545 0
6.37234e-14 1.05892 0
3.92071e-14 1.05892 0
-4.10062e-14 1.05545 0
-1.25956e-14 1.05545 0
3.92071e-14 1.05892 0
1.33701e-14 1.05892 0
-3.7441e-14 1.05191 0
-4.48753e-14 1.05191 0
2.64566e-14 1.05545 0
4.45525e-14 1.05545 0
-4.48753e-14 1.05191 0