# vtk DataFile Version 3.0
#This file was generated by the deal.II library on 2018/10/14 at 18:21:41
ASCII
DATASET UNSTRUCTURED_GRID

POINTS 20480 double
0 0 0
0.19635 0 0
0 0.31138 0
0.19635 0.31138 0
0.19635 0 0
0.392699 0 0
0.19635 0.31138 0
0.392699 0.31138 0
0 0.31138 0
0.19635 0.31138 0
0 0.623911 0
0.19635 0.623911 0
0.19635 0.31138 0
0.392699 0.31138 0
0.19635 0.623911 0
0.392699 0.623911 0
0.392699 0 0
0.589049 0 0
0.392699 0.31138 0
0.589049 0.31138 0
0.589049 0 0
0.785398 0 0
0.589049 0.31138 0
0.785398 0.31138 0
0.392699 0.31138 0
0.589049 0.31138 0
0.392699 0.623911 0
0.589049 0.623911 0
0.589049 0.31138 0
0.785398 0.31138 0
0.589049 0.623911 0
0.785398 0.623911 0
0 0.623911 0
0.19635 0.623911 0
0 0.936394 0
0.19635 0.936394 0
0.19635 0.623911 0
0.392699 0.623911 0
0.19635 0.936394 0
0.392699 0.936394 0
0 0.936394 0
0.19635 0.936394 0
0 1.24891 0
0.19635 1.24891 0
0.19635 0.936394 0
0.392699 0.936394 0
0.19635 1.24891 0
0.392699 1.24891 0
0.392699 0.623911 0
0.589049 0.623911 0
0.392699 0.936394 0
0.589049 0.936394 0
0.589049 0.623911 0
0.785398 0.623911 0
0.589049 0.936394 0
0.785398 0.936394 0
0.392699 0.936394 0
0.589049 0.936394 0
0.392699 1.24891 0
0.589049 1.24891 0
0.589049 0.936394 0
0.785398 0.936394 0
0.589049 1.24891 0
0.785398 1.24891 0
0.785398 0 0
0.981748 0 0
0.785398 0.31138 0
0.981748 0.31138 0
0.981748 0 0
1.1781 0 0
0.981748 0.31138 0
1.1781 0.31138 0
0.785398 0.31138 0
0.981748 0.31138 0
0.785398 0.623911 0
0.981748 0.623911 0
0.981748 0.31138 0
1.1781 0.31138 0
0.981748 0.623911 0
1.1781 0.623911 0
1.1781 0 0
1.37445 0 0
1.1781 0.31138 0
1.37445 0.31138 0
1.37445 0 0
1.5708 0 0
1.37445 0.31138 0
1.5708 0.31138 0
1.1781 0.31138 0
1.37445 0.31138 0
1.1781 0.623911 0
1.37445 0.623911 0
1.37445 0.31138 0
1.5708 0.31138 0
1.37445 0.623911 0
1.5708 0.623911 0
0.785398 0.623911 0
0.981748 0.623911 0
0.785398 0.936394 0
0.981748 0.936394 0
0.981748 0.623911 0
1.1781 0.623911 0
0.981748 0.936394 0
1.1781 0.936394 0
0.785398 0.936394 0
0.981748 0.936394 0
0.785398 1.24891 0
0.981748 1.24891 0
0.981748 0.936394 0
1.1781 0.936394 0
0.981748 1.24891 0
1.1781 1.24891 0
1.1781 0.623911 0
1.37445 0.623911 0
1.1781 0.936394 0
1.37445 0.936394 0
1.37445 0.623911 0
1.5708 0.623911 0
1.37445 0.936394 0
1.5708 0.936394 0
1.1781 0.936394 0
1.37445 0.936394 0
1.1781 1.24891 0
1.37445 1.24891 0
1.37445 0.936394 0
1.5708 0.936394 0
1.37445 1.24891 0
1.5708 1.24891 0
0 1.24891 0
0.19635 1.24891 0
0 1.56142 0
0.19635 1.56142 0
0.19635 1.24891 0
0.392699 1.24891 0
0.19635 1.56142 0
0.392699 1.56142 0
0 1.56142 0
0.19635 1.56142 0
0 1.87392 0
0.19635 1.87392 0
0.19635 1.56142 0
0.392699 1.56142 0
0.19635 1.87392 0
0.392699 1.87392 0
0.392699 1.24891 0
0.589049 1.24891 0
0.392699 1.56142 0
0.589049 1.56142 0
0.589049 1.24891 0
0.785398 1.24891 0
0.589049 1.56142 0
0.785398 1.56142 0
0.392699 1.56142 0
0.589049 1.56142 0
0.392699 1.87392 0
0.589049 1.87392 0
0.589049 1.56142 0
0.785398 1.56142 0
0.589049 1.87392 0
0.785398 1.87392 0
0 1.87392 0
0.19635 1.87392 0
0 2.18642 0
0.19635 2.18642 0
0.19635 1.87392 0
0.392699 1.87392 0
0.19635 2.18642 0
0.392699 2.18642 0
0 2.18642 0
0.19635 2.18642 0
0 2.49891 0
0.19635 2.49891 0
0.19635 2.18642 0
0.392699 2.18642 0
0.19635 2.49891 0
0.392699 2.49891 0
0.392699 1.87392 0
0.589049 1.87392 0
0.392699 2.18642 0
0.589049 2.18642 0
0.589049 1.87392 0
0.785398 1.87392 0
0.589049 2.18642 0
0.785398 2.18642 0
0.392699 2.18642 0
0.589049 2.18642 0
0.392699 2.49891 0
0.589049 2.49891 0
0.589049 2.18642 0
0.785398 2.18642 0
0.589049 2.49891 0
0.785398 2.49891 0
0.785398 1.24891 0
0.981748 1.24891 0
0.785398 1.56142 0
0.981748 1.56142 0
0.981748 1.24891 0
1.1781 1.24891 0
0.981748 1.56142 0
1.1781 1.56142 0
0.785398 1.56142 0
0.981748 1.56142 0
0.785398 1.87392 0
0.981748 1.87392 0
0.981748 1.56142 0
1.1781 1.56142 0
0.981748 1.87392 0
1.1781 1.87392 0
1.1781 1.24891 0
1.37445 1.24891 0
1.1781 1.56142 0
1.37445 1.56142 0
1.37445 1.24891 0
1.5708 1.24891 0
1.37445 1.56142 0
1.5708 1.56142 0
1.1781 1.56142 0
1.37445 1.56142 0
1.1781 1.87392 0
1.37445 1.87392 0
1.37445 1.56142 0
1.5708 1.56142 0
1.37445 1.87392 0
1.5708 1.87392 0
0.785398 1.87392 0
0.981748 1.87392 0
0.785398 2.18642 0
0.981748 2.18642 0
0.981748 1.87392 0
1.1781 1.87392 0
0.981748 2.18642 0
1.1781 2.18642 0
0.785398 2.18642 0
0.981748 2.18642 0
0.785398 2.49891 0
0.981748 2.49891 0
0.981748 2.18642 0
1.1781 2.18642 0
0.981748 2.49891 0
1.1781 2.49891 0
1.1781 1.87392 0
1.37445 1.87392 0
1.1781 2.18642 0
1.37445 2.18642 0
1.37445 1.87392 0
1.5708 1.87392 0
1.37445 2.18642 0
1.5708 2.18642 0
1.1781 2.18642 0
1.37445 2.18642 0
1.1781 2.49891 0
1.37445 2.49891 0
1.37445 2.18642 0
1.5708 2.18642 0
1.37445 2.49891 0
1.5708 2.49891 0
1.5708 0 0
1.76715 0 0
1.5708 0.31138 0
1.76715 0.31138 0
1.76715 0 0
1.9635 0 0
1.76715 0.31138 0
1.9635 0.31138 0
1.5708 0.31138 0
1.76715 0.31138 0
1.5708 0.623911 0
1.76715 0.623911 0
1.76715 0.31138 0
1.9635 0.31138 0
1.76715 0.623911 0
1.9635 0.623911 0
1.9635 0 0
2.15984 0 0
1.9635 0.31138 0
2.15984 0.31138 0
2.15984 0 0
2.35619 0 0
2.15984 0.31138 0
2.35619 0.31138 0
1.9635 0.31138 0
2.15984 0.31138 0
1.9635 0.623911 0
2.15984 0.623911 0
2.15984 0.31138 0
2.35619 0.31138 0
2.15984 0.623911 0
2.35619 0.623911 0
1.5708 0.623911 0
1.76715 0.623911 0
1.5708 0.936394 0
1.76715 0.936394 0
1.76715 0.623911 0
1.9635 0.623911 0
1.76715 0.936394 0
1.9635 0.936394 0
1.5708 0.936394 0
1.76715 0.936394 0
1.5708 1.24891 0
1.76715 1.24891 0
1.76715 0.936394 0
1.9635 0.936394 0
1.76715 1.24891 0
1.9635 1.24891 0
1.9635 0.623911 0
2.15984 0.623911 0
1.9635 0.936394 0
2.15984 0.936394 0
2.15984 0.623911 0
2.35619 0.623911 0
2.15984 0.936394 0
2.35619 0.936394 0
1.9635 0.936394 0
2.15984 0.936394 0
1.9635 1.24891 0
2.15984 1.24891 0
2.15984 0.936394 0
2.35619 0.936394 0
2.15984 1.24891 0
2.35619 1.24891 0
2.35619 0 0
2.55254 0 0
2.35619 0.31138 0
2.55254 0.31138 0
2.55254 0 0
2.74889 0 0
2.55254 0.31138 0
2.74889 0.31138 0
2.35619 0.31138 0
2.55254 0.31138 0
2.35619 0.623911 0
2.55254 0.623911 0
2.55254 0.31138 0
2.74889 0.31138 0
2.55254 0.623911 0
2.74889 0.623911 0
2.74889 0 0
2.94524 0 0
2.74889 0.31138 0
2.94524 0.31138 0
2.94524 0 0
3.14159 0 0
2.94524 0.31138 0
3.14159 0.31138 0
2.74889 0.31138 0
2.94524 0.31138 0
2.74889 0.623911 0
2.94524 0.623911 0
2.94524 0.31138 0
3.14159 0.31138 0
2.94524 0.623911 0
3.14159 0.623911 0
2.35619 0.623911 0
2.55254 0.623911 0
2.35619 0.936394 0
2.55254 0.936394 0
2.55254 0.623911 0
2.74889 0.623911 0
2.55254 0.936394 0
2.74889 0.936394 0
2.35619 0.936394 0
2.55254 0.936394 0
2.35619 1.24891 0
2.55254 1.24891 0
2.55254 0.936394 0
2.74889 0.936394 0
2.55254 1.24891 0
2.74889 1.24891 0
2.74889 0.623911 0
2.94524 0.623911 0
2.74889 0.936394 0
2.94524 0.936394 0
2.94524 0.623911 0
3.14159 0.623911 0
2.94524 0.936394 0
3.14159 0.936394 0
2.74889 0.936394 0
2.94524 0.936394 0
2.74889 1.24891 0
2.94524 1.24891 0
2.94524 0.936394 0
3.14159 0.936394 0
2.94524 1.24891 0
3.14159 1.24891 0
1.5708 1.24891 0
1.76715 1.24891 0
1.5708 1.56142 0
1.76715 1.56142 0
1.76715 1.24891 0
1.9635 1.24891 0
1.76715 1.56142 0
1.9635 1.56142 0
1.5708 1.56142 0
1.76715 1.56142 0
1.5708 1.87392 0
1.76715 1.87392 0
1.76715 1.56142 0
1.9635 1.56142 0
1.76715 1.87392 0
1.9635 1.87392 0
1.9635 1.24891 0
2.15984 1.24891 0
1.9635 1.56142 0
2.15984 1.56142 0
2.15984 1.24891 0
2.35619 1.24891 0
2.15984 1.56142 0
2.35619 1.56142 0
1.9635 1.56142 0
2.15984 1.56142 0
1.9635 1.87392 0
2.15984 1.87392 0
2.15984 1.56142 0
2.35619 1.56142 0
2.15984 1.87392 0
2.35619 1.87392 0
1.5708 1.87392 0
1.76715 1.87392 0
1.5708 2.18642 0
1.76715 2.18642 0
1.76715 1.87392 0
1.9635 1.87392 0
1.76715 2.18642 0
1.9635 2.18642 0
1.5708 2.18642 0
1.76715 2.18642 0
1.5708 2.49891 0
1.76715 2.49891 0
1.76715 2.18642 0
1.9635 2.18642 0
1.76715 2.49891 0
1.9635 2.49891 0
1.9635 1.87392 0
2.15984 1.87392 0
1.9635 2.18642 0
2.15984 2.18642 0
2.15984 1.87392 0
2.35619 1.87392 0
2.15984 2.18642 0
2.35619 2.18642 0
1.9635 2.18642 0
2.15984 2.18642 0
1.9635 2.49891 0
2.15984 2.49891 0
2.15984 2.18642 0
2.35619 2.18642 0
2.15984 2.49891 0
2.35619 2.49891 0
2.35619 1.24891 0
2.55254 1.24891 0
2.35619 1.56142 0
2.55254 1.56142 0
2.55254 1.24891 0
2.74889 1.24891 0
2.55254 1.56142 0
2.74889 1.56142 0
2.35619 1.56142 0
2.55254 1.56142 0
2.35619 1.87392 0
2.55254 1.87392 0
2.55254 1.56142 0
2.74889 1.56142 0
2.55254 1.87392 0
2.74889 1.87392 0
2.74889 1.24891 0
2.94524 1.24891 0
2.74889 1.56142 0
2.94524 1.56142 0
2.94524 1.24891 0
3.14159 1.24891 0
2.94524 1.56142 0
3.14159 1.56142 0
2.74889 1.56142 0
2.94524 1.56142 0
2.74889 1.87392 0
2.94524 1.87392 0
2.94524 1.56142 0
3.14159 1.56142 0
2.94524 1.87392 0
3.14159 1.87392 0
2.35619 1.87392 0
2.55254 1.87392 0
2.35619 2.18642 0
2.55254 2.18642 0
2.55254 1.87392 0
2.74889 1.87392 0
2.55254 2.18642 0
2.74889 2.18642 0
2.35619 2.18642 0
2.55254 2.18642 0
2.35619 2.49891 0
2.55254 2.49891 0
2.55254 2.18642 0
2.74889 2.18642 0
2.55254 2.49891 0
2.74889 2.49891 0
2.74889 1.87392 0
2.94524 1.87392 0
2.74889 2.18642 0
2.94524 2.18642 0
2.94524 1.87392 0
3.14159 1.87392 0
2.94524 2.18642 0
3.14159 2.18642 0
2.74889 2.18642 0
2.94524 2.18642 0
2.74889 2.49891 0
2.94524 2.49891 0
2.94524 2.18642 0
3.14159 2.18642 0
2.94524 2.49891 0
3.14159 2.49891 0
0 2.49891 0
0.19635 2.49891 0
0 2.8114 0
0.19635 2.8114 0
0.19635 2.49891 0
0.392699 2.49891 0
0.19635 2.8114 0
0.392699 2.8114 0
0 2.8114 0
0.19635 2.8114 0
0 3.12388 0
0.19635 3.12388 0
0.19635 2.8114 0
0.392699 2.8114 0
0.19635 3.12388 0
0.392699 3.12388 0
0.392699 2.49891 0
0.589049 2.49891 0
0.392699 2.8114 0
0.589049 2.8114 0
0.589049 2.49891 0
0.785398 2.49891 0
0.589049 2.8114 0
0.785398 2.8114 0
0.392699 2.8114 0
0.589049 2.8114 0
0.392699 3.12388 0
0.589049 3.12388 0
0.589049 2.8114 0
0.785398 2.8114 0
0.589049 3.12388 0
0.785398 3.12388 0
0 3.12388 0
0.19635 3.12388 0
0 3.43636 0
0.19635 3.43636 0
0.19635 3.12388 0
0.392699 3.12388 0
0.19635 3.43636 0
0.392699 3.43636 0
0 3.43636 0
0.19635 3.43636 0
0 3.74884 0
0.19635 3.74884 0
[...]
POINT_DATA 20480
VECTORS uf double
0 1 0
-2.59374e-14 1 0
0 1.00635 0
2.92767e-14 1.00635 0
-2.59374e-14 1 0
-5.40501e-14 1 0
2.92767e-14 1.00635 0
5.56246e-14 1.00635 0
0 1.00635 0
-2.93237e-14 1.00635 0
0 1.00944 0
3.96172e-14 1.00944 0
-2.93237e-14 1.00635 0
-2.44183e-14 1.00635 0
3.96172e-14 1.00944 0
3.28432e-14 1.00944 0
-5.40501e-14 1 0
-4.47895e-14 1 0
5.56246e-14 1.00635 0
5.62512e-14 1.00635 0
-4.47895e-14 1 0
-2.20895e-14 1 0
5.62512e-14 1.00635 0
8.74583e-15 1.00635 0
-2.44183e-14 1.00635 0
-5.85133e-14 1.00635 0
3.28432e-14 1.00944 0
6.06718e-14 1.00944 0
-5.85133e-14 1.00635 0
-4.23599e-14 1.00635 0
6.06718e-14 1.00944 0
6.39708e-14 1.00944 0
0 1.00944 0
-4.10595e-14 1.00944 0
0 1.01326 0
3.19753e-14 1.01326 0
-4.10595e-14 1.00944 0
-3.71848e-14 1.00944 0
3.19753e-14 1.01326 0
3.45798e-14 1.01326 0
0 1.01326 0
-1.53006e-14 1.01326 0
0 1.01683 0
8.17633e-15 1.01683 0
-1.53006e-14 1.01326 0
-4.41903e-14 1.01326 0
8.17633e-15 1.01683 0
6.2163e-14 1.01683 0
-3.71848e-14 1.00944 0
-8.83369e-14 1.00944 0
3.45798e-14 1.01326 0
9.69763e-14 1.01326 0
-8.83369e-14 1.00944 0
-5.14691e-14 1.00944 0
9.69763e-14 1.01326 0
6.42069e-14 1.01326 0
-4.41903e-14 1.01326 0
-5.72492e-14 1.01326 0
6.2163e-14 1.01683 0
4.4744e-14 1.01683 0
-5.72492e-14 1.01326 0
-6.21521e-14 1.01326 0
4.4744e-14 1.01683 0
4.84165e-14 1.01683 0
-2.20895e-14 1 0
-3.87529e-14 1 0
8.74583e-15 1.00635 0
4.49888e-14 1.00635 0
-3.87529e-14 1 0
-6.17537e-14 1 0
4.49888e-14 1.00635 0
6.59911e-14 1.00635 0
-4.23599e-14 1.00635 0
-7.99884e-14 1.00635 0
6.39708e-14 1.00944 0
9.72867e-14 1.00944 0
-7.99884e-14 1.00635 0
-5.55684e-14 1.00635 0
9.72867e-14 1.00944 0
6.65272e-14 1.00944 0
-6.17537e-14 1 0
-4.69063e-14 1 0
6.59911e-14 1.00635 0
6.17804e-14 1.00635 0
-4.69063e-14 1 0
-6.97316e-14 1 0
6.17804e-14 1.00635 0
8.35174e-14 1.00635 0
-5.55684e-14 1.00635 0
-6.66554e-14 1.00635 0
6.65272e-14 1.00944 0
6.67284e-14 1.00944 0
-6.66554e-14 1.00635 0
-6.61845e-14 1.00635 0
6.67284e-14 1.00944 0
7.06231e-14 1.00944 0
-5.14691e-14 1.00944 0
-8.58165e-14 1.00944 0
6.42069e-14 1.01326 0
7.13294e-14 1.01326 0
-8.58165e-14 1.00944 0
-9.47514e-14 1.00944 0
7.13294e-14 1.01326 0
1.03269e-13 1.01326 0
-6.21521e-14 1.01326 0
-5.75317e-14 1.01326 0
4.84165e-14 1.01683 0
5.8191e-14 1.01683 0
-5.75317e-14 1.01326 0
-1.05397e-13 1.01326 0
5.8191e-14 1.01683 0
1.02688e-13 1.01683 0
-9.47514e-14 1.00944 0
-7.84798e-14 1.00944 0
1.03269e-13 1.01326 0
7.55628e-14 1.01326 0
-7.84798e-14 1.00944 0
-7.71094e-14 1.00944 0
7.55628e-14 1.01326 0
8.70872e-14 1.01326 0
-1.05397e-13 1.01326 0
-5.65703e-14 1.01326 0
1.02688e-13 1.01683 0
5.38268e-14 1.01683 0
-5.65703e-14 1.01326 0
-1.09163e-13 1.01326 0
5.38268e-14 1.01683 0
1.00744e-13 1.01683 0
0 1.01683 0
-5.2098e-15 1.01683 0
0 1.02039 0
1.34981e-14 1.02039 0
-5.2098e-15 1.01683 0
-6.08803e-14 1.01683 0
1.34981e-14 1.02039 0
4.53351e-14 1.02039 0
0 1.02039 0
-5.62452e-14 1.02039 0
0 1.02388 0
6.20741e-14 1.02388 0
-5.62452e-14 1.02039 0
-1.14769e-14 1.02039 0
6.20741e-14 1.02388 0
1.02374e-15 1.02388 0
-6.08803e-14 1.01683 0
-3.47349e-14 1.01683 0
4.53351e-14 1.02039 0
2.19611e-14 1.02039 0
-3.47349e-14 1.01683 0
-1.40919e-14 1.01683 0
2.19611e-14 1.02039 0
5.90448e-15 1.02039 0
-1.14769e-14 1.02039 0
-2.44122e-15 1.02039 0
1.02374e-15 1.02388 0
-9.96359e-15 1.02388 0
-2.44122e-15 1.02039 0
-6.46167e-14 1.02039 0
-9.96359e-15 1.02388 0
7.99012e-14 1.02388 0
0 1.02388 0
-1.42685e-14 1.02388 0
0 1.02732 0
1.41246e-15 1.02732 0
-1.42685e-14 1.02388 0
2.5957e-14 1.02388 0
1.41246e-15 1.02732 0
-2.54313e-14 1.02732 0
0 1.02732 0
-1.12433e-14 1.02732 0
0 1.03069 0
1.41884e-14 1.03069 0
-1.12433e-14 1.02732 0
1.59506e-14 1.02732 0
1.41884e-14 1.03069 0
-5.39732e-15 1.03069 0
2.5957e-14 1.02388 0
1.05428e-14 1.02388 0
-2.54313e-14 1.02732 0
7.35866e-15 1.02732 0
1.05428e-14 1.02388 0
-5.47072e-14 1.02388 0
7.35866e-15 1.02732 0
6.94085e-14 1.02732 0
1.59506e-14 1.02732 0
-6.13937e-14 1.02732 0
-5.39732e-15 1.03069 0
8.75067e-14 1.03069 0
-6.13937e-14 1.02732 0
-1.23215e-13 1.02732 0
8.75067e-14 1.03069 0
1.3604e-13 1.03069 0
-1.40919e-14 1.01683 0
-3.83644e-14 1.01683 0
5.90448e-15 1.02039 0
3.14403e-14 1.02039 0
-3.83644e-14 1.01683 0
-6.02508e-14 1.01683 0
3.14403e-14 1.02039 0
3.83819e-14 1.02039 0
-6.46167e-14 1.02039 0
-4.08251e-14 1.02039 0
7.99012e-14 1.02388 0
5.50476e-14 1.02388 0
-4.08251e-14 1.02039 0
-2.02886e-14 1.02039 0
5.50476e-14 1.02388 0
2.88461e-14 1.02388 0
-6.02508e-14 1.01683 0
-4.37727e-14 1.01683 0
3.83819e-14 1.02039 0
4.52736e-14 1.02039 0
-4.37727e-14 1.01683 0
-5.32216e-14 1.01683 0
4.52736e-14 1.02039 0
5.26045e-14 1.02039 0
-2.02886e-14 1.02039 0
-2.65338e-14 1.02039 0
2.88461e-14 1.02388 0
2.72449e-14 1.02388 0
-2.65338e-14 1.02039 0
-4.62413e-14 1.02039 0
2.72449e-14 1.02388 0
4.88279e-14 1.02388 0
-5.47072e-14 1.02388 0
-7.52435e-14 1.02388 0
6.94085e-14 1.02732 0
8.77354e-14 1.02732 0
-7.52435e-14 1.02388 0
-4.47891e-14 1.02388 0
8.77354e-14 1.02732 0
4.54891e-14 1.02732 0
-1.23215e-13 1.02732 0
-7.41049e-14 1.02732 0
1.3604e-13 1.03069 0
6.3326e-14 1.03069 0
-7.41049e-14 1.02732 0
-4.21235e-14 1.02732 0
6.3326e-14 1.03069 0
5.73139e-14 1.03069 0
-4.47891e-14 1.02388 0
-5.06528e-14 1.02388 0
4.54891e-14 1.02732 0
5.5651e-14 1.02732 0
-5.06528e-14 1.02388 0
-8.47252e-14 1.02388 0
5.5651e-14 1.02732 0
9.30862e-14 1.02732 0
-4.21235e-14 1.02732 0
-5.94405e-14 1.02732 0
5.73139e-14 1.03069 0
6.55064e-14 1.03069 0
-5.94405e-14 1.02732 0
-5.84342e-14 1.02732 0
6.55064e-14 1.03069 0
4.47951e-14 1.03069 0
-6.97316e-14 1 0
-7.57813e-14 1 0
8.35174e-14 1.00635 0
9.97651e-14 1.00635 0
-7.57813e-14 1 0
-5.89147e-14 1 0
9.97651e-14 1.00635 0
6.30579e-14 1.00635 0
-6.61845e-14 1.00635 0
-8.00126e-14 1.00635 0
7.06231e-14 1.00944 0
6.62955e-14 1.00944 0
-8.00126e-14 1.00635 0
-4.68855e-14 1.00635 0
6.62955e-14 1.00944 0
5.04947e-14 1.00944 0
-5.89147e-14 1 0
-1.17919e-13 1 0
6.30579e-14 1.00635 0
1.45132e-13 1.00635 0
-1.17919e-13 1 0
-8.86655e-14 1 0
1.45132e-13 1.00635 0
1.07489e-13 1.00635 0
-4.68855e-14 1.00635 0
-8.45646e-14 1.00635 0
5.04947e-14 1.00944 0
7.62888e-14 1.00944 0
-8.45646e-14 1.00635 0
-1.17206e-13 1.00635 0
7.62888e-14 1.00944 0
1.31253e-13 1.00944 0
-7.71094e-14 1.00944 0
-5.48369e-14 1.00944 0
8.70872e-14 1.01326 0
5.69241e-14 1.01326 0
-5.48369e-14 1.00944 0
-5.87351e-14 1.00944 0
5.69241e-14 1.01326 0
6.15638e-14 1.01326 0
-1.09163e-13 1.01326 0
-7.79025e-14 1.01326 0
1.00744e-13 1.01683 0
9.03825e-14 1.01683 0
-7.79025e-14 1.01326 0
-6.35914e-14 1.01326 0
9.03825e-14 1.01683 0
7.08901e-14 1.01683 0
-5.87351e-14 1.00944 0
-9.0137e-14 1.00944 0
6.15638e-14 1.01326 0
8.14418e-14 1.01326 0
-9.0137e-14 1.00944 0
-9.83318e-14 1.00944 0
8.14418e-14 1.01326 0
6.91795e-14 1.01326 0
-6.35914e-14 1.01326 0
-5.54085e-14 1.01326 0
7.08901e-14 1.01683 0
5.16099e-14 1.01683 0
-5.54085e-14 1.01326 0
-2.10504e-14 1.01326 0
5.16099e-14 1.01683 0
3.11282e-14 1.01683 0
-8.86655e-14 1 0
-6.85448e-14 1 0
1.07489e-13 1.00635 0
8.74481e-14 1.00635 0
-6.85448e-14 1 0
-8.32648e-14 1 0
8.74481e-14 1.00635 0
9.49674e-14 1.00635 0
-1.17206e-13 1.00635 0
-9.78183e-14 1.00635 0
1.31253e-13 1.00944 0
1.10584e-13 1.00944 0
-9.78183e-14 1.00635 0
-4.41114e-14 1.00635 0
1.10584e-13 1.00944 0
4.01945e-14 1.00944 0
-8.32648e-14 1 0
-7.71789e-14 1 0
9.49674e-14 1.00635 0
9.36982e-14 1.00635 0
-7.71789e-14 1 0
-5.81281e-14 1 0
9.36982e-14 1.00635 0
6.60035e-14 1.00635 0
-4.41114e-14 1.00635 0
-1.03609e-13 1.00635 0
4.01945e-14 1.00944 0
1.08872e-13 1.00944 0
-1.03609e-13 1.00635 0
-6.53241e-14 1.00635 0
1.08872e-13 1.00944 0
8.24657e-14 1.00944 0
-9.83318e-14 1.00944 0
-1.15268e-13 1.00944 0
6.91795e-14 1.01326 0
1.13552e-13 1.01326 0
-1.15268e-13 1.00944 0
-6.54375e-14 1.00944 0
1.13552e-13 1.01326 0
8.20874e-14 1.01326 0
-2.10504e-14 1.01326 0
-7.49778e-14 1.01326 0
3.11282e-14 1.01683 0
6.97752e-14 1.01683 0
-7.49778e-14 1.01326 0
-6.9178e-14 1.01326 0
6.97752e-14 1.01683 0
6.92623e-14 1.01683 0
-6.54375e-14 1.00944 0
-5.26346e-14 1.00944 0
8.20874e-14 1.01326 0
4.37451e-14 1.01326 0
-5.26346e-14 1.00944 0
-5.5706e-14 1.00944 0
4.37451e-14 1.01326 0
5.11277e-14 1.01326 0
-6.9178e-14 1.01326 0
-4.83381e-14 1.01326 0
6.92623e-14 1.01683 0
6.86074e-14 1.01683 0
-4.83381e-14 1.01326 0
-5.71341e-14 1.01326 0
6.86074e-14 1.01683 0
7.29266e-14 1.01683 0
-5.32216e-14 1.01683 0
-5.4043e-14 1.01683 0
5.26045e-14 1.02039 0
5.19227e-14 1.02039 0
-5.4043e-14 1.01683 0
-5.92829e-14 1.01683 0
5.19227e-14 1.02039 0
6.57036e-14 1.02039 0
-4.62413e-14 1.02039 0
-8.70265e-14 1.02039 0
4.88279e-14 1.02388 0
9.04278e-14 1.02388 0
-8.70265e-14 1.02039 0
-7.30972e-14 1.02039 0
9.04278e-14 1.02388 0
7.12867e-14 1.02388 0
-5.92829e-14 1.01683 0
-2.27192e-14 1.01683 0
6.57036e-14 1.02039 0
4.12387e-14 1.02039 0
-2.27192e-14 1.01683 0
-3.00332e-14 1.01683 0
4.12387e-14 1.02039 0
4.38629e-14 1.02039 0
-7.30972e-14 1.02039 0
-4.64293e-14 1.02039 0
7.12867e-14 1.02388 0
4.00783e-14 1.02388 0
-4.64293e-14 1.02039 0
-6.77765e-14 1.02039 0
4.00783e-14 1.02388 0
9.11766e-14 1.02388 0
-8.47252e-14 1.02388 0
-5.38574e-14 1.02388 0
9.30862e-14 1.02732 0
5.42428e-14 1.02732 0
-5.38574e-14 1.02388 0
-5.23679e-14 1.02388 0
5.42428e-14 1.02732 0
6.02622e-14 1.02732 0
-5.84342e-14 1.02732 0
-7.03568e-14 1.02732 0
4.47951e-14 1.03069 0
8.81538e-14 1.03069 0
-7.03568e-14 1.02732 0
-8.08538e-14 1.02732 0
8.81538e-14 1.03069 0
8.92068e-14 1.03069 0
-5.23679e-14 1.02388 0
-4.45844e-14 1.02388 0
6.02622e-14 1.02732 0
5.85446e-14 1.02732 0
-4.45844e-14 1.02388 0
-9.15932e-14 1.02388 0
5.85446e-14 1.02732 0
8.48068e-14 1.02732 0
-8.08538e-14 1.02732 0
-6.52408e-14 1.02732 0
8.92068e-14 1.03069 0
7.52257e-14 1.03069 0
-6.52408e-14 1.02732 0
-7.94757e-14 1.02732 0
7.52257e-14 1.03069 0
8.4089e-14 1.03069 0
-3.00332e-14 1.01683 0
-1.70663e-14 1.01683 0
4.38629e-14 1.02039 0
1.06242e-14 1.02039 0
-1.70663e-14 1.01683 0
-2.60865e-14 1.01683 0
1.06242e-14 1.02039 0
4.19601e-14 1.02039 0
-6.77765e-14 1.02039 0
-1.20061e-14 1.02039 0
9.11766e-14 1.02388 0
1.55571e-14 1.02388 0
-1.20061e-14 1.02039 0
-6.96999e-14 1.02039 0
1.55571e-14 1.02388 0
7.32332e-14 1.02388 0
-2.60865e-14 1.01683 0
-4.86331e-14 1.01683 0
4.19601e-14 1.02039 0
4.31461e-14 1.02039 0
-4.86331e-14 1.01683 0
-5.92522e-14 1.01683 0
4.31461e-14 1.02039 0
6.48526e-14 1.02039 0
-6.96999e-14 1.02039 0
-3.95068e-14 1.02039 0
7.32332e-14 1.02388 0
5.62051e-14 1.02388 0
-3.95068e-14 1.02039 0
-7.46623e-14 1.02039 0
5.62051e-14 1.02388 0
8.25549e-14 1.02388 0
-9.15932e-14 1.02388 0
-4.42918e-14 1.02388 0
8.48068e-14 1.02732 0
5.33124e-14 1.02732 0
-4.42918e-14 1.02388 0
-8.47517e-14 1.02388 0
5.33124e-14 1.02732 0
8.08276e-14 1.02732 0
-7.94757e-14 1.02732 0
-2.95619e-14 1.02732 0
8.4089e-14 1.03069 0
3.22688e-14 1.03069 0
-2.95619e-14 1.02732 0
-3.98807e-14 1.02732 0
3.22688e-14 1.03069 0
3.37239e-14 1.03069 0
-8.47517e-14 1.02388 0
-7.98966e-14 1.02388 0
8.08276e-14 1.02732 0
8.02159e-14 1.02732 0
-7.98966e-14 1.02388 0
-6.34552e-14 1.02388 0
8.02159e-14 1.02732 0
6.41233e-14 1.02732 0
-3.98807e-14 1.02732 0
-4.93755e-14 1.02732 0
3.37239e-14 1.03069 0
4.76064e-14 1.03069 0
-4.93755e-14 1.02732 0
-4.54302e-14 1.02732 0
4.76064e-14 1.03069 0
5.35756e-14 1.03069 0
0 1.03069 0
-1.86924e-14 1.03069 0
0 1.034 0
2.42533e-14 1.034 0
-1.86924e-14 1.03069 0
-6.80571e-17 1.03069 0
2.42533e-14 1.034 0
-6.91063e-15 1.034 0
0 1.034 0
-2.98692e-14 1.034 0
0 1.03726 0
2.76666e-14 1.03726 0
-2.98692e-14 1.034 0
5.10944e-15 1.034 0
2.76666e-14 1.03726 0
-3.1443e-15 1.03726 0
-6.80571e-17 1.03069 0
-7.95748e-14 1.03069 0
-6.91063e-15 1.034 0
7.22202e-14 1.034 0
-7.95748e-14 1.03069 0
-1.05052e-13 1.03069 0
7.22202e-14 1.034 0
9.49393e-14 1.034 0
5.10944e-15 1.034 0
-5.50902e-14 1.034 0
-3.1443e-15 1.03726 0
5.4331e-14 1.03726 0
-5.50902e-14 1.034 0
-7.33588e-14 1.034 0
5.4331e-14 1.03726 0
8.26501e-14 1.03726 0
0 1.03726 0
-3.19238e-14 1.03726 0
0 1.04045 0
2.8186e-14 1.04045 0
-3.19238e-14 1.03726 0
-1.67806e-14 1.03726 0
2.8186e-14 1.04045 0
1.98731e-14 1.04045 0
0 1.04045 0
-2.2741e-14 1.04045 0
0 1.04359 0
2.99756e-14 1.04359 0
-2.2741e-14 1.04045 0
-3.94858e-15 1.04045 0
2.99756e-14 1.04359 0
1.50943e-15 1.04359 0
-1.67806e-14 1.03726 0
-7.39881e-14 1.03726 0
1.98731e-14 1.04045 0
6.47565e-14 1.04045 0
-7.39881e-14 1.03726 0
-1.1546e-13 1.03726 0
6.47565e-14 1.04045 0
1.0393e-13 1.04045 0
-3.94858e-15 1.04045 0
4.91984e-15 1.04045 0
1.50943e-15 1.04359 0
-2.74429e-14 1.04359 0
4.91984e-15 1.04045 0
-5.5042e-14 1.04045 0
-2.74429e-14 1.04359 0
3.19259e-14 1.04359 0
-1.05052e-13 1.03069 0
-6.91814e-14 1.03069 0
9.49393e-14 1.034 0
7.8928e-14 1.034 0
-6.91814e-14 1.03069 0
-7.46068e-14 1.03069 0
7.8928e-14 1.034 0
7.39392e-14 1.034 0
-7.33588e-14 1.034 0
-6.25203e-14 1.034 0
8.26501e-14 1.03726 0
6.87562e-14 1.03726 0
-6.25203e-14 1.034 0
-6.49814e-14 1.034 0
6.87562e-14 1.03726 0
6.866e-14 1.03726 0
-7.46068e-14 1.03069 0
-7.46537e-14 1.03069 0
7.39392e-14 1.034 0
8.03323e-14 1.034 0
-7.46537e-14 1.03069 0
-2.99297e-14 1.03069 0
8.03323e-14 1.034 0
4.44336e-14 1.034 0
-6.49814e-14 1.034 0
-6.1906e-14 1.034 0
6.866e-14 1.03726 0
6.99516e-14 1.03726 0
-6.1906e-14 1.034 0
-7.47948e-14 1.034 0
6.99516e-14 1.03726 0
9.34794e-14 1.03726 0
-1.1546e-13 1.03726 0
-7.6597e-14 1.03726 0
1.0393e-13 1.04045 0
7.4491e-14 1.04045 0
-7.6597e-14 1.03726 0
-7.43809e-14 1.03726 0
7.4491e-14 1.04045 0
8.05223e-14 1.04045 0
-5.5042e-14 1.04045 0
-8.11029e-14 1.04045 0
3.19259e-14 1.04359 0
8.93511e-14 1.04359 0
-8.11029e-14 1.04045 0
-7.99897e-14 1.04045 0
8.93511e-14 1.04359 0
8.25424e-14 1.04359 0
-7.43809e-14 1.03726 0
-9.02232e-14 1.03726 0
8.05223e-14 1.04045 0
9.78349e-14 1.04045 0
-9.02232e-14 1.03726 0
-7.01534e-14 1.03726 0
9.78349e-14 1.04045 0
5.41724e-14 1.04045 0
-7.99897e-14 1.04045 0
-7.43345e-14 1.04045 0
8.25424e-14 1.04359 0
7.4343e-14 1.04359 0
-7.43345e-14 1.04045 0
-2.7825e-14 1.04045 0
7.4343e-14 1.04359 0
2.66494e-14 1.04359 0
0 1.04359 0
-2.60296e-14 1.04359 0
0 1.04667 0
3.25038e-14 1.04667 0
-2.60296e-14 1.04359 0
8.46494e-15 1.04359 0
3.25038e-14 1.04667 0
-6.42543e-15 1.04667 0
0 1.04667 0
-4.60288e-14 1.04667 0
0 1.0497 0
3.95767e-14 1.0497 0
-4.60288e-14 1.04667 0
2.77958e-15 1.04667 0
3.95767e-14 1.0497 0
-5.18405e-15 1.0497 0
8.46494e-15 1.04359 0
3.24974e-14 1.04359 0
-6.42543e-15 1.04667 0
-1.21767e-14 1.04667 0
3.24974e-14 1.04359 0
9.04832e-15 1.04359 0
-1.21767e-14 1.04667 0
-8.45507e-15 1.04667 0
2.77958e-15 1.04667 0
-3.65458e-14 1.04667 0
-5.18405e-15 1.0497 0
3.80557e-14 1.0497 0
-3.65458e-14 1.04667 0
-2.00902e-14 1.04667 0
3.80557e-14 1.0497 0
3.19944e-14 1.0497 0
0 1.0497 0
-1.11818e-14 1.0497 0
0 1.05268 0
9.95094e-15 1.05268 0
-1.11818e-14 1.0497 0
9.37924e-15 1.0497 0
9.95094e-15 1.05268 0
-4.04118e-15 1.05268 0
0 1.05268 0
-3.13795e-14 1.05268 0
0 1.05562 0
3.77675e-14 1.05562 0
-3.13795e-14 1.05268 0
-3.08031e-15 1.05268 0
3.77675e-14 1.05562 0
-2.81371e-15 1.05562 0
9.37924e-15 1.0497 0
-1.30438e-14 1.0497 0
-4.04118e-15 1.05268 0
6.00054e-15 1.05268 0
-1.30438e-14 1.0497 0
-6.15087e-14 1.0497 0
6.00054e-15 1.05268 0
6.7373e-14 1.05268 0
-3.08031e-15 1.05268 0
-1.53551e-15 1.05268 0
-2.81371e-15 1.05562 0
4.84674e-15 1.05562 0
-1.53551e-15 1.05268 0
-4.53138e-14 1.05268 0
4.84674e-15 1.05562 0
4.3676e-14 1.05562 0
9.04832e-15 1.04359 0
-7.52811e-14 1.04359 0
-8.45507e-15 1.04667 0
6.28981e-14 1.04667 0
-7.52811e-14 1.04359 0
-6.74076e-14 1.04359 0
6.28981e-14 1.04667 0
6.7882e-14 1.04667 0
-2.00902e-14 1.04667 0
-6.34549e-14 1.04667 0
3.19944e-14 1.0497 0
6.80752e-14 1.0497 0
-6.34549e-14 1.04667 0
-7.59217e-14 1.04667 0
6.80752e-14 1.0497 0
7.2129e-14 1.0497 0
-6.74076e-14 1.04359 0
-9.87617e-14 1.04359 0
6.7882e-14 1.04667 0
9.76239e-14 1.04667 0
-9.87617e-14 1.04359 0
-3.34827e-14 1.04359 0
9.76239e-14 1.04667 0
3.69509e-14 1.04667 0
-7.59217e-14 1.04667 0
-7.88328e-14 1.04667 0
7.2129e-14 1.0497 0
7.38679e-14 1.0497 0
-7.88328e-14 1.04667 0
-8.21556e-14 1.04667 0
7.38679e-14 1.0497 0
8.97077e-14 1.0497 0
-6.15087e-14 1.0497 0
-7.42351e-14 1.0497 0
6.7373e-14 1.05268 0
7.14548e-14 1.05268 0
-7.42351e-14 1.0497 0
-7.63927e-14 1.0497 0
7.14548e-14 1.05268 0
7.39079e-14 1.05268 0
-4.53138e-14 1.05268 0
-6.36207e-14 1.05268 0
4.3676e-14 1.05562 0
6.27608e-14 1.05562 0
-6.36207e-14 1.05268 0
-6.73016e-14 1.05268 0
6.27608e-14 1.05562 0
6.62392e-14 1.05562 0
-7.63927e-14 1.0497 0
-7.94751e-14 1.0497 0
7.39079e-14 1.05268 0
7.79963e-14 1.05268 0
-7.94751e-14 1.0497 0
-6.87392e-14 1.0497 0
7.79963e-14 1.05268 0
6.34895e-14 1.05268 0
-6.73016e-14 1.05268 0
-6.46067e-14 1.05268 0
6.62392e-14 1.05562 0
6.7388e-14 1.05562 0
-6.46067e-14 1.05268 0
-5.83699e-14 1.05268 0
6.7388e-14 1.05562 0
5.40836e-14 1.05562 0
-2.99297e-14 1.03069 0
-7.0596e-14 1.03069 0
4.44336e-14 1.034 0
5.02001e-14 1.034 0
-7.0596e-14 1.03069 0
-6.88674e-14 1.03069 0
5.02001e-14 1.034 0
7.74085e-14 1.034 0
-7.47948e-14 1.034 0
-3.44105e-14 1.034 0
9.34794e-14 1.03726 0
5.12576e-14 1.03726 0
-3.44105e-14 1.034 0
-8.13567e-14 1.034 0
5.12576e-14 1.03726 0
8.8458e-14 1.03726 0
-6.88674e-14 1.03069 0
-8.66548e-14 1.03069 0
7.74085e-14 1.034 0
1.03624e-13 1.034 0
-8.66548e-14 1.03069 0
-6.14913e-14 1.03069 0
1.03624e-13 1.034 0
6.62521e-14 1.034 0
-8.13567e-14 1.034 0
-1.01758e-13 1.034 0
8.8458e-14 1.03726 0
9.64031e-14 1.03726 0
-1.01758e-13 1.034 0
-9.52305e-14 1.034 0
9.64031e-14 1.03726 0
1.08424e-13 1.03726 0
-7.01534e-14 1.03726 0
-4.29802e-14 1.03726 0
5.41724e-14 1.04045 0
4.62671e-14 1.04045 0
-4.29802e-14 1.03726 0
-7.93752e-14 1.03726 0
4.62671e-14 1.04045 0
7.77371e-14 1.04045 0
-2.7825e-14 1.04045 0
-5.72577e-14 1.04045 0
2.66494e-14 1.04359 0
6.3614e-14 1.04359 0
-5.72577e-14 1.04045 0
-6.12495e-14 1.04045 0
6.3614e-14 1.04359 0
6.28057e-14 1.04359 0
-7.93752e-14 1.03726 0
-8.09546e-14 1.03726 0
7.77371e-14 1.04045 0
7.98623e-14 1.04045 0
-8.09546e-14 1.03726 0
-9.66738e-14 1.03726 0
7.98623e-14 1.04045 0
9.23521e-14 1.04045 0
-6.12495e-14 1.04045 0
-6.26932e-14 1.04045 0
6.28057e-14 1.04359 0
6.04702e-14 1.04359 0
-6.26932e-14 1.04045 0
-6.01147e-14 1.04045 0
6.04702e-14 1.04359 0
5.69569e-14 1.04359 0
-6.14913e-14 1.03069 0
-2.12474e-14 1.03069 0
6.62521e-14 1.034 0
2.27633e-14 1.034 0
-2.12474e-14 1.03069 0
-3.23019e-14 1.03069 0
2.27633e-14 1.034 0
4.88889e-14 1.034 0
-9.52305e-14 1.034 0
6.36413e-16 1.034 0
1.08424e-13 1.03726 0
3.99602e-15 1.03726 0
6.36413e-16 1.034 0
-5.92566e-14 1.034 0
3.99602e-15 1.03726 0
6.72157e-14 1.03726 0
-3.23019e-14 1.03069 0
-3.40171e-14 1.03069 0
4.88889e-14 1.034 0
3.62484e-14 1.034 0
-3.40171e-14 1.03069 0
-6.53043e-14 1.03069 0
3.62484e-14 1.034 0
6.78486e-14 1.034 0
-5.92566e-14 1.034 0
-4.82332e-14 1.034 0
6.72157e-14 1.03726 0
6.55699e-14 1.03726 0
-4.82332e-14 1.034 0
-6.03798e-14 1.034 0
6.55699e-14 1.03726 0
7.23073e-14 1.03726 0
-9.66738e-14 1.03726 0
-2.42778e-14 1.03726 0
9.23521e-14 1.04045 0
3.64756e-14 1.04045 0
-2.42778e-14 1.03726 0
-5.3826e-14 1.03726 0
3.64756e-14 1.04045 0
5.13762e-14 1.04045 0
-6.01147e-14 1.04045 0
-2.55913e-14 1.04045 0
5.69569e-14 1.04359 0
3.05369e-14 1.04359 0
-2.55913e-14 1.04045 0
-3.23079e-14 1.04045 0
3.05369e-14 1.04359 0
2.50715e-14 1.04359 0
-5.3826e-14 1.03726 0
-5.21718e-14 1.03726 0
5.13762e-14 1.04045 0
5.10993e-14 1.04045 0
-5.21718e-14 1.03726 0
-5.60274e-14 1.03726 0
5.10993e-14 1.04045 0
3.92468e-14 1.04045 0
-3.23079e-14 1.04045 0
-3.38532e-14 1.04045 0
2.50715e-14 1.04359 0
2.58021e-14 1.04359 0
-3.38532e-14 1.04045 0
5.42193e-15 1.04045 0
2.58021e-14 1.04359 0
3.36099e-15 1.04359 0
-3.34827e-14 1.04359 0
-6.04797e-14 1.04359 0
3.69509e-14 1.04667 0
4.94977e-14 1.04667 0
-6.04797e-14 1.04359 0
-6.71986e-14 1.04359 0
4.94977e-14 1.04667 0
5.00989e-14 1.04667 0
-8.21556e-14 1.04667 0
-6.55468e-14 1.04667 0
8.97077e-14 1.0497 0
6.5092e-14 1.0497 0
-6.55468e-14 1.04667 0
-2.4756e-14 1.04667 0
6.5092e-14 1.0497 0
1.48636e-14 1.0497 0
-6.71986e-14 1.04359 0
-7.30981e-14 1.04359 0
5.00989e-14 1.04667 0
7.55687e-14 1.04667 0
-7.30981e-14 1.04359 0
-7.73043e-14 1.04359 0
7.55687e-14 1.04667 0
8.99653e-14 1.04667 0
-2.4756e-14 1.04667 0