# vtk DataFile Version 3.0
#This file was generated by the deal.II library on 2018/10/14 at 19:01:30
ASCII
DATASET UNSTRUCTURED_GRID

POINTS 20480 double
0 0 0
0.19635 0 0
0 0.310647 0
0.19635 0.310647 0
0.19635 0 0
0.392699 0 0
0.19635 0.310647 0
0.392699 0.310647 0
0 0.310647 0
0.19635 0.310647 0
0 0.623211 0
0.19635 0.623211 0
0.19635 0.310647 0
0.392699 0.310647 0
0.19635 0.623211 0
0.392699 0.623211 0
0.392699 0 0
0.589049 0 0
0.392699 0.310647 0
0.589049 0.310647 0
0.589049 0 0
0.785398 0 0
0.589049 0.310647 0
0.785398 0.310647 0
0.392699 0.310647 0
0.589049 0.310647 0
0.392699 0.623211 0
0.589049 0.623211 0
0.589049 0.310647 0
0.785398 0.310647 0
0.589049 0.623211 0
0.785398 0.623211 0
0 0.623211 0
0.19635 0.623211 0
0 0.935699 0
0.19635 0.935699 0
0.19635 0.623211 0
0.392699 0.623211 0
0.19635 0.935699 0
0.392699 0.935699 0
0 0.935699 0
0.19635 0.935699 0
0 1.24825 0
0.19635 1.24825 0
0.19635 0.935699 0
0.392699 0.935699 0
0.19635 1.24825 0
0.392699 1.24825 0
0.392699 0.623211 0
0.589049 0.623211 0
0.392699 0.935699 0
0.589049 0.935699 0
0.589049 0.623211 0
0.785398 0.623211 0
0.589049 0.935699 0
0.785398 0.935699 0
0.392699 0.935699 0
0.589049 0.935699 0
0.392699 1.24825 0
0.589049 1.24825 0
0.589049 0.935699 0
0.785398 0.935699 0
0.589049 1.24825 0
0.785398 1.24825 0
0.785398 0 0
0.981748 0 0
0.785398 0.310647 0
0.981748 0.310647 0
0.981748 0 0
1.1781 0 0
0.981748 0.310647 0
1.1781 0.310647 0
0.785398 0.310647 0
0.981748 0.310647 0
0.785398 0.623211 0
0.981748 0.623211 0
0.981748 0.310647 0
1.1781 0.310647 0
0.981748 0.623211 0
1.1781 0.623211 0
1.1781 0 0
1.37445 0 0
1.1781 0.310647 0
1.37445 0.310647 0
1.37445 0 0
1.5708 0 0
1.37445 0.310647 0
1.5708 0.310647 0
1.1781 0.310647 0
1.37445 0.310647 0
1.1781 0.623211 0
1.37445 0.623211 0
1.37445 0.310647 0
1.5708 0.310647 0
1.37445 0.623211 0
1.5708 0.623211 0
0.785398 0.623211 0
0.981748 0.623211 0
0.785398 0.935699 0
0.981748 0.935699 0
0.981748 0.623211 0
1.1781 0.623211 0
0.981748 0.935699 0
1.1781 0.935699 0
0.785398 0.935699 0
0.981748 0.935699 0
0.785398 1.24825 0
0.981748 1.24825 0
0.981748 0.935699 0
1.1781 0.935699 0
0.981748 1.24825 0
1.1781 1.24825 0
1.1781 0.623211 0
1.37445 0.623211 0
1.1781 0.935699 0
1.37445 0.935699 0
1.37445 0.623211 0
1.5708 0.623211 0
1.37445 0.935699 0
1.5708 0.935699 0
1.1781 0.935699 0
1.37445 0.935699 0
1.1781 1.24825 0
1.37445 1.24825 0
1.37445 0.935699 0
1.5708 0.935699 0
1.37445 1.24825 0
1.5708 1.24825 0
0 1.24825 0
0.19635 1.24825 0
0 1.56077 0
0.19635 1.56077 0
0.19635 1.24825 0
0.392699 1.24825 0
0.19635 1.56077 0
0.392699 1.56077 0
0 1.56077 0
0.19635 1.56077 0
0 1.8733 0
0.19635 1.8733 0
0.19635 1.56077 0
0.392699 1.56077 0
0.19635 1.8733 0
0.392699 1.8733 0
0.392699 1.24825 0
0.589049 1.24825 0
0.392699 1.56077 0
0.589049 1.56077 0
0.589049 1.24825 0
0.785398 1.24825 0
0.589049 1.56077 0
0.785398 1.56077 0
0.392699 1.56077 0
0.589049 1.56077 0
0.392699 1.8733 0
0.589049 1.8733 0
0.589049 1.56077 0
0.785398 1.56077 0
0.589049 1.8733 0
0.785398 1.8733 0
0 1.8733 0
0.19635 1.8733 0
0 2.18582 0
0.19635 2.18582 0
0.19635 1.8733 0
0.392699 1.8733 0
0.19635 2.18582 0
0.392699 2.18582 0
0 2.18582 0
0.19635 2.18582 0
0 2.49833 0
0.19635 2.49833 0
0.19635 2.18582 0
0.392699 2.18582 0
0.19635 2.49833 0
0.392699 2.49833 0
0.392699 1.8733 0
0.589049 1.8733 0
0.392699 2.18582 0
0.589049 2.18582 0
0.589049 1.8733 0
0.785398 1.8733 0
0.589049 2.18582 0
0.785398 2.18582 0
0.392699 2.18582 0
0.589049 2.18582 0
0.392699 2.49833 0
0.589049 2.49833 0
0.589049 2.18582 0
0.785398 2.18582 0
0.589049 2.49833 0
0.785398 2.49833 0
0.785398 1.24825 0
0.981748 1.24825 0
0.785398 1.56077 0
0.981748 1.56077 0
0.981748 1.24825 0
1.1781 1.24825 0
0.981748 1.56077 0
1.1781 1.56077 0
0.785398 1.56077 0
0.981748 1.56077 0
0.785398 1.8733 0
0.981748 1.8733 0
0.981748 1.56077 0
1.1781 1.56077 0
0.981748 1.8733 0
1.1781 1.8733 0
1.1781 1.24825 0
1.37445 1.24825 0
1.1781 1.56077 0
1.37445 1.56077 0
1.37445 1.24825 0
1.5708 1.24825 0
1.37445 1.56077 0
1.5708 1.56077 0
1.1781 1.56077 0
1.37445 1.56077 0
1.1781 1.8733 0
1.37445 1.8733 0
1.37445 1.56077 0
1.5708 1.56077 0
1.37445 1.8733 0
1.5708 1.8733 0
0.785398 1.8733 0
0.981748 1.8733 0
0.785398 2.18582 0
0.981748 2.18582 0
0.981748 1.8733 0
1.1781 1.8733 0
0.981748 2.18582 0
1.1781 2.18582 0
0.785398 2.18582 0
0.981748 2.18582 0
0.785398 2.49833 0
0.981748 2.49833 0
0.981748 2.18582 0
1.1781 2.18582 0
0.981748 2.49833 0
1.1781 2.49833 0
1.1781 1.8733 0
1.37445 1.8733 0
1.1781 2.18582 0
1.37445 2.18582 0
1.37445 1.8733 0
1.5708 1.8733 0
1.37445 2.18582 0
1.5708 2.18582 0
1.1781 2.18582 0
1.37445 2.18582 0
1.1781 2.49833 0
1.37445 2.49833 0
1.37445 2.18582 0
1.5708 2.18582 0
1.37445 2.49833 0
1.5708 2.49833 0
1.5708 0 0
1.76715 0 0
1.5708 0.310647 0
1.76715 0.310647 0
1.76715 0 0
1.9635 0 0
1.76715 0.310647 0
1.9635 0.310647 0
1.5708 0.310647 0
1.76715 0.310647 0
1.5708 0.623211 0
1.76715 0.623211 0
1.76715 0.310647 0
1.9635 0.310647 0
1.76715 0.623211 0
1.9635 0.623211 0
1.9635 0 0
2.15984 0 0
1.9635 0.310647 0
2.15984 0.310647 0
2.15984 0 0
2.35619 0 0
2.15984 0.310647 0
2.35619 0.310647 0
1.9635 0.310647 0
2.15984 0.310647 0
1.9635 0.623211 0
2.15984 0.623211 0
2.15984 0.310647 0
2.35619 0.310647 0
2.15984 0.623211 0
2.35619 0.623211 0
1.5708 0.623211 0
1.76715 0.623211 0
1.5708 0.935699 0
1.76715 0.935699 0
1.76715 0.623211 0
1.9635 0.623211 0
1.76715 0.935699 0
1.9635 0.935699 0
1.5708 0.935699 0
1.76715 0.935699 0
1.5708 1.24825 0
1.76715 1.24825 0
1.76715 0.935699 0
1.9635 0.935699 0
1.76715 1.24825 0
1.9635 1.24825 0
1.9635 0.623211 0
2.15984 0.623211 0
1.9635 0.935699 0
2.15984 0.935699 0
2.15984 0.623211 0
2.35619 0.623211 0
2.15984 0.935699 0
2.35619 0.935699 0
1.9635 0.935699 0
2.15984 0.935699 0
1.9635 1.24825 0
2.15984 1.24825 0
2.15984 0.935699 0
2.35619 0.935699 0
2.15984 1.24825 0
2.35619 1.24825 0
2.35619 0 0
2.55254 0 0
2.35619 0.310647 0
2.55254 0.310647 0
2.55254 0 0
2.74889 0 0
2.55254 0.310647 0
2.74889 0.310647 0
2.35619 0.310647 0
2.55254 0.310647 0
2.35619 0.623211 0
2.55254 0.623211 0
2.55254 0.310647 0
2.74889 0.310647 0
2.55254 0.623211 0
2.74889 0.623211 0
2.74889 0 0
2.94524 0 0
2.74889 0.310647 0
2.94524 0.310647 0
2.94524 0 0
3.14159 0 0
2.94524 0.310647 0
3.14159 0.310647 0
2.74889 0.310647 0
2.94524 0.310647 0
2.74889 0.623211 0
2.94524 0.623211 0
2.94524 0.310647 0
3.14159 0.310647 0
2.94524 0.623211 0
3.14159 0.623211 0
2.35619 0.623211 0
2.55254 0.623211 0
2.35619 0.935699 0
2.55254 0.935699 0
2.55254 0.623211 0
2.74889 0.623211 0
2.55254 0.935699 0
2.74889 0.935699 0
2.35619 0.935699 0
2.55254 0.935699 0
2.35619 1.24825 0
2.55254 1.24825 0
2.55254 0.935699 0
2.74889 0.935699 0
2.55254 1.24825 0
2.74889 1.24825 0
2.74889 0.623211 0
2.94524 0.623211 0
2.74889 0.935699 0
2.94524 0.935699 0
2.94524 0.623211 0
3.14159 0.623211 0
2.94524 0.935699 0
3.14159 0.935699 0
2.74889 0.935699 0
2.94524 0.935699 0
2.74889 1.24825 0
2.94524 1.24825 0
2.94524 0.935699 0
3.14159 0.935699 0
2.94524 1.24825 0
3.14159 1.24825 0
1.5708 1.24825 0
1.76715 1.24825 0
1.5708 1.56077 0
1.76715 1.56077 0
1.76715 1.24825 0
1.9635 1.24825 0
1.76715 1.56077 0
1.9635 1.56077 0
1.5708 1.56077 0
1.76715 1.56077 0
1.5708 1.8733 0
1.76715 1.8733 0
1.76715 1.56077 0
1.9635 1.56077 0
1.76715 1.8733 0
1.9635 1.8733 0
1.9635 1.24825 0
2.15984 1.24825 0
1.9635 1.56077 0
2.15984 1.56077 0
2.15984 1.24825 0
2.35619 1.24825 0
2.15984 1.56077 0
2.35619 1.56077 0
1.9635 1.56077 0
2.15984 1.56077 0
1.9635 1.8733 0
2.15984 1.8733 0
2.15984 1.56077 0
2.35619 1.56077 0
2.15984 1.8733 0
2.35619 1.8733 0
1.5708 1.8733 0
1.76715 1.8733 0
1.5708 2.18582 0
1.76715 2.18582 0
1.76715 1.8733 0
1.9635 1.8733 0
1.76715 2.18582 0
1.9635 2.18582 0
1.5708 2.18582 0
1.76715 2.18582 0
1.5708 2.49833 0
1.76715 2.49833 0
1.76715 2.18582 0
1.9635 2.18582 0
1.76715 2.49833 0
1.9635 2.49833 0
1.9635 1.8733 0
2.15984 1.8733 0
1.9635 2.18582 0
2.15984 2.18582 0
2.15984 1.8733 0
2.35619 1.8733 0
2.15984 2.18582 0
2.35619 2.18582 0
1.9635 2.18582 0
2.15984 2.18582 0
1.9635 2.49833 0
2.15984 2.49833 0
2.15984 2.18582 0
2.35619 2.18582 0
2.15984 2.49833 0
2.35619 2.49833 0
2.35619 1.24825 0
2.55254 1.24825 0
2.35619 1.56077 0
2.55254 1.56077 0
2.55254 1.24825 0
2.74889 1.24825 0
2.55254 1.56077 0
2.74889 1.56077 0
2.35619 1.56077 0
2.55254 1.56077 0
2.35619 1.8733 0
2.55254 1.8733 0
2.55254 1.56077 0
2.74889 1.56077 0
2.55254 1.8733 0
2.74889 1.8733 0
2.74889 1.24825 0
2.94524 1.24825 0
2.74889 1.56077 0
2.94524 1.56077 0
2.94524 1.24825 0
3.14159 1.24825 0
2.94524 1.56077 0
3.14159 1.56077 0
2.74889 1.56077 0
2.94524 1.56077 0
2.74889 1.8733 0
2.94524 1.8733 0
2.94524 1.56077 0
3.14159 1.56077 0
2.94524 1.8733 0
3.14159 1.8733 0
2.35619 1.8733 0
2.55254 1.8733 0
2.35619 2.18582 0
2.55254 2.18582 0
2.55254 1.8733 0
2.74889 1.8733 0
2.55254 2.18582 0
2.74889 2.18582 0
2.35619 2.18582 0
2.55254 2.18582 0
2.35619 2.49833 0
2.55254 2.49833 0
2.55254 2.18582 0
2.74889 2.18582 0
2.55254 2.49833 0
2.74889 2.49833 0
2.74889 1.8733 0
2.94524 1.8733 0
2.74889 2.18582 0
2.94524 2.18582 0
2.94524 1.8733 0
3.14159 1.8733 0
2.94524 2.18582 0
3.14159 2.18582 0
2.74889 2.18582 0
2.94524 2.18582 0
2.74889 2.49833 0
2.94524 2.49833 0
2.94524 2.18582 0
3.14159 2.18582 0
2.94524 2.49833 0
3.14159 2.49833 0
0 2.49833 0
0.19635 2.49833 0
0 2.81084 0
0.19635 2.81084 0
0.19635 2.49833 0
0.392699 2.49833 0
0.19635 2.81084 0
0.392699 2.81084 0
0 2.81084 0
0.19635 2.81084 0
0 3.12334 0
0.19635 3.12334 0
0.19635 2.81084 0
0.392699 2.81084 0
0.19635 3.12334 0
0.392699 3.12334 0
0.392699 2.49833 0
0.589049 2.49833 0
0.392699 2.81084 0
0.589049 2.81084 0
0.589049 2.49833 0
0.785398 2.49833 0
0.589049 2.81084 0
0.785398 2.81084 0
0.392699 2.81084 0
0.589049 2.81084 0
0.392699 3.12334 0
0.589049 3.12334 0
0.589049 2.81084 0
0.785398 2.81084 0
0.589049 3.12334 0
0.785398 3.12334 0
0 3.12334 0
0.19635 3.12334 0
0 3.43584 0
0.19635 3.43584 0
0.19635 3.12334 0
0.392699 3.12334 0
0.19635 3.43584 0
0.392699 3.43584 0
0 3.43584 0
0.19635 3.43584 0
0 3.74832 0
[...]
POINT_DATA 20480
VECTORS uf double
0 1 0
-1.70071e-14 1 0
0 1.00784 0
1.70266e-14 1.00784 0
-1.70071e-14 1 0
-3.58395e-14 1 0
1.70266e-14 1.00784 0
5.05443e-14 1.00784 0
0 1.00784 0
-1.71895e-14 1.00784 0
0 1.01126 0
2.59165e-14 1.01126 0
-1.71895e-14 1.00784 0
-3.43185e-14 1.00784 0
2.59165e-14 1.01126 0
2.43776e-14 1.01126 0
-3.58395e-14 1 0
-2.60982e-14 1 0
5.05443e-14 1.00784 0
4.00495e-14 1.00784 0
-2.60982e-14 1 0
-1.81654e-14 1 0
4.00495e-14 1.00784 0
2.3705e-14 1.00784 0
-3.43185e-14 1.00784 0
-3.51902e-14 1.00784 0
2.43776e-14 1.01126 0
2.56464e-14 1.01126 0
-3.51902e-14 1.00784 0
-3.17063e-14 1.00784 0
2.56464e-14 1.01126 0
4.50731e-14 1.01126 0
0 1.01126 0
-4.02404e-14 1.01126 0
0 1.01568 0
4.45156e-14 1.01568 0
-4.02404e-14 1.01126 0
-2.99149e-14 1.01126 0
4.45156e-14 1.01568 0
3.74101e-14 1.01568 0
0 1.01568 0
-2.80043e-14 1.01568 0
0 1.01976 0
1.3653e-14 1.01976 0
-2.80043e-14 1.01568 0
-3.93721e-14 1.01568 0
1.3653e-14 1.01976 0
3.33373e-14 1.01976 0
-2.99149e-14 1.01126 0
-5.33316e-14 1.01126 0
3.74101e-14 1.01568 0
5.66738e-14 1.01568 0
-5.33316e-14 1.01126 0
-4.95104e-14 1.01126 0
5.66738e-14 1.01568 0
4.10552e-14 1.01568 0
-3.93721e-14 1.01568 0
-2.51195e-14 1.01568 0
3.33373e-14 1.01976 0
1.91186e-14 1.01976 0
-2.51195e-14 1.01568 0
-3.41063e-14 1.01568 0
1.91186e-14 1.01976 0
2.61417e-14 1.01976 0
-1.81654e-14 1 0
-2.87063e-14 1 0
2.3705e-14 1.00784 0
2.90713e-14 1.00784 0
-2.87063e-14 1 0
-4.47495e-14 1 0
2.90713e-14 1.00784 0
4.5211e-14 1.00784 0
-3.17063e-14 1.00784 0
-4.5888e-14 1.00784 0
4.50731e-14 1.01126 0
7.80276e-14 1.01126 0
-4.5888e-14 1.00784 0
-2.91841e-14 1.00784 0
7.80276e-14 1.01126 0
5.01654e-14 1.01126 0
-4.47495e-14 1 0
-2.83333e-14 1 0
4.5211e-14 1.00784 0
4.39368e-14 1.00784 0
-2.83333e-14 1 0
-4.63223e-14 1 0
4.39368e-14 1.00784 0
5.61258e-14 1.00784 0
-2.91841e-14 1.00784 0
-4.77134e-14 1.00784 0
5.01654e-14 1.01126 0
3.90898e-14 1.01126 0
-4.77134e-14 1.00784 0
-3.34613e-14 1.00784 0
3.90898e-14 1.01126 0
4.31313e-14 1.01126 0
-4.95104e-14 1.01126 0
-6.90405e-14 1.01126 0
4.10552e-14 1.01568 0
6.12564e-14 1.01568 0
-6.90405e-14 1.01126 0
-4.91329e-14 1.01126 0
6.12564e-14 1.01568 0
3.85525e-14 1.01568 0
-3.41063e-14 1.01568 0
-5.5813e-14 1.01568 0
2.61417e-14 1.01976 0
4.93528e-14 1.01976 0
-5.5813e-14 1.01568 0
-5.6713e-14 1.01568 0
4.93528e-14 1.01976 0
7.56773e-14 1.01976 0
-4.91329e-14 1.01126 0
-4.47638e-14 1.01126 0
3.85525e-14 1.01568 0
4.55631e-14 1.01568 0
-4.47638e-14 1.01126 0
-5.97128e-14 1.01126 0
4.55631e-14 1.01568 0
6.46818e-14 1.01568 0
-5.6713e-14 1.01568 0
-3.62597e-14 1.01568 0
7.56773e-14 1.01976 0
3.94073e-14 1.01976 0
-3.62597e-14 1.01568 0
-6.56356e-14 1.01568 0
3.94073e-14 1.01976 0
6.53e-14 1.01976 0
0 1.01976 0
-3.13223e-15 1.01976 0
0 1.02384 0
2.5774e-15 1.02384 0
-3.13223e-15 1.01976 0
-2.29674e-14 1.01976 0
2.5774e-15 1.02384 0
2.31971e-14 1.02384 0
0 1.02384 0
-1.9149e-14 1.02384 0
0 1.02782 0
2.15686e-14 1.02782 0
-1.9149e-14 1.02384 0
-1.27028e-14 1.02384 0
2.15686e-14 1.02782 0
9.23776e-15 1.02782 0
-2.29674e-14 1.01976 0
-2.02999e-14 1.01976 0
2.31971e-14 1.02384 0
2.1585e-14 1.02384 0
-2.02999e-14 1.01976 0
-9.73164e-15 1.01976 0
2.1585e-14 1.02384 0
1.46529e-14 1.02384 0
-1.27028e-14 1.02384 0
-5.16708e-15 1.02384 0
9.23776e-15 1.02782 0
1.25419e-15 1.02782 0
-5.16708e-15 1.02384 0
-4.88698e-14 1.02384 0
1.25419e-15 1.02782 0
6.11605e-14 1.02782 0
0 1.02782 0
-5.20813e-16 1.02782 0
0 1.03173 0
-6.95951e-15 1.03173 0
-5.20813e-16 1.02782 0
1.33339e-14 1.02782 0
-6.95951e-15 1.03173 0
-1.95643e-14 1.03173 0
0 1.03173 0
-8.97563e-15 1.03173 0
0 1.03557 0
2.55775e-14 1.03557 0
-8.97563e-15 1.03173 0
1.84192e-14 1.03173 0
2.55775e-14 1.03557 0
-1.13658e-14 1.03557 0
1.33339e-14 1.02782 0
2.46304e-15 1.02782 0
-1.95643e-14 1.03173 0
2.47272e-15 1.03173 0
2.46304e-15 1.02782 0
-3.99258e-14 1.02782 0
2.47272e-15 1.03173 0
4.59137e-14 1.03173 0
1.84192e-14 1.03173 0
-3.50657e-14 1.03173 0
-1.13658e-14 1.03557 0
4.1878e-14 1.03557 0
-3.50657e-14 1.03173 0
-9.2046e-14 1.03173 0
4.1878e-14 1.03557 0
9.59269e-14 1.03557 0
-9.73164e-15 1.01976 0
-2.66919e-14 1.01976 0
1.46529e-14 1.02384 0
1.69476e-14 1.02384 0
-2.66919e-14 1.01976 0
-5.60442e-14 1.01976 0
1.69476e-14 1.02384 0
3.45315e-14 1.02384 0
-4.88698e-14 1.02384 0
-3.29075e-14 1.02384 0
6.11605e-14 1.02782 0
5.2735e-14 1.02782 0
-3.29075e-14 1.02384 0
-2.1654e-14 1.02384 0
5.2735e-14 1.02782 0
1.74458e-14 1.02782 0
-5.60442e-14 1.01976 0
-2.25972e-14 1.01976 0
3.45315e-14 1.02384 0
2.44232e-14 1.02384 0
-2.25972e-14 1.01976 0
-3.50217e-14 1.01976 0
2.44232e-14 1.02384 0
3.01419e-14 1.02384 0
-2.1654e-14 1.02384 0
-1.62375e-14 1.02384 0
1.74458e-14 1.02782 0
1.1214e-14 1.02782 0
-1.62375e-14 1.02384 0
-3.58311e-14 1.02384 0
1.1214e-14 1.02782 0
4.52277e-14 1.02782 0
-3.99258e-14 1.02782 0
-5.58926e-14 1.02782 0
4.59137e-14 1.03173 0
4.78151e-14 1.03173 0
-5.58926e-14 1.02782 0
-3.12952e-14 1.02782 0
4.78151e-14 1.03173 0
3.64606e-14 1.03173 0
-9.2046e-14 1.03173 0
-3.76163e-14 1.03173 0
9.59269e-14 1.03557 0
3.25814e-14 1.03557 0
-3.76163e-14 1.03173 0
-3.01172e-14 1.03173 0
3.25814e-14 1.03557 0
3.85341e-14 1.03557 0
-3.12952e-14 1.02782 0
-3.0418e-14 1.02782 0
3.64606e-14 1.03173 0
3.58708e-14 1.03173 0
-3.0418e-14 1.02782 0
-6.93154e-14 1.02782 0
3.58708e-14 1.03173 0
6.50892e-14 1.03173 0
-3.01172e-14 1.03173 0
-4.55221e-14 1.03173 0
3.85341e-14 1.03557 0
4.97496e-14 1.03557 0
-4.55221e-14 1.03173 0
-3.94642e-14 1.03173 0
4.97496e-14 1.03557 0
2.41962e-14 1.03557 0
-4.63223e-14 1 0
-5.47004e-14 1 0
5.61258e-14 1.00784 0
7.52342e-14 1.00784 0
-5.47004e-14 1 0
-4.16316e-14 1 0
7.52342e-14 1.00784 0
4.79161e-14 1.00784 0
-3.34613e-14 1.00784 0
-5.79625e-14 1.00784 0
4.31313e-14 1.01126 0
5.17623e-14 1.01126 0
-5.79625e-14 1.00784 0
-2.99255e-14 1.00784 0
5.17623e-14 1.01126 0
3.48934e-14 1.01126 0
-4.16316e-14 1 0
-7.17039e-14 1 0
4.79161e-14 1.00784 0
8.16235e-14 1.00784 0
-7.17039e-14 1 0
-5.64711e-14 1 0
8.16235e-14 1.00784 0
8.08394e-14 1.00784 0
-2.99255e-14 1.00784 0
-4.56432e-14 1.00784 0
3.48934e-14 1.01126 0
5.66122e-14 1.01126 0
-4.56432e-14 1.00784 0
-8.13594e-14 1.00784 0
5.66122e-14 1.01126 0
8.58567e-14 1.01126 0
-5.97128e-14 1.01126 0
-4.91089e-14 1.01126 0
6.46818e-14 1.01568 0
5.75323e-14 1.01568 0
-4.91089e-14 1.01126 0
-5.83043e-14 1.01126 0
5.75323e-14 1.01568 0
6.53876e-14 1.01568 0
-6.56356e-14 1.01568 0
-6.28101e-14 1.01568 0
6.53e-14 1.01976 0
6.37676e-14 1.01976 0
-6.28101e-14 1.01568 0
-4.44502e-14 1.01568 0
6.37676e-14 1.01976 0
4.33037e-14 1.01976 0
-5.83043e-14 1.01126 0
-6.80907e-14 1.01126 0
6.53876e-14 1.01568 0
6.60881e-14 1.01568 0
-6.80907e-14 1.01126 0
-6.76624e-14 1.01126 0
6.60881e-14 1.01568 0
5.00224e-14 1.01568 0
-4.44502e-14 1.01568 0
-4.26017e-14 1.01568 0
4.33037e-14 1.01976 0
3.88399e-14 1.01976 0
-4.26017e-14 1.01568 0
-1.31277e-14 1.01568 0
3.88399e-14 1.01976 0
1.51561e-14 1.01976 0
-5.64711e-14 1 0
-4.47309e-14 1 0
8.08394e-14 1.00784 0
6.37685e-14 1.00784 0
-4.47309e-14 1 0
-4.80319e-14 1 0
6.37685e-14 1.00784 0
6.14765e-14 1.00784 0
-8.13594e-14 1.00784 0
-6.67251e-14 1.00784 0
8.58567e-14 1.01126 0
7.87848e-14 1.01126 0
-6.67251e-14 1.00784 0
-3.48237e-14 1.00784 0
7.87848e-14 1.01126 0
3.90113e-14 1.01126 0
-4.80319e-14 1 0
-4.93712e-14 1 0
6.14765e-14 1.00784 0
7.16248e-14 1.00784 0
-4.93712e-14 1 0
-3.04397e-14 1 0
7.16248e-14 1.00784 0
4.39387e-14 1.00784 0
-3.48237e-14 1.00784 0
-6.84933e-14 1.00784 0
3.90113e-14 1.01126 0
6.34104e-14 1.01126 0
-6.84933e-14 1.00784 0
-5.74625e-14 1.00784 0
6.34104e-14 1.01126 0
6.7966e-14 1.01126 0
-6.76624e-14 1.01126 0
-7.6331e-14 1.01126 0
5.00224e-14 1.01568 0
7.78029e-14 1.01568 0
-7.6331e-14 1.01126 0
-5.52289e-14 1.01126 0
7.78029e-14 1.01568 0
6.2974e-14 1.01568 0
-1.31277e-14 1.01568 0
-6.05256e-14 1.01568 0
1.51561e-14 1.01976 0
5.469e-14 1.01976 0
-6.05256e-14 1.01568 0
-5.80963e-14 1.01568 0
5.469e-14 1.01976 0
5.52178e-14 1.01976 0
-5.52289e-14 1.01126 0
-3.67796e-14 1.01126 0
6.2974e-14 1.01568 0
3.72144e-14 1.01568 0
-3.67796e-14 1.01126 0
-4.86119e-14 1.01126 0
3.72144e-14 1.01568 0
5.25123e-14 1.01568 0
-5.80963e-14 1.01568 0
-3.58895e-14 1.01568 0
5.52178e-14 1.01976 0
5.06812e-14 1.01976 0
-3.58895e-14 1.01568 0
-5.26707e-14 1.01568 0
5.06812e-14 1.01976 0
6.20529e-14 1.01976 0
-3.50217e-14 1.01976 0
-3.69491e-14 1.01976 0
3.01419e-14 1.02384 0
3.44328e-14 1.02384 0
-3.69491e-14 1.01976 0
-3.46769e-14 1.01976 0
3.44328e-14 1.02384 0
4.55676e-14 1.02384 0
-3.58311e-14 1.02384 0
-5.63795e-14 1.02384 0
4.52277e-14 1.02782 0
6.20903e-14 1.02782 0
-5.63795e-14 1.02384 0
-6.42654e-14 1.02384 0
6.20903e-14 1.02782 0
6.1604e-14 1.02782 0
-3.46769e-14 1.01976 0
-2.90416e-14 1.01976 0
4.55676e-14 1.02384 0
3.15552e-14 1.02384 0
-2.90416e-14 1.01976 0
-2.26349e-14 1.01976 0
3.15552e-14 1.02384 0
4.08798e-14 1.02384 0
-6.42654e-14 1.02384 0
-3.20568e-14 1.02384 0
6.1604e-14 1.02782 0
3.3779e-14 1.02782 0
-3.20568e-14 1.02384 0
-5.41035e-14 1.02384 0
3.3779e-14 1.02782 0
6.19521e-14 1.02782 0
-6.93154e-14 1.02782 0
-4.15434e-14 1.02782 0
6.50892e-14 1.03173 0
2.72049e-14 1.03173 0
-4.15434e-14 1.02782 0
-3.98102e-14 1.02782 0
2.72049e-14 1.03173 0
3.09272e-14 1.03173 0
-3.94642e-14 1.03173 0
-3.7535e-14 1.03173 0
2.41962e-14 1.03557 0
4.70613e-14 1.03557 0
-3.7535e-14 1.03173 0
-5.12604e-14 1.03173 0
4.70613e-14 1.03557 0
5.84356e-14 1.03557 0
-3.98102e-14 1.02782 0
-4.09818e-14 1.02782 0
3.09272e-14 1.03173 0
4.12921e-14 1.03173 0
-4.09818e-14 1.02782 0
-5.84945e-14 1.02782 0
4.12921e-14 1.03173 0
4.67788e-14 1.03173 0
-5.12604e-14 1.03173 0
-4.08634e-14 1.03173 0
5.84356e-14 1.03557 0
4.38876e-14 1.03557 0
-4.08634e-14 1.03173 0
-4.14203e-14 1.03173 0
4.38876e-14 1.03557 0
4.6282e-14 1.03557 0
-2.26349e-14 1.01976 0
-1.32625e-14 1.01976 0
4.08798e-14 1.02384 0
9.15439e-15 1.02384 0
-1.32625e-14 1.01976 0
-1.13812e-14 1.01976 0
9.15439e-15 1.02384 0
1.81059e-14 1.02384 0
-5.41035e-14 1.02384 0
-1.38916e-14 1.02384 0
6.19521e-14 1.02782 0
1.83891e-14 1.02782 0
-1.38916e-14 1.02384 0
-4.04248e-14 1.02384 0
1.83891e-14 1.02782 0
4.7419e-14 1.02782 0
-1.13812e-14 1.01976 0
-4.53888e-14 1.01976 0
1.81059e-14 1.02384 0
3.46841e-14 1.02384 0
-4.53888e-14 1.01976 0
-4.24866e-14 1.01976 0
3.46841e-14 1.02384 0
3.56165e-14 1.02384 0
-4.04248e-14 1.02384 0
-3.05007e-14 1.02384 0
4.7419e-14 1.02782 0
4.66608e-14 1.02782 0
-3.05007e-14 1.02384 0
-4.67817e-14 1.02384 0
4.66608e-14 1.02782 0
6.06651e-14 1.02782 0
-5.84945e-14 1.02782 0
-3.96403e-14 1.02782 0
4.67788e-14 1.03173 0
3.82049e-14 1.03173 0
-3.96403e-14 1.02782 0
-5.59543e-14 1.02782 0
3.82049e-14 1.03173 0
4.92674e-14 1.03173 0
-4.14203e-14 1.03173 0
-2.06309e-14 1.03173 0
4.6282e-14 1.03557 0
2.27375e-14 1.03557 0
-2.06309e-14 1.03173 0
-3.019e-14 1.03173 0
2.27375e-14 1.03557 0
2.69201e-14 1.03557 0
-5.59543e-14 1.02782 0
-6.10447e-14 1.02782 0
4.92674e-14 1.03173 0
4.4738e-14 1.03173 0
-6.10447e-14 1.02782 0
-5.47423e-14 1.02782 0
4.4738e-14 1.03173 0
4.36348e-14 1.03173 0
-3.019e-14 1.03173 0
-2.15017e-14 1.03173 0
2.69201e-14 1.03557 0
3.07277e-14 1.03557 0
-2.15017e-14 1.03173 0
-2.52185e-14 1.03173 0
3.07277e-14 1.03557 0
3.44481e-14 1.03557 0
0 1.03557 0
-2.53796e-14 1.03557 0
0 1.03932 0
1.50634e-14 1.03932 0
-2.53796e-14 1.03557 0
-2.63842e-16 1.03557 0
1.50634e-14 1.03932 0
-8.49762e-16 1.03932 0
0 1.03932 0
-1.02013e-14 1.03932 0
0 1.04299 0
1.69229e-14 1.04299 0
-1.02013e-14 1.03932 0
-7.22638e-15 1.03932 0
1.69229e-14 1.04299 0
1.82016e-14 1.04299 0
-2.63842e-16 1.03557 0
-4.42901e-14 1.03557 0
-8.49762e-16 1.03932 0
4.40113e-14 1.03932 0
-4.42901e-14 1.03557 0
-7.56145e-14 1.03557 0
4.40113e-14 1.03932 0
6.88927e-14 1.03932 0
-7.22638e-15 1.03932 0
-2.84012e-14 1.03932 0
1.82016e-14 1.04299 0
2.96511e-14 1.04299 0
-2.84012e-14 1.03932 0
-5.36867e-14 1.03932 0
2.96511e-14 1.04299 0
4.664e-14 1.04299 0
0 1.04299 0
-2.18569e-14 1.04299 0
0 1.04658 0
2.35548e-14 1.04658 0
-2.18569e-14 1.04299 0
-7.87273e-15 1.04299 0
2.35548e-14 1.04658 0
9.49116e-15 1.04658 0
0 1.04658 0
-1.39503e-14 1.04658 0
0 1.0501 0
8.47075e-15 1.0501 0
-1.39503e-14 1.04658 0
-2.39041e-15 1.04658 0
8.47075e-15 1.0501 0
-1.48943e-14 1.0501 0
-7.87273e-15 1.04299 0
-4.4702e-14 1.04299 0
9.49116e-15 1.04658 0
3.59776e-14 1.04658 0
-4.4702e-14 1.04299 0
-5.61956e-14 1.04299 0
3.59776e-14 1.04658 0
6.1033e-14 1.04658 0
-2.39041e-15 1.04658 0
1.43367e-14 1.04658 0
-1.48943e-14 1.0501 0
-2.82055e-14 1.0501 0
1.43367e-14 1.04658 0
-3.58561e-14 1.04658 0
-2.82055e-14 1.0501 0
2.6975e-14 1.0501 0
-7.56145e-14 1.03557 0
-3.88538e-14 1.03557 0
6.88927e-14 1.03932 0
4.33631e-14 1.03932 0
-3.88538e-14 1.03557 0
-5.53188e-14 1.03557 0
4.33631e-14 1.03932 0
5.74928e-14 1.03932 0
-5.36867e-14 1.03932 0
-3.55373e-14 1.03932 0
4.664e-14 1.04299 0
3.52109e-14 1.04299 0
-3.55373e-14 1.03932 0
-4.65176e-14 1.03932 0
3.52109e-14 1.04299 0
3.42093e-14 1.04299 0
-5.53188e-14 1.03557 0
-4.79528e-14 1.03557 0
5.74928e-14 1.03932 0
4.4299e-14 1.03932 0
-4.79528e-14 1.03557 0
-1.51758e-14 1.03557 0
4.4299e-14 1.03932 0
3.20363e-14 1.03932 0
-4.65176e-14 1.03932 0
-3.35136e-14 1.03932 0
3.42093e-14 1.04299 0
3.22266e-14 1.04299 0
-3.35136e-14 1.03932 0
-6.143e-14 1.03932 0
3.22266e-14 1.04299 0
6.03872e-14 1.04299 0
-5.61956e-14 1.04299 0
-4.91911e-14 1.04299 0
6.1033e-14 1.04658 0
5.78115e-14 1.04658 0
-4.91911e-14 1.04299 0
-4.40638e-14 1.04299 0
5.78115e-14 1.04658 0
5.80635e-14 1.04658 0
-3.58561e-14 1.04658 0
-4.87051e-14 1.04658 0
2.6975e-14 1.0501 0
5.35636e-14 1.0501 0
-4.87051e-14 1.04658 0
-5.78733e-14 1.04658 0
5.35636e-14 1.0501 0
5.76992e-14 1.0501 0
-4.40638e-14 1.04299 0
-5.63734e-14 1.04299 0
5.80635e-14 1.04658 0
6.55208e-14 1.04658 0
-5.63734e-14 1.04299 0
-4.27221e-14 1.04299 0
6.55208e-14 1.04658 0
3.51038e-14 1.04658 0
-5.78733e-14 1.04658 0
-4.77712e-14 1.04658 0
5.76992e-14 1.0501 0
5.61588e-14 1.0501 0
-4.77712e-14 1.04658 0
-1.69681e-14 1.04658 0
5.61588e-14 1.0501 0
1.98053e-14 1.0501 0
0 1.0501 0
-1.69017e-14 1.0501 0
0 1.05354 0
1.82592e-14 1.05354 0
-1.69017e-14 1.0501 0
8.49035e-15 1.0501 0
1.82592e-14 1.05354 0
-5.29983e-15 1.05354 0
0 1.05354 0
-3.0721e-14 1.05354 0
0 1.05692 0
3.36937e-14 1.05692 0
-3.0721e-14 1.05354 0
-1.77888e-15 1.05354 0
3.36937e-14 1.05692 0
5.23485e-15 1.05692 0
8.49035e-15 1.0501 0
3.21612e-14 1.0501 0
-5.29983e-15 1.05354 0
-2.50212e-14 1.05354 0
3.21612e-14 1.0501 0
2.15396e-15 1.0501 0
-2.50212e-14 1.05354 0
-1.42444e-14 1.05354 0
-1.77888e-15 1.05354 0
-1.06028e-14 1.05354 0
5.23485e-15 1.05692 0
2.19959e-14 1.05692 0
-1.06028e-14 1.05354 0
-1.85314e-15 1.05354 0
2.19959e-14 1.05692 0
1.54991e-14 1.05692 0
0 1.05692 0
-5.35438e-15 1.05692 0
0 1.06022 0
7.81958e-15 1.06022 0
-5.35438e-15 1.05692 0
3.16879e-15 1.05692 0
7.81958e-15 1.06022 0
-3.64133e-15 1.06022 0
0 1.06022 0
-2.62497e-14 1.06022 0
0 1.06347 0
2.56517e-14 1.06347 0
-2.62497e-14 1.06022 0
2.04509e-15 1.06022 0
2.56517e-14 1.06347 0
-5.40879e-15 1.06347 0
3.16879e-15 1.05692 0
-1.10252e-14 1.05692 0
-3.64133e-15 1.06022 0
6.25394e-15 1.06022 0
-1.10252e-14 1.05692 0
-3.41856e-14 1.05692 0
6.25394e-15 1.06022 0
3.35752e-14 1.06022 0
2.04509e-15 1.06022 0
3.14949e-15 1.06022 0
-5.40879e-15 1.06347 0
-7.06198e-16 1.06347 0
3.14949e-15 1.06022 0
-2.63938e-14 1.06022 0
-7.06198e-16 1.06347 0
3.10094e-14 1.06347 0
2.15396e-15 1.0501 0
-5.3504e-14 1.0501 0
-1.42444e-14 1.05354 0
4.9342e-14 1.05354 0
-5.3504e-14 1.0501 0
-4.05081e-14 1.0501 0
4.9342e-14 1.05354 0
3.94366e-14 1.05354 0
-1.85314e-15 1.05354 0
-5.34256e-14 1.05354 0
1.54991e-14 1.05692 0
4.78378e-14 1.05692 0
-5.34256e-14 1.05354 0
-5.18238e-14 1.05354 0
4.78378e-14 1.05692 0
4.97623e-14 1.05692 0
-4.05081e-14 1.0501 0
-7.59213e-14 1.0501 0
3.94366e-14 1.05354 0
7.27046e-14 1.05354 0
-7.59213e-14 1.0501 0
-2.14464e-14 1.0501 0
7.27046e-14 1.05354 0
3.36938e-14 1.05354 0
-5.18238e-14 1.05354 0
-5.44874e-14 1.05354 0
4.97623e-14 1.05692 0
4.77145e-14 1.05692 0
-5.44874e-14 1.05354 0
-6.82663e-14 1.05354 0
4.77145e-14 1.05692 0
6.8832e-14 1.05692 0
-3.41856e-14 1.05692 0
-4.44499e-14 1.05692 0
3.35752e-14 1.06022 0
4.38378e-14 1.06022 0
-4.44499e-14 1.05692 0
-6.14276e-14 1.05692 0
4.38378e-14 1.06022 0
6.6561e-14 1.06022 0
-2.63938e-14 1.06022 0
-4.84837e-14 1.06022 0
3.10094e-14 1.06347 0
4.55239e-14 1.06347 0
-4.84837e-14 1.06022 0
-5.77974e-14 1.06022 0
4.55239e-14 1.06347 0
4.50568e-14 1.06347 0
-6.14276e-14 1.05692 0
-5.00663e-14 1.05692 0
6.6561e-14 1.06022 0
4.94604e-14 1.06022 0
-5.00663e-14 1.05692 0
-5.06216e-14 1.05692 0
4.94604e-14 1.06022 0
4.52495e-14 1.06022 0
-5.77974e-14 1.06022 0
-4.45125e-14 1.06022 0
4.50568e-14 1.06347 0
4.08599e-14 1.06347 0
-4.45125e-14 1.06022 0
-4.36959e-14 1.06022 0
4.08599e-14 1.06347 0
3.44171e-14 1.06347 0
-1.51758e-14 1.03557 0
-4.44663e-14 1.03557 0
3.20363e-14 1.03932 0
4.11357e-14 1.03932 0
-4.44663e-14 1.03557 0
-5.03524e-14 1.03557 0
4.11357e-14 1.03932 0
5.92041e-14 1.03932 0
-6.143e-14 1.03932 0
-3.03983e-14 1.03932 0
6.03872e-14 1.04299 0
3.07967e-14 1.04299 0
-3.03983e-14 1.03932 0
-5.71472e-14 1.03932 0
3.07967e-14 1.04299 0
5.48739e-14 1.04299 0
-5.03524e-14 1.03557 0
-5.03846e-14 1.03557 0
5.92041e-14 1.03932 0
5.69805e-14 1.03932 0
-5.03846e-14 1.03557 0
-4.38578e-14 1.03557 0
5.69805e-14 1.03932 0
4.92474e-14 1.03932 0
-5.71472e-14 1.03932 0
-5.38347e-14 1.03932 0
5.48739e-14 1.04299 0
5.60964e-14 1.04299 0
-5.38347e-14 1.03932 0
-6.90015e-14 1.03932 0
5.60964e-14 1.04299 0
8.02719e-14 1.04299 0
-4.27221e-14 1.04299 0
-3.78219e-14 1.04299 0
3.51038e-14 1.04658 0
3.68596e-14 1.04658 0
-3.78219e-14 1.04299 0
-4.76117e-14 1.04299 0
3.68596e-14 1.04658 0
4.19897e-14 1.04658 0
-1.69681e-14 1.04658 0
-3.53972e-14 1.04658 0
1.98053e-14 1.0501 0
5.42408e-14 1.0501 0
-3.53972e-14 1.04658 0
-3.63388e-14 1.04658 0
5.42408e-14 1.0501 0
4.18647e-14 1.0501 0
-4.76117e-14 1.04299 0
-5.26866e-14 1.04299 0
4.19897e-14 1.04658 0
4.90167e-14 1.04658 0
-5.26866e-14 1.04299 0
-6.546e-14 1.04299 0
4.90167e-14 1.04658 0
5.7034e-14 1.04658 0
-3.63388e-14 1.04658 0
-4.07977e-14 1.04658 0
4.18647e-14 1.0501 0
4.72859e-14 1.0501 0
-4.07977e-14 1.04658 0
-4.15754e-14 1.04658 0
4.72859e-14 1.0501 0
4.01552e-14 1.0501 0
-4.38578e-14 1.03557 0
-1.88405e-14 1.03557 0
4.92474e-14 1.03932 0
1.10891e-14 1.03932 0
-1.88405e-14 1.03557 0
-2.4606e-14 1.03557 0
1.10891e-14 1.03932 0
3.31663e-14 1.03932 0
-6.90015e-14 1.03932 0
1.59939e-15 1.03932 0
8.02719e-14 1.04299 0
8.8178e-15 1.04299 0
1.59939e-15 1.03932 0
-3.66097e-14 1.03932 0
8.8178e-15 1.04299 0
4.41592e-14 1.04299 0
-2.4606e-14 1.03557 0
-2.40614e-14 1.03557 0
3.31663e-14 1.03932 0
2.36305e-14 1.03932 0
-2.40614e-14 1.03557 0
-3.57667e-14 1.03557 0
2.36305e-14 1.03932 0
4.27313e-14 1.03932 0
-3.66097e-14 1.03932 0
-2.81301e-14 1.03932 0
4.41592e-14 1.04299 0
2.93175e-14 1.04299 0
-2.81301e-14 1.03932 0
-4.61691e-14 1.03932 0
2.93175e-14 1.04299 0
4.67456e-14 1.04299 0
-6.546e-14 1.04299 0
-1.54098e-14 1.04299 0
5.7034e-14 1.04658 0
2.92368e-14 1.04658 0
-1.54098e-14 1.04299 0
-3.57103e-14 1.04299 0
2.92368e-14 1.04658 0
3.48507e-14 1.04658 0
-4.15754e-14 1.04658 0
-2.89631e-14 1.04658 0
4.01552e-14 1.0501 0
3.16505e-14 1.0501 0
-2.89631e-14 1.04658 0
-1.28299e-14 1.04658 0
3.16505e-14 1.0501 0
1.25766e-14 1.0501 0
-3.57103e-14 1.04299 0
-1.81582e-14 1.04299 0
3.48507e-14 1.04658 0
3.04749e-14 1.04658 0
-1.81582e-14 1.04299 0
-3.01225e-14 1.04299 0
3.04749e-14 1.04658 0
2.52584e-14 1.04658 0
-1.28299e-14 1.04658 0
-2.07077e-14 1.04658 0
1.25766e-14 1.0501 0
2.17666e-14 1.0501 0
-2.07077e-14 1.04658 0
9.70386e-15 1.04658 0
2.17666e-14 1.0501 0
-2.82484e-15 1.0501 0
-2.14464e-14 1.0501 0
-6.30737e-14 1.0501 0
3.36938e-14 1.05354 0
5.20023e-14 1.05354 0
-6.30737e-14 1.0501 0
-4.14924e-14 1.0501 0
5.20023e-14 1.05354 0
3.50463e-14 1.05354 0
-6.82663e-14 1.05354 0
-4.91897e-14 1.05354 0
6.8832e-14 1.05692 0
4.66956e-14 1.05692 0
-4.91897e-14 1.05354 0
-1.3823e-14 1.05354 0
4.66956e-14 1.05692 0
6.76627e-15 1.05692 0
-4.14924e-14 1.0501 0
-5.02386e-14 1.0501 0
3.50463e-14 1.05354 0
4.93795e-14 1.05354 0
-5.02386e-14 1.0501 0