# vtk DataFile Version 3.0
#This file was generated by the deal.II library on 2018/10/14 at 18:35:17
ASCII
DATASET UNSTRUCTURED_GRID

POINTS 20480 double
0 0 0
0.19635 0 0
0 0.311143 0
0.19635 0.311143 0
0.19635 0 0
0.392699 0 0
0.19635 0.311143 0
0.392699 0.311143 0
0 0.311143 0
0.19635 0.311143 0
0 0.623685 0
0.19635 0.623685 0
0.19635 0.311143 0
0.392699 0.311143 0
0.19635 0.623685 0
0.392699 0.623685 0
0.392699 0 0
0.589049 0 0
0.392699 0.311143 0
0.589049 0.311143 0
0.589049 0 0
0.785398 0 0
0.589049 0.311143 0
0.785398 0.311143 0
0.392699 0.311143 0
0.589049 0.311143 0
0.392699 0.623685 0
0.589049 0.623685 0
0.589049 0.311143 0
0.785398 0.311143 0
0.589049 0.623685 0
0.785398 0.623685 0
0 0.623685 0
0.19635 0.623685 0
0 0.936169 0
0.19635 0.936169 0
0.19635 0.623685 0
0.392699 0.623685 0
0.19635 0.936169 0
0.392699 0.936169 0
0 0.936169 0
0.19635 0.936169 0
0 1.24869 0
0.19635 1.24869 0
0.19635 0.936169 0
0.392699 0.936169 0
0.19635 1.24869 0
0.392699 1.24869 0
0.392699 0.623685 0
0.589049 0.623685 0
0.392699 0.936169 0
0.589049 0.936169 0
0.589049 0.623685 0
0.785398 0.623685 0
0.589049 0.936169 0
0.785398 0.936169 0
0.392699 0.936169 0
0.589049 0.936169 0
0.392699 1.24869 0
0.589049 1.24869 0
0.589049 0.936169 0
0.785398 0.936169 0
0.589049 1.24869 0
0.785398 1.24869 0
0.785398 0 0
0.981748 0 0
0.785398 0.311143 0
0.981748 0.311143 0
0.981748 0 0
1.1781 0 0
0.981748 0.311143 0
1.1781 0.311143 0
0.785398 0.311143 0
0.981748 0.311143 0
0.785398 0.623685 0
0.981748 0.623685 0
0.981748 0.311143 0
1.1781 0.311143 0
0.981748 0.623685 0
1.1781 0.623685 0
1.1781 0 0
1.37445 0 0
1.1781 0.311143 0
1.37445 0.311143 0
1.37445 0 0
1.5708 0 0
1.37445 0.311143 0
1.5708 0.311143 0
1.1781 0.311143 0
1.37445 0.311143 0
1.1781 0.623685 0
1.37445 0.623685 0
1.37445 0.311143 0
1.5708 0.311143 0
1.37445 0.623685 0
1.5708 0.623685 0
0.785398 0.623685 0
0.981748 0.623685 0
0.785398 0.936169 0
0.981748 0.936169 0
0.981748 0.623685 0
1.1781 0.623685 0
0.981748 0.936169 0
1.1781 0.936169 0
0.785398 0.936169 0
0.981748 0.936169 0
0.785398 1.24869 0
0.981748 1.24869 0
0.981748 0.936169 0
1.1781 0.936169 0
0.981748 1.24869 0
1.1781 1.24869 0
1.1781 0.623685 0
1.37445 0.623685 0
1.1781 0.936169 0
1.37445 0.936169 0
1.37445 0.623685 0
1.5708 0.623685 0
1.37445 0.936169 0
1.5708 0.936169 0
1.1781 0.936169 0
1.37445 0.936169 0
1.1781 1.24869 0
1.37445 1.24869 0
1.37445 0.936169 0
1.5708 0.936169 0
1.37445 1.24869 0
1.5708 1.24869 0
0 1.24869 0
0.19635 1.24869 0
0 1.56121 0
0.19635 1.56121 0
0.19635 1.24869 0
0.392699 1.24869 0
0.19635 1.56121 0
0.392699 1.56121 0
0 1.56121 0
0.19635 1.56121 0
0 1.87372 0
0.19635 1.87372 0
0.19635 1.56121 0
0.392699 1.56121 0
0.19635 1.87372 0
0.392699 1.87372 0
0.392699 1.24869 0
0.589049 1.24869 0
0.392699 1.56121 0
0.589049 1.56121 0
0.589049 1.24869 0
0.785398 1.24869 0
0.589049 1.56121 0
0.785398 1.56121 0
0.392699 1.56121 0
0.589049 1.56121 0
0.392699 1.87372 0
0.589049 1.87372 0
0.589049 1.56121 0
0.785398 1.56121 0
0.589049 1.87372 0
0.785398 1.87372 0
0 1.87372 0
0.19635 1.87372 0
0 2.18622 0
0.19635 2.18622 0
0.19635 1.87372 0
0.392699 1.87372 0
0.19635 2.18622 0
0.392699 2.18622 0
0 2.18622 0
0.19635 2.18622 0
0 2.49872 0
0.19635 2.49872 0
0.19635 2.18622 0
0.392699 2.18622 0
0.19635 2.49872 0
0.392699 2.49872 0
0.392699 1.87372 0
0.589049 1.87372 0
0.392699 2.18622 0
0.589049 2.18622 0
0.589049 1.87372 0
0.785398 1.87372 0
0.589049 2.18622 0
0.785398 2.18622 0
0.392699 2.18622 0
0.589049 2.18622 0
0.392699 2.49872 0
0.589049 2.49872 0
0.589049 2.18622 0
0.785398 2.18622 0
0.589049 2.49872 0
0.785398 2.49872 0
0.785398 1.24869 0
0.981748 1.24869 0
0.785398 1.56121 0
0.981748 1.56121 0
0.981748 1.24869 0
1.1781 1.24869 0
0.981748 1.56121 0
1.1781 1.56121 0
0.785398 1.56121 0
0.981748 1.56121 0
0.785398 1.87372 0
0.981748 1.87372 0
0.981748 1.56121 0
1.1781 1.56121 0
0.981748 1.87372 0
1.1781 1.87372 0
1.1781 1.24869 0
1.37445 1.24869 0
1.1781 1.56121 0
1.37445 1.56121 0
1.37445 1.24869 0
1.5708 1.24869 0
1.37445 1.56121 0
1.5708 1.56121 0
1.1781 1.56121 0
1.37445 1.56121 0
1.1781 1.87372 0
1.37445 1.87372 0
1.37445 1.56121 0
1.5708 1.56121 0
1.37445 1.87372 0
1.5708 1.87372 0
0.785398 1.87372 0
0.981748 1.87372 0
0.785398 2.18622 0
0.981748 2.18622 0
0.981748 1.87372 0
1.1781 1.87372 0
0.981748 2.18622 0
1.1781 2.18622 0
0.785398 2.18622 0
0.981748 2.18622 0
0.785398 2.49872 0
0.981748 2.49872 0
0.981748 2.18622 0
1.1781 2.18622 0
0.981748 2.49872 0
1.1781 2.49872 0
1.1781 1.87372 0
1.37445 1.87372 0
1.1781 2.18622 0
1.37445 2.18622 0
1.37445 1.87372 0
1.5708 1.87372 0
1.37445 2.18622 0
1.5708 2.18622 0
1.1781 2.18622 0
1.37445 2.18622 0
1.1781 2.49872 0
1.37445 2.49872 0
1.37445 2.18622 0
1.5708 2.18622 0
1.37445 2.49872 0
1.5708 2.49872 0
1.5708 0 0
1.76715 0 0
1.5708 0.311143 0
1.76715 0.311143 0
1.76715 0 0
1.9635 0 0
1.76715 0.311143 0
1.9635 0.311143 0
1.5708 0.311143 0
1.76715 0.311143 0
1.5708 0.623685 0
1.76715 0.623685 0
1.76715 0.311143 0
1.9635 0.311143 0
1.76715 0.623685 0
1.9635 0.623685 0
1.9635 0 0
2.15984 0 0
1.9635 0.311143 0
2.15984 0.311143 0
2.15984 0 0
2.35619 0 0
2.15984 0.311143 0
2.35619 0.311143 0
1.9635 0.311143 0
2.15984 0.311143 0
1.9635 0.623685 0
2.15984 0.623685 0
2.15984 0.311143 0
2.35619 0.311143 0
2.15984 0.623685 0
2.35619 0.623685 0
1.5708 0.623685 0
1.76715 0.623685 0
1.5708 0.936169 0
1.76715 0.936169 0
1.76715 0.623685 0
1.9635 0.623685 0
1.76715 0.936169 0
1.9635 0.936169 0
1.5708 0.936169 0
1.76715 0.936169 0
1.5708 1.24869 0
1.76715 1.24869 0
1.76715 0.936169 0
1.9635 0.936169 0
1.76715 1.24869 0
1.9635 1.24869 0
1.9635 0.623685 0
2.15984 0.623685 0
1.9635 0.936169 0
2.15984 0.936169 0
2.15984 0.623685 0
2.35619 0.623685 0
2.15984 0.936169 0
2.35619 0.936169 0
1.9635 0.936169 0
2.15984 0.936169 0
1.9635 1.24869 0
2.15984 1.24869 0
2.15984 0.936169 0
2.35619 0.936169 0
2.15984 1.24869 0
2.35619 1.24869 0
2.35619 0 0
2.55254 0 0
2.35619 0.311143 0
2.55254 0.311143 0
2.55254 0 0
2.74889 0 0
2.55254 0.311143 0
2.74889 0.311143 0
2.35619 0.311143 0
2.55254 0.311143 0
2.35619 0.623685 0
2.55254 0.623685 0
2.55254 0.311143 0
2.74889 0.311143 0
2.55254 0.623685 0
2.74889 0.623685 0
2.74889 0 0
2.94524 0 0
2.74889 0.311143 0
2.94524 0.311143 0
2.94524 0 0
3.14159 0 0
2.94524 0.311143 0
3.14159 0.311143 0
2.74889 0.311143 0
2.94524 0.311143 0
2.74889 0.623685 0
2.94524 0.623685 0
2.94524 0.311143 0
3.14159 0.311143 0
2.94524 0.623685 0
3.14159 0.623685 0
2.35619 0.623685 0
2.55254 0.623685 0
2.35619 0.936169 0
2.55254 0.936169 0
2.55254 0.623685 0
2.74889 0.623685 0
2.55254 0.936169 0
2.74889 0.936169 0
2.35619 0.936169 0
2.55254 0.936169 0
2.35619 1.24869 0
2.55254 1.24869 0
2.55254 0.936169 0
2.74889 0.936169 0
2.55254 1.24869 0
2.74889 1.24869 0
2.74889 0.623685 0
2.94524 0.623685 0
2.74889 0.936169 0
2.94524 0.936169 0
2.94524 0.623685 0
3.14159 0.623685 0
2.94524 0.936169 0
3.14159 0.936169 0
2.74889 0.936169 0
2.94524 0.936169 0
2.74889 1.24869 0
2.94524 1.24869 0
2.94524 0.936169 0
3.14159 0.936169 0
2.94524 1.24869 0
3.14159 1.24869 0
1.5708 1.24869 0
1.76715 1.24869 0
1.5708 1.56121 0
1.76715 1.56121 0
1.76715 1.24869 0
1.9635 1.24869 0
1.76715 1.56121 0
1.9635 1.56121 0
1.5708 1.56121 0
1.76715 1.56121 0
1.5708 1.87372 0
1.76715 1.87372 0
1.76715 1.56121 0
1.9635 1.56121 0
1.76715 1.87372 0
1.9635 1.87372 0
1.9635 1.24869 0
2.15984 1.24869 0
1.9635 1.56121 0
2.15984 1.56121 0
2.15984 1.24869 0
2.35619 1.24869 0
2.15984 1.56121 0
2.35619 1.56121 0
1.9635 1.56121 0
2.15984 1.56121 0
1.9635 1.87372 0
2.15984 1.87372 0
2.15984 1.56121 0
2.35619 1.56121 0
2.15984 1.87372 0
2.35619 1.87372 0
1.5708 1.87372 0
1.76715 1.87372 0
1.5708 2.18622 0
1.76715 2.18622 0
1.76715 1.87372 0
1.9635 1.87372 0
1.76715 2.18622 0
1.9635 2.18622 0
1.5708 2.18622 0
1.76715 2.18622 0
1.5708 2.49872 0
1.76715 2.49872 0
1.76715 2.18622 0
1.9635 2.18622 0
1.76715 2.49872 0
1.9635 2.49872 0
1.9635 1.87372 0
2.15984 1.87372 0
1.9635 2.18622 0
2.15984 2.18622 0
2.15984 1.87372 0
2.35619 1.87372 0
2.15984 2.18622 0
2.35619 2.18622 0
1.9635 2.18622 0
2.15984 2.18622 0
1.9635 2.49872 0
2.15984 2.49872 0
2.15984 2.18622 0
2.35619 2.18622 0
2.15984 2.49872 0
2.35619 2.49872 0
2.35619 1.24869 0
2.55254 1.24869 0
2.35619 1.56121 0
2.55254 1.56121 0
2.55254 1.24869 0
2.74889 1.24869 0
2.55254 1.56121 0
2.74889 1.56121 0
2.35619 1.56121 0
2.55254 1.56121 0
2.35619 1.87372 0
2.55254 1.87372 0
2.55254 1.56121 0
2.74889 1.56121 0
2.55254 1.87372 0
2.74889 1.87372 0
2.74889 1.24869 0
2.94524 1.24869 0
2.74889 1.56121 0
2.94524 1.56121 0
2.94524 1.24869 0
3.14159 1.24869 0
2.94524 1.56121 0
3.14159 1.56121 0
2.74889 1.56121 0
2.94524 1.56121 0
2.74889 1.87372 0
2.94524 1.87372 0
2.94524 1.56121 0
3.14159 1.56121 0
2.94524 1.87372 0
3.14159 1.87372 0
2.35619 1.87372 0
2.55254 1.87372 0
2.35619 2.18622 0
2.55254 2.18622 0
2.55254 1.87372 0
2.74889 1.87372 0
2.55254 2.18622 0
2.74889 2.18622 0
2.35619 2.18622 0
2.55254 2.18622 0
2.35619 2.49872 0
2.55254 2.49872 0
2.55254 2.18622 0
2.74889 2.18622 0
2.55254 2.49872 0
2.74889 2.49872 0
2.74889 1.87372 0
2.94524 1.87372 0
2.74889 2.18622 0
2.94524 2.18622 0
2.94524 1.87372 0
3.14159 1.87372 0
2.94524 2.18622 0
3.14159 2.18622 0
2.74889 2.18622 0
2.94524 2.18622 0
2.74889 2.49872 0
2.94524 2.49872 0
2.94524 2.18622 0
3.14159 2.18622 0
2.94524 2.49872 0
3.14159 2.49872 0
0 2.49872 0
0.19635 2.49872 0
0 2.81122 0
0.19635 2.81122 0
0.19635 2.49872 0
0.392699 2.49872 0
0.19635 2.81122 0
0.392699 2.81122 0
0 2.81122 0
0.19635 2.81122 0
0 3.1237 0
0.19635 3.1237 0
0.19635 2.81122 0
0.392699 2.81122 0
0.19635 3.1237 0
0.392699 3.1237 0
0.392699 2.49872 0
0.589049 2.49872 0
0.392699 2.81122 0
0.589049 2.81122 0
0.589049 2.49872 0
0.785398 2.49872 0
0.589049 2.81122 0
0.785398 2.81122 0
0.392699 2.81122 0
0.589049 2.81122 0
0.392699 3.1237 0
0.589049 3.1237 0
0.589049 2.81122 0
0.785398 2.81122 0
0.589049 3.1237 0
0.785398 3.1237 0
0 3.1237 0
0.19635 3.1237 0
0 3.43619 0
0.19635 3.43619 0
0.19635 3.1237 0
0.392699 3.1237 0
0.19635 3.43619 0
0.392699 3.43619 0
[...]
POINT_DATA 20480
VECTORS uf double
0 1 0
-2.85169e-14 1 0
0 1.00688 0
2.76813e-14 1.00688 0
-2.85169e-14 1 0
-4.43992e-14 1 0
2.76813e-14 1.00688 0
4.7501e-14 1.00688 0
0 1.00688 0
-2.28594e-14 1.00688 0
0 1.01009 0
3.22961e-14 1.01009 0
-2.28594e-14 1.00688 0
-2.65068e-14 1.00688 0
3.22961e-14 1.01009 0
3.16504e-14 1.01009 0
-4.43992e-14 1 0
-4.1727e-14 1 0
4.7501e-14 1.00688 0
5.28052e-14 1.00688 0
-4.1727e-14 1 0
-1.59711e-14 1 0
5.28052e-14 1.00688 0
1.66442e-14 1.00688 0
-2.65068e-14 1.00688 0
-4.82414e-14 1.00688 0
3.16504e-14 1.01009 0
4.26922e-14 1.01009 0
-4.82414e-14 1.00688 0
-3.91967e-14 1.00688 0
4.26922e-14 1.01009 0
5.11778e-14 1.01009 0
0 1.01009 0
-3.72446e-14 1.01009 0
0 1.01413 0
3.06259e-14 1.01413 0
-3.72446e-14 1.01009 0
-3.72101e-14 1.01009 0
3.06259e-14 1.01413 0
3.83187e-14 1.01413 0
0 1.01413 0
-6.39237e-15 1.01413 0
0 1.01789 0
2.30235e-15 1.01789 0
-6.39237e-15 1.01413 0
-5.25805e-14 1.01413 0
2.30235e-15 1.01789 0
5.55512e-14 1.01789 0
-3.72101e-14 1.01009 0
-6.11899e-14 1.01009 0
3.83187e-14 1.01413 0
6.106e-14 1.01413 0
-6.11899e-14 1.01009 0
-4.91257e-14 1.01009 0
6.106e-14 1.01413 0
5.08748e-14 1.01413 0
-5.25805e-14 1.01413 0
-3.51918e-14 1.01413 0
5.55512e-14 1.01789 0
2.19026e-14 1.01789 0
-3.51918e-14 1.01413 0
-6.13768e-14 1.01413 0
2.19026e-14 1.01789 0
4.7419e-14 1.01789 0
-1.59711e-14 1 0
-3.02088e-14 1 0
1.66442e-14 1.00688 0
4.12329e-14 1.00688 0
-3.02088e-14 1 0
-4.88053e-14 1 0
4.12329e-14 1.00688 0
5.94014e-14 1.00688 0
-3.91967e-14 1.00688 0
-7.3564e-14 1.00688 0
5.11778e-14 1.01009 0
8.2713e-14 1.01009 0
-7.3564e-14 1.00688 0
-4.79203e-14 1.00688 0
8.2713e-14 1.01009 0
4.71835e-14 1.01009 0
-4.88053e-14 1 0
-3.98859e-14 1 0
5.94014e-14 1.00688 0
5.95167e-14 1.00688 0
-3.98859e-14 1 0
-4.67171e-14 1 0
5.95167e-14 1.00688 0
6.3151e-14 1.00688 0
-4.79203e-14 1.00688 0
-5.87288e-14 1.00688 0
4.71835e-14 1.01009 0
5.13474e-14 1.01009 0
-5.87288e-14 1.00688 0
-5.87107e-14 1.00688 0
5.13474e-14 1.01009 0
6.30665e-14 1.01009 0
-4.91257e-14 1.01009 0
-7.66294e-14 1.01009 0
5.08748e-14 1.01413 0
7.86801e-14 1.01413 0
-7.66294e-14 1.01009 0
-6.0861e-14 1.01009 0
7.86801e-14 1.01413 0
6.03439e-14 1.01413 0
-6.13768e-14 1.01413 0
-7.28483e-14 1.01413 0
4.7419e-14 1.01789 0
5.77839e-14 1.01789 0
-7.28483e-14 1.01413 0
-6.46307e-14 1.01413 0
5.77839e-14 1.01789 0
6.59569e-14 1.01789 0
-6.0861e-14 1.01009 0
-7.74558e-14 1.01009 0
6.03439e-14 1.01413 0
7.15057e-14 1.01413 0
-7.74558e-14 1.01009 0
-7.34738e-14 1.01009 0
7.15057e-14 1.01413 0
6.67892e-14 1.01413 0
-6.46307e-14 1.01413 0
-5.41865e-14 1.01413 0
6.59569e-14 1.01789 0
5.14226e-14 1.01789 0
-5.41865e-14 1.01413 0
-7.21387e-14 1.01413 0
5.14226e-14 1.01789 0
8.27115e-14 1.01789 0
0 1.01789 0
3.10463e-15 1.01789 0
0 1.02165 0
-3.84141e-15 1.02165 0
3.10463e-15 1.01789 0
-4.84877e-14 1.01789 0
-3.84141e-15 1.02165 0
4.78447e-14 1.02165 0
0 1.02165 0
-3.0354e-14 1.02165 0
0 1.02532 0
4.0228e-14 1.02532 0
-3.0354e-14 1.02165 0
-1.32249e-14 1.02165 0
4.0228e-14 1.02532 0
-1.29995e-15 1.02532 0
-4.84877e-14 1.01789 0
-5.64419e-15 1.01789 0
4.78447e-14 1.02165 0
6.84182e-15 1.02165 0
-5.64419e-15 1.01789 0
-1.36866e-14 1.01789 0
6.84182e-15 1.02165 0
1.76345e-14 1.02165 0
-1.32249e-14 1.02165 0
8.95315e-15 1.02165 0
-1.29995e-15 1.02532 0
-5.54076e-15 1.02532 0
8.95315e-15 1.02165 0
-5.45068e-14 1.02165 0
-5.54076e-15 1.02532 0
6.31463e-14 1.02532 0
0 1.02532 0
-6.50593e-15 1.02532 0
0 1.02893 0
-1.17151e-14 1.02893 0
-6.50593e-15 1.02532 0
3.06042e-14 1.02532 0
-1.17151e-14 1.02893 0
-2.99825e-14 1.02893 0
0 1.02893 0
7.84489e-15 1.02893 0
0 1.03248 0
1.27002e-15 1.03248 0
7.84489e-15 1.02893 0
1.56343e-14 1.02893 0
1.27002e-15 1.03248 0
-1.67462e-14 1.03248 0
3.06042e-14 1.02532 0
6.55212e-15 1.02532 0
-2.99825e-14 1.02893 0
8.45508e-15 1.02893 0
6.55212e-15 1.02532 0
-4.06084e-14 1.02532 0
8.45508e-15 1.02893 0
5.51668e-14 1.02893 0
1.56343e-14 1.02893 0
-5.93783e-14 1.02893 0
-1.67462e-14 1.03248 0
6.52487e-14 1.03248 0
-5.93783e-14 1.02893 0
-1.12992e-13 1.02893 0
6.52487e-14 1.03248 0
1.16095e-13 1.03248 0
-1.36866e-14 1.01789 0
-3.08172e-14 1.01789 0
1.76345e-14 1.02165 0
2.42965e-14 1.02165 0
-3.08172e-14 1.01789 0
-4.86676e-14 1.01789 0
2.42965e-14 1.02165 0
3.49544e-14 1.02165 0
-5.45068e-14 1.02165 0
-4.22552e-14 1.02165 0
6.31463e-14 1.02532 0
5.4128e-14 1.02532 0
-4.22552e-14 1.02165 0
-1.9587e-14 1.02165 0
5.4128e-14 1.02532 0
2.13833e-14 1.02532 0
-4.86676e-14 1.01789 0
-3.25359e-14 1.01789 0
3.49544e-14 1.02165 0
3.28078e-14 1.02165 0
-3.25359e-14 1.01789 0
-5.22668e-14 1.01789 0
3.28078e-14 1.02165 0
4.45515e-14 1.02165 0
-1.9587e-14 1.02165 0
-1.98412e-14 1.02165 0
2.13833e-14 1.02532 0
2.28269e-14 1.02532 0
-1.98412e-14 1.02165 0
-2.99483e-14 1.02165 0
2.28269e-14 1.02532 0
3.77221e-14 1.02532 0
-4.06084e-14 1.02532 0
-5.50424e-14 1.02532 0
5.51668e-14 1.02893 0
6.36858e-14 1.02893 0
-5.50424e-14 1.02532 0
-2.9993e-14 1.02532 0
6.36858e-14 1.02893 0
3.41448e-14 1.02893 0
-1.12992e-13 1.02893 0
-5.63506e-14 1.02893 0
1.16095e-13 1.03248 0
5.37997e-14 1.03248 0
-5.63506e-14 1.02893 0
-3.74349e-14 1.02893 0
5.37997e-14 1.03248 0
5.27466e-14 1.03248 0
-2.9993e-14 1.02532 0
-3.84687e-14 1.02532 0
3.41448e-14 1.02893 0
4.95287e-14 1.02893 0
-3.84687e-14 1.02532 0
-7.33349e-14 1.02532 0
4.95287e-14 1.02893 0
8.58375e-14 1.02893 0
-3.74349e-14 1.02893 0
-5.51787e-14 1.02893 0
5.27466e-14 1.03248 0
5.26671e-14 1.03248 0
-5.51787e-14 1.02893 0
-6.28794e-14 1.02893 0
5.26671e-14 1.03248 0
4.90325e-14 1.03248 0
-4.67171e-14 1 0
-5.51145e-14 1 0
6.3151e-14 1.00688 0
7.42468e-14 1.00688 0
-5.51145e-14 1 0
-5.61857e-14 1 0
7.42468e-14 1.00688 0
7.34785e-14 1.00688 0
-5.87107e-14 1.00688 0
-4.56621e-14 1.00688 0
6.30665e-14 1.01009 0
4.16891e-14 1.01009 0
-4.56621e-14 1.00688 0
-4.35184e-14 1.00688 0
4.16891e-14 1.01009 0
3.72391e-14 1.01009 0
-5.61857e-14 1 0
-9.81813e-14 1 0
7.34785e-14 1.00688 0
1.27215e-13 1.00688 0
-9.81813e-14 1 0
-7.09058e-14 1 0
1.27215e-13 1.00688 0
8.9144e-14 1.00688 0
-4.35184e-14 1.00688 0
-6.73287e-14 1.00688 0
3.72391e-14 1.01009 0
5.59834e-14 1.01009 0
-6.73287e-14 1.00688 0
-8.91804e-14 1.00688 0
5.59834e-14 1.01009 0
1.00559e-13 1.01009 0
-7.34738e-14 1.01009 0
-4.96534e-14 1.01009 0
6.67892e-14 1.01413 0
4.846e-14 1.01413 0
-4.96534e-14 1.01009 0
-5.57123e-14 1.01009 0
4.846e-14 1.01413 0
5.94072e-14 1.01413 0
-7.21387e-14 1.01413 0
-5.06388e-14 1.01413 0
8.27115e-14 1.01789 0
4.7497e-14 1.01789 0
-5.06388e-14 1.01413 0
-5.83865e-14 1.01413 0
4.7497e-14 1.01789 0
6.61771e-14 1.01789 0
-5.57123e-14 1.01009 0
-7.63544e-14 1.01009 0
5.94072e-14 1.01413 0
8.07313e-14 1.01413 0
-7.63544e-14 1.01009 0
-8.3094e-14 1.01009 0
8.07313e-14 1.01413 0
6.9331e-14 1.01413 0
-5.83865e-14 1.01413 0
-5.72087e-14 1.01413 0
6.61771e-14 1.01789 0
4.69485e-14 1.01789 0
-5.72087e-14 1.01413 0
-3.15745e-14 1.01413 0
4.69485e-14 1.01789 0
3.08855e-14 1.01789 0
-7.09058e-14 1 0
-6.10685e-14 1 0
8.9144e-14 1.00688 0
8.29261e-14 1.00688 0
-6.10685e-14 1 0
-6.92135e-14 1 0
8.29261e-14 1.00688 0
9.02261e-14 1.00688 0
-8.91804e-14 1.00688 0
-8.55068e-14 1.00688 0
1.00559e-13 1.01009 0
9.65366e-14 1.01009 0
-8.55068e-14 1.00688 0
-5.06663e-14 1.00688 0
9.65366e-14 1.01009 0
4.09704e-14 1.01009 0
-6.92135e-14 1 0
-6.09132e-14 1 0
9.02261e-14 1.00688 0
8.25972e-14 1.00688 0
-6.09132e-14 1 0
-4.39644e-14 1 0
8.25972e-14 1.00688 0
5.60577e-14 1.00688 0
-5.06663e-14 1.00688 0
-9.41041e-14 1.00688 0
4.09704e-14 1.01009 0
1.05028e-13 1.01009 0
-9.41041e-14 1.00688 0
-5.43968e-14 1.00688 0
1.05028e-13 1.01009 0
6.1622e-14 1.01009 0
-8.3094e-14 1.01009 0
-9.41798e-14 1.01009 0
6.9331e-14 1.01413 0
8.13274e-14 1.01413 0
-9.41798e-14 1.01009 0
-6.01836e-14 1.01009 0
8.13274e-14 1.01413 0
7.57793e-14 1.01413 0
-3.15745e-14 1.01413 0
-4.71319e-14 1.01413 0
3.08855e-14 1.01789 0
4.4936e-14 1.01789 0
-4.71319e-14 1.01413 0
-7.75615e-14 1.01413 0
4.4936e-14 1.01789 0
6.87245e-14 1.01789 0
-6.01836e-14 1.01009 0
-6.38828e-14 1.01009 0
7.57793e-14 1.01413 0
4.18012e-14 1.01413 0
-6.38828e-14 1.01009 0
-4.60878e-14 1.01009 0
4.18012e-14 1.01413 0
4.82934e-14 1.01413 0
-7.75615e-14 1.01413 0
-3.53495e-14 1.01413 0
6.87245e-14 1.01789 0
5.31081e-14 1.01789 0
-3.53495e-14 1.01413 0
-5.91798e-14 1.01413 0
5.31081e-14 1.01789 0
7.63993e-14 1.01789 0
-5.22668e-14 1.01789 0
-3.19283e-14 1.01789 0
4.45515e-14 1.02165 0
4.0969e-14 1.02165 0
-3.19283e-14 1.01789 0
-5.20638e-14 1.01789 0
4.0969e-14 1.02165 0
5.16916e-14 1.02165 0
-2.99483e-14 1.02165 0
-6.9964e-14 1.02165 0
3.77221e-14 1.02532 0
8.27107e-14 1.02532 0
-6.9964e-14 1.02165 0
-5.38413e-14 1.02165 0
8.27107e-14 1.02532 0
5.21605e-14 1.02532 0
-5.20638e-14 1.01789 0
-3.45343e-14 1.01789 0
5.16916e-14 1.02165 0
4.32285e-14 1.02165 0
-3.45343e-14 1.01789 0
-2.45452e-14 1.01789 0
4.32285e-14 1.02165 0
3.94845e-14 1.02165 0
-5.38413e-14 1.02165 0
-3.24036e-14 1.02165 0
5.21605e-14 1.02532 0
3.26544e-14 1.02532 0
-3.24036e-14 1.02165 0
-5.75043e-14 1.02165 0
3.26544e-14 1.02532 0
7.01718e-14 1.02532 0
-7.33349e-14 1.02532 0
-5.42148e-14 1.02532 0
8.58375e-14 1.02893 0
4.77866e-14 1.02893 0
-5.42148e-14 1.02532 0
-3.1298e-14 1.02532 0
4.77866e-14 1.02893 0
4.65149e-14 1.02893 0
-6.28794e-14 1.02893 0
-4.57556e-14 1.02893 0
4.90325e-14 1.03248 0
4.99879e-14 1.03248 0
-4.57556e-14 1.02893 0
-7.4575e-14 1.02893 0
4.99879e-14 1.03248 0
8.35013e-14 1.03248 0
-3.1298e-14 1.02532 0
-3.41221e-14 1.02532 0
4.65149e-14 1.02893 0
4.11044e-14 1.02893 0
-3.41221e-14 1.02532 0
-6.71606e-14 1.02532 0
4.11044e-14 1.02893 0
7.39398e-14 1.02893 0
-7.4575e-14 1.02893 0
-4.00278e-14 1.02893 0
8.35013e-14 1.03248 0
5.1114e-14 1.03248 0
-4.00278e-14 1.02893 0
-7.03397e-14 1.02893 0
5.1114e-14 1.03248 0
7.57221e-14 1.03248 0
-2.45452e-14 1.01789 0
-1.35274e-14 1.01789 0
3.94845e-14 1.02165 0
1.62614e-14 1.02165 0
-1.35274e-14 1.01789 0
-1.52947e-14 1.01789 0
1.62614e-14 1.02165 0
2.63843e-14 1.02165 0
-5.75043e-14 1.02165 0
-7.61447e-16 1.02165 0
7.01718e-14 1.02532 0
1.39619e-14 1.02532 0
-7.61447e-16 1.02165 0
-3.5238e-14 1.02165 0
1.39619e-14 1.02532 0
4.60759e-14 1.02532 0
-1.52947e-14 1.01789 0
-4.50633e-14 1.01789 0
2.63843e-14 1.02165 0
4.96722e-14 1.02165 0
-4.50633e-14 1.01789 0
-5.61899e-14 1.01789 0
4.96722e-14 1.02165 0
5.44897e-14 1.02165 0
-3.5238e-14 1.02165 0
-4.94662e-14 1.02165 0
4.60759e-14 1.02532 0
5.88623e-14 1.02532 0
-4.94662e-14 1.02165 0
-5.193e-14 1.02165 0
5.88623e-14 1.02532 0
5.7674e-14 1.02532 0
-6.71606e-14 1.02532 0
-4.58017e-14 1.02532 0
7.39398e-14 1.02893 0
5.8631e-14 1.02893 0
-4.58017e-14 1.02532 0
-6.63721e-14 1.02532 0
5.8631e-14 1.02893 0
7.7663e-14 1.02893 0
-7.03397e-14 1.02893 0
-3.3975e-14 1.02893 0
7.57221e-14 1.03248 0
3.27318e-14 1.03248 0
-3.3975e-14 1.02893 0
-3.58987e-14 1.02893 0
3.27318e-14 1.03248 0
3.58607e-14 1.03248 0
-6.63721e-14 1.02532 0
-6.70628e-14 1.02532 0
7.7663e-14 1.02893 0
7.25431e-14 1.02893 0
-6.70628e-14 1.02532 0
-5.43676e-14 1.02532 0
7.25431e-14 1.02893 0
6.46578e-14 1.02893 0
-3.58987e-14 1.02893 0
-3.86058e-14 1.02893 0
3.58607e-14 1.03248 0
3.59503e-14 1.03248 0
-3.86058e-14 1.02893 0
-3.38368e-14 1.02893 0
3.59503e-14 1.03248 0
4.86129e-14 1.03248 0
0 1.03248 0
-1.33273e-14 1.03248 0
0 1.03595 0
2.48732e-14 1.03595 0
-1.33273e-14 1.03248 0
7.1943e-15 1.03248 0
2.48732e-14 1.03595 0
-4.34091e-15 1.03595 0
0 1.03595 0
-3.02264e-14 1.03595 0
0 1.03936 0
2.11716e-14 1.03936 0
-3.02264e-14 1.03595 0
3.70857e-15 1.03595 0
2.11716e-14 1.03936 0
2.77906e-15 1.03936 0
7.1943e-15 1.03248 0
-7.13485e-14 1.03248 0
-4.34091e-15 1.03595 0
6.95849e-14 1.03595 0
-7.13485e-14 1.03248 0
-8.92712e-14 1.03248 0
6.95849e-14 1.03595 0
8.29139e-14 1.03595 0
3.70857e-15 1.03595 0
-5.11102e-14 1.03595 0
2.77906e-15 1.03936 0
5.12472e-14 1.03936 0
-5.11102e-14 1.03595 0
-6.15212e-14 1.03595 0
5.12472e-14 1.03936 0
5.96663e-14 1.03936 0
0 1.03936 0
-2.27743e-14 1.03936 0
0 1.0427 0
2.1789e-14 1.0427 0
-2.27743e-14 1.03936 0
-2.30633e-15 1.03936 0
2.1789e-14 1.0427 0
5.72623e-15 1.0427 0
0 1.0427 0
-1.73502e-14 1.0427 0
0 1.04598 0
2.72701e-14 1.04598 0
-1.73502e-14 1.0427 0
-5.48468e-15 1.0427 0
2.72701e-14 1.04598 0
2.5005e-15 1.04598 0
-2.30633e-15 1.03936 0
-5.77927e-14 1.03936 0
5.72623e-15 1.0427 0
4.10704e-14 1.0427 0
-5.77927e-14 1.03936 0
-8.24646e-14 1.03936 0
4.10704e-14 1.0427 0
7.60109e-14 1.0427 0
-5.48468e-15 1.0427 0
1.6148e-14 1.0427 0
2.5005e-15 1.04598 0
-3.95577e-14 1.04598 0
1.6148e-14 1.0427 0
-4.74734e-14 1.0427 0
-3.95577e-14 1.04598 0
3.19861e-14 1.04598 0
-8.92712e-14 1.03248 0
-6.59146e-14 1.03248 0
8.29139e-14 1.03595 0
6.96016e-14 1.03595 0
-6.59146e-14 1.03248 0
-7.06435e-14 1.03248 0
6.96016e-14 1.03595 0
7.10148e-14 1.03595 0
-6.15212e-14 1.03595 0
-5.3719e-14 1.03595 0
5.96663e-14 1.03936 0
5.9194e-14 1.03936 0
-5.3719e-14 1.03595 0
-4.8986e-14 1.03595 0
5.9194e-14 1.03936 0
4.6146e-14 1.03936 0
-7.06435e-14 1.03248 0
-5.83544e-14 1.03248 0
7.10148e-14 1.03595 0
6.39451e-14 1.03595 0
-5.83544e-14 1.03248 0
-2.71918e-14 1.03248 0
6.39451e-14 1.03595 0
3.49733e-14 1.03595 0
-4.8986e-14 1.03595 0
-5.0752e-14 1.03595 0
4.6146e-14 1.03936 0
4.18047e-14 1.03936 0
-5.0752e-14 1.03595 0
-6.10599e-14 1.03595 0
4.18047e-14 1.03936 0
6.06105e-14 1.03936 0
-8.24646e-14 1.03936 0
-6.96826e-14 1.03936 0
7.60109e-14 1.0427 0
6.50671e-14 1.0427 0
-6.96826e-14 1.03936 0
-7.16307e-14 1.03936 0
6.50671e-14 1.0427 0
7.82063e-14 1.0427 0
-4.74734e-14 1.0427 0
-6.47091e-14 1.0427 0
3.19861e-14 1.04598 0
7.12094e-14 1.04598 0
-6.47091e-14 1.0427 0
-7.00188e-14 1.0427 0
7.12094e-14 1.04598 0
7.28182e-14 1.04598 0
-7.16307e-14 1.03936 0
-6.2261e-14 1.03936 0
7.82063e-14 1.0427 0
8.01549e-14 1.0427 0
-6.2261e-14 1.03936 0
-5.49741e-14 1.03936 0
8.01549e-14 1.0427 0
5.62142e-14 1.0427 0
-7.00188e-14 1.0427 0
-6.09413e-14 1.0427 0
7.28182e-14 1.04598 0
6.25051e-14 1.04598 0
-6.09413e-14 1.0427 0
-3.15698e-14 1.0427 0
6.25051e-14 1.04598 0
2.37959e-14 1.04598 0
0 1.04598 0
-2.94704e-14 1.04598 0
0 1.0492 0
2.13066e-14 1.0492 0
-2.94704e-14 1.04598 0
-5.35615e-15 1.04598 0
2.13066e-14 1.0492 0
3.74839e-15 1.0492 0
0 1.0492 0
-2.38427e-14 1.0492 0
0 1.05235 0
2.49111e-14 1.05235 0
-2.38427e-14 1.0492 0
-2.63215e-15 1.0492 0
2.49111e-14 1.05235 0
1.30392e-15 1.05235 0
-5.35615e-15 1.04598 0
4.47506e-14 1.04598 0
3.74839e-15 1.0492 0
-2.19713e-14 1.0492 0
4.47506e-14 1.04598 0
7.7951e-15 1.04598 0
-2.19713e-14 1.0492 0
-6.29984e-15 1.0492 0
-2.63215e-15 1.0492 0
-1.47515e-14 1.0492 0
1.30392e-15 1.05235 0
1.99221e-14 1.05235 0
-1.47515e-14 1.0492 0
-8.08818e-15 1.0492 0
1.99221e-14 1.05235 0
2.29933e-14 1.05235 0
0 1.05235 0
-6.68871e-15 1.05235 0
0 1.05546 0
1.02327e-14 1.05546 0
-6.68871e-15 1.05235 0
9.92813e-15 1.05235 0
1.02327e-14 1.05546 0
-6.41007e-15 1.05546 0
0 1.05546 0
-3.1115e-14 1.05546 0
0 1.05851 0
3.39032e-14 1.05851 0
-3.1115e-14 1.05546 0
1.0685e-15 1.05546 0
3.39032e-14 1.05851 0
-8.21896e-15 1.05851 0
9.92813e-15 1.05235 0
-2.41642e-16 1.05235 0
-6.41007e-15 1.05546 0
-1.15923e-15 1.05546 0
-2.41642e-16 1.05235 0
-4.5787e-14 1.05235 0
-1.15923e-15 1.05546 0
4.88583e-14 1.05546 0
1.0685e-15 1.05546 0
1.91438e-15 1.05546 0
-8.21896e-15 1.05851 0
1.73565e-15 1.05851 0
1.91438e-15 1.05546 0
-3.29981e-14 1.05546 0
1.73565e-15 1.05851 0
3.40572e-14 1.05851 0
7.7951e-15 1.04598 0
-6.40966e-14 1.04598 0
-6.29984e-15 1.0492 0
6.67046e-14 1.0492 0
-6.40966e-14 1.04598 0
-5.49378e-14 1.04598 0
6.67046e-14 1.0492 0
6.07282e-14 1.0492 0
-8.08818e-15 1.0492 0
-6.57617e-14 1.0492 0
2.29933e-14 1.05235 0
6.1921e-14 1.05235 0
-6.57617e-14 1.0492 0
-6.30211e-14 1.0492 0
6.1921e-14 1.05235 0
6.07324e-14 1.05235 0
-5.49378e-14 1.04598 0
-8.56282e-14 1.04598 0
6.07282e-14 1.0492 0
9.58144e-14 1.0492 0
-8.56282e-14 1.04598 0
-3.25245e-14 1.04598 0
9.58144e-14 1.0492 0
4.78739e-14 1.0492 0
-6.30211e-14 1.0492 0
-7.9113e-14 1.0492 0
6.07324e-14 1.05235 0
6.95906e-14 1.05235 0
-7.9113e-14 1.0492 0
-7.62413e-14 1.0492 0
6.95906e-14 1.05235 0
8.02702e-14 1.05235 0
-4.5787e-14 1.05235 0
-5.48137e-14 1.05235 0
4.88583e-14 1.05546 0
5.99846e-14 1.05546 0
-5.48137e-14 1.05235 0
-6.19782e-14 1.05235 0
5.99846e-14 1.05546 0
6.77575e-14 1.05546 0
-3.29981e-14 1.05546 0
-5.77621e-14 1.05546 0
3.40572e-14 1.05851 0
4.789e-14 1.05851 0
-5.77621e-14 1.05546 0
-6.17091e-14 1.05546 0
4.789e-14 1.05851 0
5.41512e-14 1.05851 0
-6.19782e-14 1.05235 0
-6.0372e-14 1.05235 0
6.77575e-14 1.05546 0
6.21135e-14 1.05546 0
-6.0372e-14 1.05235 0
-6.09635e-14 1.05235 0
6.21135e-14 1.05546 0
5.91785e-14 1.05546 0
-6.17091e-14 1.05546 0
-5.19403e-14 1.05546 0
5.41512e-14 1.05851 0
5.15538e-14 1.05851 0
-5.19403e-14 1.05546 0
-5.42942e-14 1.05546 0
5.15538e-14 1.05851 0
5.02046e-14 1.05851 0
-2.71918e-14 1.03248 0
-5.50655e-14 1.03248 0
3.49733e-14 1.03595 0
5.86827e-14 1.03595 0
-5.50655e-14 1.03248 0
-7.22168e-14 1.03248 0
5.86827e-14 1.03595 0
8.00738e-14 1.03595 0
-6.10599e-14 1.03595 0
-4.4298e-14 1.03595 0
6.06105e-14 1.03936 0
4.01898e-14 1.03936 0
-4.4298e-14 1.03595 0
-7.17278e-14 1.03595 0
4.01898e-14 1.03936 0
6.94992e-14 1.03936 0
-7.22168e-14 1.03248 0
-5.30085e-14 1.03248 0
8.00738e-14 1.03595 0
6.15127e-14 1.03595 0
-5.30085e-14 1.03248 0
-6.51976e-14 1.03248 0
6.15127e-14 1.03595 0
6.58316e-14 1.03595 0
-7.17278e-14 1.03595 0
-7.08399e-14 1.03595 0
6.94992e-14 1.03936 0
7.79113e-14 1.03936 0
-7.08399e-14 1.03595 0
-9.02659e-14 1.03595 0
7.79113e-14 1.03936 0
9.90027e-14 1.03936 0
-5.49741e-14 1.03936 0
-4.0361e-14 1.03936 0
5.62142e-14 1.0427 0
4.54354e-14 1.0427 0
-4.0361e-14 1.03936 0
-6.67938e-14 1.03936 0
4.54354e-14 1.0427 0
6.20896e-14 1.0427 0
-3.15698e-14 1.0427 0
-4.58707e-14 1.0427 0
2.37959e-14 1.04598 0
4.58358e-14 1.04598 0
-4.58707e-14 1.0427 0
-6.42205e-14 1.0427 0
4.58358e-14 1.04598 0
6.4257e-14 1.04598 0
-6.67938e-14 1.03936 0
-7.19686e-14 1.03936 0
6.20896e-14 1.0427 0
6.54394e-14 1.0427 0
-7.19686e-14 1.03936 0
-9.16163e-14 1.03936 0
6.54394e-14 1.0427 0
9.06545e-14 1.0427 0
-6.42205e-14 1.0427 0
-5.08169e-14 1.0427 0
6.4257e-14 1.04598 0
4.39708e-14 1.04598 0
-5.08169e-14 1.0427 0
-5.80215e-14 1.0427 0
4.39708e-14 1.04598 0
5.87953e-14 1.04598 0
-6.51976e-14 1.03248 0
-2.90597e-14 1.03248 0
6.58316e-14 1.03595 0
2.31331e-14 1.03595 0
-2.90597e-14 1.03248 0
-3.92999e-14 1.03248 0
2.31331e-14 1.03595 0
3.71978e-14 1.03595 0
-9.02659e-14 1.03595 0
-1.7137e-14 1.03595 0
9.90027e-14 1.03936 0
2.32535e-14 1.03936 0
-1.7137e-14 1.03595 0
-4.47584e-14 1.03595 0
2.32535e-14 1.03936 0
5.06777e-14 1.03936 0
-3.92999e-14 1.03248 0
-1.37034e-14 1.03248 0
3.71978e-14 1.03595 0
1.08969e-14 1.03595 0
-1.37034e-14 1.03248 0
-5.3407e-14 1.03248 0
1.08969e-14 1.03595 0
5.22328e-14 1.03595 0
-4.47584e-14 1.03595 0
-3.61011e-14 1.03595 0
5.06777e-14 1.03936 0
5.19403e-14 1.03936 0
-3.61011e-14 1.03595 0
-6.12028e-14 1.03595 0
5.19403e-14 1.03936 0
6.84345e-14 1.03936 0
-9.16163e-14 1.03936 0
-2.46424e-14 1.03936 0
9.06545e-14 1.0427 0
3.15974e-14 1.0427 0
-2.46424e-14 1.03936 0
-4.57792e-14 1.03936 0
3.15974e-14 1.0427 0
5.18518e-14 1.0427 0
-5.80215e-14 1.0427 0
-2.28034e-14 1.0427 0
5.87953e-14 1.04598 0
2.62617e-14 1.04598 0
-2.28034e-14 1.0427 0
-2.8754e-14 1.0427 0
2.62617e-14 1.04598 0
2.026e-14 1.04598 0
-4.57792e-14 1.03936 0
-4.14721e-14 1.03936 0
5.18518e-14 1.0427 0
3.51505e-14 1.0427 0
-4.14721e-14 1.03936 0
-5.03306e-14 1.03936 0
3.51505e-14 1.0427 0
3.82496e-14 1.0427 0
-2.8754e-14 1.0427 0
-1.9394e-14 1.0427 0
2.026e-14 1.04598 0
2.16878e-14 1.04598 0
-1.9394e-14 1.0427 0
6.59444e-15 1.0427 0
2.16878e-14 1.04598 0
-5.89029e-15 1.04598 0
-3.25245e-14 1.04598 0
-5.98226e-14 1.04598 0
4.78739e-14 1.0492 0
5.24333e-14 1.0492 0
-5.98226e-14 1.04598 0
-5.9083e-14 1.04598 0
5.24333e-14 1.0492 0
4.10395e-14 1.0492 0
-7.62413e-14 1.0492 0
-4.08241e-14 1.0492 0
8.02702e-14 1.05235 0
5.28432e-14 1.05235 0
-4.08241e-14 1.0492 0
-8.28268e-15 1.0492 0
5.28432e-14 1.05235 0
1.07868e-14 1.05235 0
-5.9083e-14 1.04598 0
-5.55245e-14 1.04598 0
4.10395e-14 1.0492 0
6.36985e-14 1.0492 0
-5.55245e-14 1.04598 0
-7.28766e-14 1.04598 0
6.36985e-14 1.0492 0
7.70877e-14 1.0492 0
-8.28268e-15 1.0492 0