# vtk DataFile Version 3.0
#This file was generated by the deal.II library on 2018/10/14 at 17:03:11
ASCII
DATASET UNSTRUCTURED_GRID

POINTS 20480 double
0 0 0
0.19635 0 0
0 0.3125 0
0.19635 0.3125 0
0.19635 0 0
0.392699 0 0
0.19635 0.3125 0
0.392699 0.3125 0
0 0.3125 0
0.19635 0.3125 0
0 0.625 0
0.19635 0.625 0
0.19635 0.3125 0
0.392699 0.3125 0
0.19635 0.625 0
0.392699 0.625 0
0.392699 0 0
0.589049 0 0
0.392699 0.3125 0
0.589049 0.3125 0
0.589049 0 0
0.785398 0 0
0.589049 0.3125 0
0.785398 0.3125 0
0.392699 0.3125 0
0.589049 0.3125 0
0.392699 0.625 0
0.589049 0.625 0
0.589049 0.3125 0
0.785398 0.3125 0
0.589049 0.625 0
0.785398 0.625 0
0 0.625 0
0.19635 0.625 0
0 0.9375 0
0.19635 0.9375 0
0.19635 0.625 0
0.392699 0.625 0
0.19635 0.9375 0
0.392699 0.9375 0
0 0.9375 0
0.19635 0.9375 0
0 1.25 0
0.19635 1.25 0
0.19635 0.9375 0
0.392699 0.9375 0
0.19635 1.25 0
0.392699 1.25 0
0.392699 0.625 0
0.589049 0.625 0
0.392699 0.9375 0
0.589049 0.9375 0
0.589049 0.625 0
0.785398 0.625 0
0.589049 0.9375 0
0.785398 0.9375 0
0.392699 0.9375 0
0.589049 0.9375 0
0.392699 1.25 0
0.589049 1.25 0
0.589049 0.9375 0
0.785398 0.9375 0
0.589049 1.25 0
0.785398 1.25 0
0.785398 0 0
0.981748 0 0
0.785398 0.3125 0
0.981748 0.3125 0
0.981748 0 0
1.1781 0 0
0.981748 0.3125 0
1.1781 0.3125 0
0.785398 0.3125 0
0.981748 0.3125 0
0.785398 0.625 0
0.981748 0.625 0
0.981748 0.3125 0
1.1781 0.3125 0
0.981748 0.625 0
1.1781 0.625 0
1.1781 0 0
1.37445 0 0
1.1781 0.3125 0
1.37445 0.3125 0
1.37445 0 0
1.5708 0 0
1.37445 0.3125 0
1.5708 0.3125 0
1.1781 0.3125 0
1.37445 0.3125 0
1.1781 0.625 0
1.37445 0.625 0
1.37445 0.3125 0
1.5708 0.3125 0
1.37445 0.625 0
1.5708 0.625 0
0.785398 0.625 0
0.981748 0.625 0
0.785398 0.9375 0
0.981748 0.9375 0
0.981748 0.625 0
1.1781 0.625 0
0.981748 0.9375 0
1.1781 0.9375 0
0.785398 0.9375 0
0.981748 0.9375 0
0.785398 1.25 0
0.981748 1.25 0
0.981748 0.9375 0
1.1781 0.9375 0
0.981748 1.25 0
1.1781 1.25 0
1.1781 0.625 0
1.37445 0.625 0
1.1781 0.9375 0
1.37445 0.9375 0
1.37445 0.625 0
1.5708 0.625 0
1.37445 0.9375 0
1.5708 0.9375 0
1.1781 0.9375 0
1.37445 0.9375 0
1.1781 1.25 0
1.37445 1.25 0
1.37445 0.9375 0
1.5708 0.9375 0
1.37445 1.25 0
1.5708 1.25 0
0 1.25 0
0.19635 1.25 0
0 1.5625 0
0.19635 1.5625 0
0.19635 1.25 0
0.392699 1.25 0
0.19635 1.5625 0
0.392699 1.5625 0
0 1.5625 0
0.19635 1.5625 0
0 1.875 0
0.19635 1.875 0
0.19635 1.5625 0
0.392699 1.5625 0
0.19635 1.875 0
0.392699 1.875 0
0.392699 1.25 0
0.589049 1.25 0
0.392699 1.5625 0
0.589049 1.5625 0
0.589049 1.25 0
0.785398 1.25 0
0.589049 1.5625 0
0.785398 1.5625 0
0.392699 1.5625 0
0.589049 1.5625 0
0.392699 1.875 0
0.589049 1.875 0
0.589049 1.5625 0
0.785398 1.5625 0
0.589049 1.875 0
0.785398 1.875 0
0 1.875 0
0.19635 1.875 0
0 2.1875 0
0.19635 2.1875 0
0.19635 1.875 0
0.392699 1.875 0
0.19635 2.1875 0
0.392699 2.1875 0
0 2.1875 0
0.19635 2.1875 0
0 2.5 0
0.19635 2.5 0
0.19635 2.1875 0
0.392699 2.1875 0
0.19635 2.5 0
0.392699 2.5 0
0.392699 1.875 0
0.589049 1.875 0
0.392699 2.1875 0
0.589049 2.1875 0
0.589049 1.875 0
0.785398 1.875 0
0.589049 2.1875 0
0.785398 2.1875 0
0.392699 2.1875 0
0.589049 2.1875 0
0.392699 2.5 0
0.589049 2.5 0
0.589049 2.1875 0
0.785398 2.1875 0
0.589049 2.5 0
0.785398 2.5 0
0.785398 1.25 0
0.981748 1.25 0
0.785398 1.5625 0
0.981748 1.5625 0
0.981748 1.25 0
1.1781 1.25 0
0.981748 1.5625 0
1.1781 1.5625 0
0.785398 1.5625 0
0.981748 1.5625 0
0.785398 1.875 0
0.981748 1.875 0
0.981748 1.5625 0
1.1781 1.5625 0
0.981748 1.875 0
1.1781 1.875 0
1.1781 1.25 0
1.37445 1.25 0
1.1781 1.5625 0
1.37445 1.5625 0
1.37445 1.25 0
1.5708 1.25 0
1.37445 1.5625 0
1.5708 1.5625 0
1.1781 1.5625 0
1.37445 1.5625 0
1.1781 1.875 0
1.37445 1.875 0
1.37445 1.5625 0
1.5708 1.5625 0
1.37445 1.875 0
1.5708 1.875 0
0.785398 1.875 0
0.981748 1.875 0
0.785398 2.1875 0
0.981748 2.1875 0
0.981748 1.875 0
1.1781 1.875 0
0.981748 2.1875 0
1.1781 2.1875 0
0.785398 2.1875 0
0.981748 2.1875 0
0.785398 2.5 0
0.981748 2.5 0
0.981748 2.1875 0
1.1781 2.1875 0
0.981748 2.5 0
1.1781 2.5 0
1.1781 1.875 0
1.37445 1.875 0
1.1781 2.1875 0
1.37445 2.1875 0
1.37445 1.875 0
1.5708 1.875 0
1.37445 2.1875 0
1.5708 2.1875 0
1.1781 2.1875 0
1.37445 2.1875 0
1.1781 2.5 0
1.37445 2.5 0
1.37445 2.1875 0
1.5708 2.1875 0
1.37445 2.5 0
1.5708 2.5 0
1.5708 0 0
1.76715 0 0
1.5708 0.3125 0
1.76715 0.3125 0
1.76715 0 0
1.9635 0 0
1.76715 0.3125 0
1.9635 0.3125 0
1.5708 0.3125 0
1.76715 0.3125 0
1.5708 0.625 0
1.76715 0.625 0
1.76715 0.3125 0
1.9635 0.3125 0
1.76715 0.625 0
1.9635 0.625 0
1.9635 0 0
2.15984 0 0
1.9635 0.3125 0
2.15984 0.3125 0
2.15984 0 0
2.35619 0 0
2.15984 0.3125 0
2.35619 0.3125 0
1.9635 0.3125 0
2.15984 0.3125 0
1.9635 0.625 0
2.15984 0.625 0
2.15984 0.3125 0
2.35619 0.3125 0
2.15984 0.625 0
2.35619 0.625 0
1.5708 0.625 0
1.76715 0.625 0
1.5708 0.9375 0
1.76715 0.9375 0
1.76715 0.625 0
1.9635 0.625 0
1.76715 0.9375 0
1.9635 0.9375 0
1.5708 0.9375 0
1.76715 0.9375 0
1.5708 1.25 0
1.76715 1.25 0
1.76715 0.9375 0
1.9635 0.9375 0
1.76715 1.25 0
1.9635 1.25 0
1.9635 0.625 0
2.15984 0.625 0
1.9635 0.9375 0
2.15984 0.9375 0
2.15984 0.625 0
2.35619 0.625 0
2.15984 0.9375 0
2.35619 0.9375 0
1.9635 0.9375 0
2.15984 0.9375 0
1.9635 1.25 0
2.15984 1.25 0
2.15984 0.9375 0
2.35619 0.9375 0
2.15984 1.25 0
2.35619 1.25 0
2.35619 0 0
2.55254 0 0
2.35619 0.3125 0
2.55254 0.3125 0
2.55254 0 0
2.74889 0 0
2.55254 0.3125 0
2.74889 0.3125 0
2.35619 0.3125 0
2.55254 0.3125 0
2.35619 0.625 0
2.55254 0.625 0
2.55254 0.3125 0
2.74889 0.3125 0
2.55254 0.625 0
2.74889 0.625 0
2.74889 0 0
2.94524 0 0
2.74889 0.3125 0
2.94524 0.3125 0
2.94524 0 0
3.14159 0 0
2.94524 0.3125 0
3.14159 0.3125 0
2.74889 0.3125 0
2.94524 0.3125 0
2.74889 0.625 0
2.94524 0.625 0
2.94524 0.3125 0
3.14159 0.3125 0
2.94524 0.625 0
3.14159 0.625 0
2.35619 0.625 0
2.55254 0.625 0
2.35619 0.9375 0
2.55254 0.9375 0
2.55254 0.625 0
2.74889 0.625 0
2.55254 0.9375 0
2.74889 0.9375 0
2.35619 0.9375 0
2.55254 0.9375 0
2.35619 1.25 0
2.55254 1.25 0
2.55254 0.9375 0
2.74889 0.9375 0
2.55254 1.25 0
2.74889 1.25 0
2.74889 0.625 0
2.94524 0.625 0
2.74889 0.9375 0
2.94524 0.9375 0
2.94524 0.625 0
3.14159 0.625 0
2.94524 0.9375 0
3.14159 0.9375 0
2.74889 0.9375 0
2.94524 0.9375 0
2.74889 1.25 0
2.94524 1.25 0
2.94524 0.9375 0
3.14159 0.9375 0
2.94524 1.25 0
3.14159 1.25 0
1.5708 1.25 0
1.76715 1.25 0
1.5708 1.5625 0
1.76715 1.5625 0
1.76715 1.25 0
1.9635 1.25 0
1.76715 1.5625 0
1.9635 1.5625 0
1.5708 1.5625 0
1.76715 1.5625 0
1.5708 1.875 0
1.76715 1.875 0
1.76715 1.5625 0
1.9635 1.5625 0
1.76715 1.875 0
1.9635 1.875 0
1.9635 1.25 0
2.15984 1.25 0
1.9635 1.5625 0
2.15984 1.5625 0
2.15984 1.25 0
2.35619 1.25 0
2.15984 1.5625 0
2.35619 1.5625 0
1.9635 1.5625 0
2.15984 1.5625 0
1.9635 1.875 0
2.15984 1.875 0
2.15984 1.5625 0
2.35619 1.5625 0
2.15984 1.875 0
2.35619 1.875 0
1.5708 1.875 0
1.76715 1.875 0
1.5708 2.1875 0
1.76715 2.1875 0
1.76715 1.875 0
1.9635 1.875 0
1.76715 2.1875 0
1.9635 2.1875 0
1.5708 2.1875 0
1.76715 2.1875 0
1.5708 2.5 0
1.76715 2.5 0
1.76715 2.1875 0
1.9635 2.1875 0
1.76715 2.5 0
1.9635 2.5 0
1.9635 1.875 0
2.15984 1.875 0
1.9635 2.1875 0
2.15984 2.1875 0
2.15984 1.875 0
2.35619 1.875 0
2.15984 2.1875 0
2.35619 2.1875 0
1.9635 2.1875 0
2.15984 2.1875 0
1.9635 2.5 0
2.15984 2.5 0
2.15984 2.1875 0
2.35619 2.1875 0
2.15984 2.5 0
2.35619 2.5 0
2.35619 1.25 0
2.55254 1.25 0
2.35619 1.5625 0
2.55254 1.5625 0
2.55254 1.25 0
2.74889 1.25 0
2.55254 1.5625 0
2.74889 1.5625 0
2.35619 1.5625 0
2.55254 1.5625 0
2.35619 1.875 0
2.55254 1.875 0
2.55254 1.5625 0
2.74889 1.5625 0
2.55254 1.875 0
2.74889 1.875 0
2.74889 1.25 0
2.94524 1.25 0
2.74889 1.5625 0
2.94524 1.5625 0
2.94524 1.25 0
3.14159 1.25 0
2.94524 1.5625 0
3.14159 1.5625 0
2.74889 1.5625 0
2.94524 1.5625 0
2.74889 1.875 0
2.94524 1.875 0
2.94524 1.5625 0
3.14159 1.5625 0
2.94524 1.875 0
3.14159 1.875 0
2.35619 1.875 0
2.55254 1.875 0
2.35619 2.1875 0
2.55254 2.1875 0
2.55254 1.875 0
2.74889 1.875 0
2.55254 2.1875 0
2.74889 2.1875 0
2.35619 2.1875 0
2.55254 2.1875 0
2.35619 2.5 0
2.55254 2.5 0
2.55254 2.1875 0
2.74889 2.1875 0
2.55254 2.5 0
2.74889 2.5 0
2.74889 1.875 0
2.94524 1.875 0
2.74889 2.1875 0
2.94524 2.1875 0
2.94524 1.875 0
3.14159 1.875 0
2.94524 2.1875 0
3.14159 2.1875 0
2.74889 2.1875 0
2.94524 2.1875 0
2.74889 2.5 0
2.94524 2.5 0
2.94524 2.1875 0
3.14159 2.1875 0
2.94524 2.5 0
3.14159 2.5 0
0 2.5 0
0.19635 2.5 0
0 2.8125 0
0.19635 2.8125 0
0.19635 2.5 0
0.392699 2.5 0
0.19635 2.8125 0
0.392699 2.8125 0
0 2.8125 0
0.19635 2.8125 0
0 3.125 0
0.19635 3.125 0
0.19635 2.8125 0
0.392699 2.8125 0
0.19635 3.125 0
0.392699 3.125 0
0.392699 2.5 0
0.589049 2.5 0
0.392699 2.8125 0
0.589049 2.8125 0
0.589049 2.5 0
0.785398 2.5 0
0.589049 2.8125 0
0.785398 2.8125 0
0.392699 2.8125 0
0.589049 2.8125 0
0.392699 3.125 0
0.589049 3.125 0
0.589049 2.8125 0
0.785398 2.8125 0
0.589049 3.125 0
0.785398 3.125 0
0 3.125 0
0.19635 3.125 0
0 3.4375 0
0.19635 3.4375 0
0.19635 3.125 0
0.392699 3.125 0
0.19635 3.4375 0
0.392699 3.4375 0
0 3.4375 0
0.19635 3.4375 0
0 3.75 0
0.19635 3.75 0
0.19635 3.4375 0
0.392699 3.4375 0
0.19635 3.75 0
0.392699 3.75 0
0.392699 3.125 0
0.589049 3.125 0
0.392699 3.4375 0
0.589049 3.4375 0
0.589049 3.125 0
0.785398 3.125 0
0.589049 3.4375 0
0.785398 3.4375 0
0.392699 3.4375 0
0.589049 3.4375 0
0.392699 3.75 0
0.589049 3.75 0
0.589049 3.4375 0
0.785398 3.4375 0
0.589049 3.75 0
0.785398 3.75 0
0.785398 2.5 0
0.981748 2.5 0
0.785398 2.8125 0
0.981748 2.8125 0
0.981748 2.5 0
1.1781 2.5 0
0.981748 2.8125 0
1.1781 2.8125 0
0.785398 2.8125 0
0.981748 2.8125 0
0.785398 3.125 0
0.981748 3.125 0
0.981748 2.8125 0
1.1781 2.8125 0
0.981748 3.125 0
1.1781 3.125 0
1.1781 2.5 0
1.37445 2.5 0
1.1781 2.8125 0
1.37445 2.8125 0
1.37445 2.5 0
1.5708 2.5 0
1.37445 2.8125 0
1.5708 2.8125 0
1.1781 2.8125 0
1.37445 2.8125 0
1.1781 3.125 0
1.37445 3.125 0
1.37445 2.8125 0
1.5708 2.8125 0
1.37445 3.125 0
1.5708 3.125 0
0.785398 3.125 0
0.981748 3.125 0
0.785398 3.4375 0
0.981748 3.4375 0
0.981748 3.125 0
1.1781 3.125 0
0.981748 3.4375 0
1.1781 3.4375 0
0.785398 3.4375 0
0.981748 3.4375 0
[...]
POINT_DATA 20480
VECTORS velocity double
0 0 0
0 0 0
0 5.8457e-16 0
-7.70495e-16 5.56477e-16 0
0 0 0
0 0 0
-7.70495e-16 5.56477e-16 0
-1.24385e-15 3.95434e-16 0
0 5.8457e-16 0
-7.70495e-16 5.56477e-16 0
0 2.11277e-15 0
-1.01035e-15 2.03064e-15 0
-7.70495e-16 5.56477e-16 0
-1.24385e-15 3.95434e-16 0
-1.01035e-15 2.03064e-15 0
-1.79533e-15 1.74671e-15 0
0 0 0
0 0 0
-1.24385e-15 3.95434e-16 0
-1.86856e-15 -2.46559e-16 0
0 0 0
0 0 0
-1.86856e-15 -2.46559e-16 0
-2.02385e-15 -3.22173e-16 0
-1.24385e-15 3.95434e-16 0
-1.86856e-15 -2.46559e-16 0
-1.79533e-15 1.74671e-15 0
-2.79729e-15 9.73481e-16 0
-1.86856e-15 -2.46559e-16 0
-2.02385e-15 -3.22173e-16 0
-2.79729e-15 9.73481e-16 0
-3.46666e-15 4.88925e-16 0
0 2.11277e-15 0
-1.01035e-15 2.03064e-15 0
0 3.71297e-15 0
-1.00934e-15 3.64028e-15 0
-1.01035e-15 2.03064e-15 0
-1.79533e-15 1.74671e-15 0
-1.00934e-15 3.64028e-15 0
-1.93485e-15 3.19842e-15 0
0 3.71297e-15 0
-1.00934e-15 3.64028e-15 0
0 5.05001e-15 0
-8.39922e-16 4.96197e-15 0
-1.00934e-15 3.64028e-15 0
-1.93485e-15 3.19842e-15 0
-8.39922e-16 4.96197e-15 0
-1.65741e-15 4.68276e-15 0
-1.79533e-15 1.74671e-15 0
-2.79729e-15 9.73481e-16 0
-1.93485e-15 3.19842e-15 0
-2.85292e-15 2.61975e-15 0
-2.79729e-15 9.73481e-16 0
-3.46666e-15 4.88925e-16 0
-2.85292e-15 2.61975e-15 0
-3.86646e-15 2.27827e-15 0
-1.93485e-15 3.19842e-15 0
-2.85292e-15 2.61975e-15 0
-1.65741e-15 4.68276e-15 0
-2.47021e-15 4.12239e-15 0
-2.85292e-15 2.61975e-15 0
-3.86646e-15 2.27827e-15 0
-2.47021e-15 4.12239e-15 0
-3.46274e-15 3.66551e-15 0
0 0 0
0 0 0
-2.02385e-15 -3.22173e-16 0
-2.01203e-15 -6.07754e-16 0
0 0 0
0 0 0
-2.01203e-15 -6.07754e-16 0
-2.55708e-15 8.46742e-16 0
-2.02385e-15 -3.22173e-16 0
-2.01203e-15 -6.07754e-16 0
-3.46666e-15 4.88925e-16 0
-4.44633e-15 3.68365e-16 0
-2.01203e-15 -6.07754e-16 0
-2.55708e-15 8.46742e-16 0
-4.44633e-15 3.68365e-16 0
-5.42118e-15 7.13095e-16 0
0 0 0
0 0 0
-2.55708e-15 8.46742e-16 0
-3.38202e-15 1.47537e-15 0
0 0 0
0 0 0
-3.38202e-15 1.47537e-15 0
-4.23548e-15 1.92719e-15 0
-2.55708e-15 8.46742e-16 0
-3.38202e-15 1.47537e-15 0
-5.42118e-15 7.13095e-16 0
-6.06179e-15 1.54994e-15 0
-3.38202e-15 1.47537e-15 0
-4.23548e-15 1.92719e-15 0
-6.06179e-15 1.54994e-15 0
-5.86679e-15 1.6262e-15 0
-3.46666e-15 4.88925e-16 0
-4.44633e-15 3.68365e-16 0
-3.86646e-15 2.27827e-15 0
-4.85292e-15 1.70657e-15 0
-4.44633e-15 3.68365e-16 0
-5.42118e-15 7.13095e-16 0
-4.85292e-15 1.70657e-15 0
-5.84912e-15 1.66471e-15 0
-3.86646e-15 2.27827e-15 0
-4.85292e-15 1.70657e-15 0
-3.46274e-15 3.66551e-15 0
-4.22304e-15 3.3395e-15 0
-4.85292e-15 1.70657e-15 0
-5.84912e-15 1.66471e-15 0
-4.22304e-15 3.3395e-15 0
-5.20615e-15 3.03052e-15 0
-5.42118e-15 7.13095e-16 0
-6.06179e-15 1.54994e-15 0
-5.84912e-15 1.66471e-15 0
-6.46131e-15 1.96266e-15 0
-6.06179e-15 1.54994e-15 0
-5.86679e-15 1.6262e-15 0
-6.46131e-15 1.96266e-15 0
-6.81275e-15 1.92627e-15 0
-5.84912e-15 1.66471e-15 0
-6.46131e-15 1.96266e-15 0
-5.20615e-15 3.03052e-15 0
-6.0113e-15 2.94647e-15 0
-6.46131e-15 1.96266e-15 0
-6.81275e-15 1.92627e-15 0
-6.0113e-15 2.94647e-15 0
-6.67826e-15 2.81363e-15 0
0 5.05001e-15 0
-8.39922e-16 4.96197e-15 0
0 6.27208e-15 0
-6.75101e-16 6.14677e-15 0
-8.39922e-16 4.96197e-15 0
-1.65741e-15 4.68276e-15 0
-6.75101e-16 6.14677e-15 0
-1.35245e-15 5.9602e-15 0
0 6.27208e-15 0
-6.75101e-16 6.14677e-15 0
0 7.2839e-15 0
-6.38977e-16 7.22394e-15 0
-6.75101e-16 6.14677e-15 0
-1.35245e-15 5.9602e-15 0
-6.38977e-16 7.22394e-15 0
-1.3522e-15 7.16855e-15 0
-1.65741e-15 4.68276e-15 0
-2.47021e-15 4.12239e-15 0
-1.35245e-15 5.9602e-15 0
-2.18966e-15 5.57765e-15 0
-2.47021e-15 4.12239e-15 0
-3.46274e-15 3.66551e-15 0
-2.18966e-15 5.57765e-15 0
-3.09799e-15 5.1211e-15 0
-1.35245e-15 5.9602e-15 0
-2.18966e-15 5.57765e-15 0
-1.3522e-15 7.16855e-15 0
-2.12829e-15 6.84189e-15 0
-2.18966e-15 5.57765e-15 0
-3.09799e-15 5.1211e-15 0
-2.12829e-15 6.84189e-15 0
-2.95773e-15 6.50021e-15 0
0 7.2839e-15 0
-6.38977e-16 7.22394e-15 0
0 8.35849e-15 0
-6.96227e-16 8.34618e-15 0
-6.38977e-16 7.22394e-15 0
-1.3522e-15 7.16855e-15 0
-6.96227e-16 8.34618e-15 0
-1.35931e-15 8.29997e-15 0
0 8.35849e-15 0
-6.96227e-16 8.34618e-15 0
0 9.51856e-15 0
-7.19378e-16 9.48233e-15 0
-6.96227e-16 8.34618e-15 0
-1.35931e-15 8.29997e-15 0
-7.19378e-16 9.48233e-15 0
-1.4327e-15 9.42583e-15 0
-1.3522e-15 7.16855e-15 0
-2.12829e-15 6.84189e-15 0
-1.35931e-15 8.29997e-15 0
-2.08518e-15 8.05704e-15 0
-2.12829e-15 6.84189e-15 0
-2.95773e-15 6.50021e-15 0
-2.08518e-15 8.05704e-15 0
-2.91842e-15 7.80108e-15 0
-1.35931e-15 8.29997e-15 0
-2.08518e-15 8.05704e-15 0
-1.4327e-15 9.42583e-15 0
-2.20166e-15 9.27614e-15 0
-2.08518e-15 8.05704e-15 0
-2.91842e-15 7.80108e-15 0
-2.20166e-15 9.27614e-15 0
-3.03485e-15 9.11472e-15 0
-3.46274e-15 3.66551e-15 0
-4.22304e-15 3.3395e-15 0
-3.09799e-15 5.1211e-15 0
-3.86539e-15 4.78584e-15 0
-4.22304e-15 3.3395e-15 0
-5.20615e-15 3.03052e-15 0
-3.86539e-15 4.78584e-15 0
-4.79981e-15 4.39995e-15 0
-3.09799e-15 5.1211e-15 0
-3.86539e-15 4.78584e-15 0
-2.95773e-15 6.50021e-15 0
-3.65107e-15 6.12821e-15 0
-3.86539e-15 4.78584e-15 0
-4.79981e-15 4.39995e-15 0
-3.65107e-15 6.12821e-15 0
-4.54554e-15 5.70458e-15 0
-5.20615e-15 3.03052e-15 0
-6.0113e-15 2.94647e-15 0
-4.79981e-15 4.39995e-15 0
-5.63394e-15 4.12558e-15 0
-6.0113e-15 2.94647e-15 0
-6.67826e-15 2.81363e-15 0
-5.63394e-15 4.12558e-15 0
-6.38692e-15 3.90693e-15 0
-4.79981e-15 4.39995e-15 0
-5.63394e-15 4.12558e-15 0
-4.54554e-15 5.70458e-15 0
-5.42282e-15 5.41665e-15 0
-5.63394e-15 4.12558e-15 0
-6.38692e-15 3.90693e-15 0
-5.42282e-15 5.41665e-15 0
-6.21733e-15 5.1932e-15 0
-2.95773e-15 6.50021e-15 0
-3.65107e-15 6.12821e-15 0
-2.91842e-15 7.80108e-15 0
-3.63369e-15 7.46717e-15 0
-3.65107e-15 6.12821e-15 0
-4.54554e-15 5.70458e-15 0
-3.63369e-15 7.46717e-15 0
-4.59187e-15 7.0773e-15 0
-2.91842e-15 7.80108e-15 0
-3.63369e-15 7.46717e-15 0
-3.03485e-15 9.11472e-15 0
-3.82234e-15 8.88709e-15 0
-3.63369e-15 7.46717e-15 0
-4.59187e-15 7.0773e-15 0
-3.82234e-15 8.88709e-15 0
-4.79127e-15 8.54192e-15 0
-4.54554e-15 5.70458e-15 0
-5.42282e-15 5.41665e-15 0
-4.59187e-15 7.0773e-15 0
-5.53472e-15 6.80553e-15 0
-5.42282e-15 5.41665e-15 0
-6.21733e-15 5.1932e-15 0
-5.53472e-15 6.80553e-15 0
-6.39649e-15 6.59415e-15 0
-4.59187e-15 7.0773e-15 0
-5.53472e-15 6.80553e-15 0
-4.79127e-15 8.54192e-15 0
-5.72086e-15 8.30196e-15 0
-5.53472e-15 6.80553e-15 0
-6.39649e-15 6.59415e-15 0
-5.72086e-15 8.30196e-15 0
-6.6746e-15 8.08208e-15 0
0 0 0
0 0 0
-4.23548e-15 1.92719e-15 0
-4.59984e-15 -2.0317e-16 0
0 0 0
0 0 0
-4.59984e-15 -2.0317e-16 0
-4.90307e-15 -4.1014e-16 0
-4.23548e-15 1.92719e-15 0
-4.59984e-15 -2.0317e-16 0
-5.86679e-15 1.6262e-15 0
-6.03921e-15 8.31699e-16 0
-4.59984e-15 -2.0317e-16 0
-4.90307e-15 -4.1014e-16 0
-6.03921e-15 8.31699e-16 0
-6.69558e-15 3.23624e-16 0
0 0 0
0 0 0
-4.90307e-15 -4.1014e-16 0
-4.90299e-15 -3.41348e-16 0
0 0 0
0 0 0
-4.90299e-15 -3.41348e-16 0
-4.96452e-15 -3.39596e-16 0
-4.90307e-15 -4.1014e-16 0
-4.90299e-15 -3.41348e-16 0
-6.69558e-15 3.23624e-16 0
-7.26889e-15 1.98275e-16 0
-4.90299e-15 -3.41348e-16 0
-4.96452e-15 -3.39596e-16 0
-7.26889e-15 1.98275e-16 0
-7.80835e-15 8.24922e-17 0
-5.86679e-15 1.6262e-15 0
-6.03921e-15 8.31699e-16 0
-6.81275e-15 1.92627e-15 0
-7.17943e-15 1.5711e-15 0
-6.03921e-15 8.31699e-16 0
-6.69558e-15 3.23624e-16 0
-7.17943e-15 1.5711e-15 0
-7.76125e-15 1.24968e-15 0
-6.81275e-15 1.92627e-15 0
-7.17943e-15 1.5711e-15 0
-6.67826e-15 2.81363e-15 0
-7.32886e-15 2.541e-15 0
-7.17943e-15 1.5711e-15 0
-7.76125e-15 1.24968e-15 0
-7.32886e-15 2.541e-15 0
-8.0883e-15 2.32694e-15 0
-6.69558e-15 3.23624e-16 0
-7.26889e-15 1.98275e-16 0
-7.76125e-15 1.24968e-15 0
-8.32265e-15 1.08422e-15 0
-7.26889e-15 1.98275e-16 0
-7.80835e-15 8.24922e-17 0
-8.32265e-15 1.08422e-15 0
-9.06653e-15 1.06524e-15 0
-7.76125e-15 1.24968e-15 0
-8.32265e-15 1.08422e-15 0
-8.0883e-15 2.32694e-15 0
-8.79339e-15 2.21332e-15 0
-8.32265e-15 1.08422e-15 0
-9.06653e-15 1.06524e-15 0
-8.79339e-15 2.21332e-15 0
-9.38781e-15 2.36294e-15 0
0 0 0
0 0 0
-4.96452e-15 -3.39596e-16 0
-4.90897e-15 -3.96618e-16 0
0 0 0
0 0 0
-4.90897e-15 -3.96618e-16 0
-4.90939e-15 -4.0813e-16 0
-4.96452e-15 -3.39596e-16 0
-4.90897e-15 -3.96618e-16 0
-7.80835e-15 8.24922e-17 0
-8.11667e-15 -1.49438e-16 0
-4.90897e-15 -3.96618e-16 0
-4.90939e-15 -4.0813e-16 0
-8.11667e-15 -1.49438e-16 0
-8.40014e-15 -3.08483e-16 0
0 0 0
0 0 0
-4.90939e-15 -4.0813e-16 0
-4.84408e-15 -2.10066e-16 0
0 0 0
0 0 0
-4.84408e-15 -2.10066e-16 0
-5.16783e-15 2.04074e-16 0
-4.90939e-15 -4.0813e-16 0
-4.84408e-15 -2.10066e-16 0
-8.40014e-15 -3.08483e-16 0
-8.60148e-15 8.27142e-17 0
-4.84408e-15 -2.10066e-16 0
-5.16783e-15 2.04074e-16 0
-8.60148e-15 8.27142e-17 0
-9.05747e-15 1.43455e-15 0
-7.80835e-15 8.24922e-17 0
-8.11667e-15 -1.49438e-16 0
-9.06653e-15 1.06524e-15 0
-1.00492e-14 8.04118e-16 0
-8.11667e-15 -1.49438e-16 0
-8.40014e-15 -3.08483e-16 0
-1.00492e-14 8.04118e-16 0
-1.06828e-14 1.2376e-16 0
-9.06653e-15 1.06524e-15 0
-1.00492e-14 8.04118e-16 0
-9.38781e-15 2.36294e-15 0
-9.85195e-15 4.88785e-15 0
-1.00492e-14 8.04118e-16 0
-1.06828e-14 1.2376e-16 0
-9.85195e-15 4.88785e-15 0
-1.05259e-14 -1.84569e-15 0
-8.40014e-15 -3.08483e-16 0
-8.60148e-15 8.27142e-17 0
-1.06828e-14 1.2376e-16 0
-1.03998e-14 4.51199e-16 0
-8.60148e-15 8.27142e-17 0
-9.05747e-15 1.43455e-15 0
-1.03998e-14 4.51199e-16 0
-1.09331e-14 2.0158e-15 0
-1.06828e-14 1.2376e-16 0
-1.03998e-14 4.51199e-16 0
-1.05259e-14 -1.84569e-15 0
-1.21619e-14 -4.3026e-15 0
-1.03998e-14 4.51199e-16 0
-1.09331e-14 2.0158e-15 0
-1.21619e-14 -4.3026e-15 0
-1.2629e-14 8.42013e-15 0
-6.67826e-15 2.81363e-15 0
-7.32886e-15 2.541e-15 0
-6.38692e-15 3.90693e-15 0
-7.16172e-15 3.71936e-15 0
-7.32886e-15 2.541e-15 0
-8.0883e-15 2.32694e-15 0
-7.16172e-15 3.71936e-15 0
-7.93768e-15 3.55614e-15 0
-6.38692e-15 3.90693e-15 0
-7.16172e-15 3.71936e-15 0
-6.21733e-15 5.1932e-15 0
-7.11116e-15 4.99735e-15 0
-7.16172e-15 3.71936e-15 0
-7.93768e-15 3.55614e-15 0
-7.11116e-15 4.99735e-15 0
-7.93248e-15 4.8735e-15 0
-8.0883e-15 2.32694e-15 0
-8.79339e-15 2.21332e-15 0
-7.93768e-15 3.55614e-15 0
-8.82579e-15 3.39282e-15 0
-8.79339e-15 2.21332e-15 0
-9.38781e-15 2.36294e-15 0
-8.82579e-15 3.39282e-15 0
-9.54849e-15 3.02014e-15 0
-7.93768e-15 3.55614e-15 0
-8.82579e-15 3.39282e-15 0
-7.93248e-15 4.8735e-15 0
-8.77699e-15 4.80536e-15 0
-8.82579e-15 3.39282e-15 0
-9.54849e-15 3.02014e-15 0
-8.77699e-15 4.80536e-15 0
-9.76805e-15 4.63988e-15 0
-6.21733e-15 5.1932e-15 0
-7.11116e-15 4.99735e-15 0
-6.39649e-15 6.59415e-15 0
-7.33246e-15 6.43195e-15 0
-7.11116e-15 4.99735e-15 0
-7.93248e-15 4.8735e-15 0
-7.33246e-15 6.43195e-15 0
-8.25102e-15 6.29913e-15 0
-6.39649e-15 6.59415e-15 0
-7.33246e-15 6.43195e-15 0
-6.6746e-15 8.08208e-15 0
-7.68143e-15 7.96924e-15 0
-7.33246e-15 6.43195e-15 0
-8.25102e-15 6.29913e-15 0
-7.68143e-15 7.96924e-15 0
-8.66255e-15 7.83719e-15 0
-7.93248e-15 4.8735e-15 0
-8.77699e-15 4.80536e-15 0
-8.25102e-15 6.29913e-15 0
-9.20064e-15 6.23995e-15 0
-8.77699e-15 4.80536e-15 0
-9.76805e-15 4.63988e-15 0
-9.20064e-15 6.23995e-15 0
-1.0046e-14 6.45874e-15 0
-8.25102e-15 6.29913e-15 0
-9.20064e-15 6.23995e-15 0
-8.66255e-15 7.83719e-15 0
-9.59537e-15 7.6489e-15 0
-9.20064e-15 6.23995e-15 0
-1.0046e-14 6.45874e-15 0
-9.59537e-15 7.6489e-15 0
-1.03337e-14 7.48464e-15 0
-9.38781e-15 2.36294e-15 0
-9.85195e-15 4.88785e-15 0
-9.54849e-15 3.02014e-15 0
-1.0111e-14 1.62095e-16 0
-9.85195e-15 4.88785e-15 0
-1.05259e-14 -1.84569e-15 0
-1.0111e-14 1.62095e-16 0
-1.08139e-14 5.99043e-15 0
-9.54849e-15 3.02014e-15 0
-1.0111e-14 1.62095e-16 0
-9.76805e-15 4.63988e-15 0
-1.14416e-14 4.36705e-15 0
-1.0111e-14 1.62095e-16 0
-1.08139e-14 5.99043e-15 0
-1.14416e-14 4.36705e-15 0
-1.22254e-14 4.00547e-15 0
-1.05259e-14 -1.84569e-15 0
-1.21619e-14 -4.3026e-15 0
-1.08139e-14 5.99043e-15 0
-1.24996e-14 8.69674e-15 0
-1.21619e-14 -4.3026e-15 0
-1.2629e-14 8.42013e-15 0
-1.24996e-14 8.69674e-15 0
-1.30446e-14 -2.45097e-15 0
-1.08139e-14 5.99043e-15 0
-1.24996e-14 8.69674e-15 0
-1.22254e-14 4.00547e-15 0
-1.12646e-14 3.96546e-15 0
-1.24996e-14 8.69674e-15 0
-1.30446e-14 -2.45097e-15 0
-1.12646e-14 3.96546e-15 0
-1.19303e-14 4.25255e-15 0
-9.76805e-15 4.63988e-15 0
-1.14416e-14 4.36705e-15 0
-1.0046e-14 6.45874e-15 0
-1.11442e-14 8.70511e-15 0
-1.14416e-14 4.36705e-15 0
-1.22254e-14 4.00547e-15 0
-1.11442e-14 8.70511e-15 0
-1.1864e-14 2.03629e-15 0
-1.0046e-14 6.45874e-15 0
-1.11442e-14 8.70511e-15 0
-1.03337e-14 7.48464e-15 0
-1.06927e-14 7.29095e-15 0
-1.11442e-14 8.70511e-15 0
-1.1864e-14 2.03629e-15 0
-1.06927e-14 7.29095e-15 0
-1.1492e-14 6.67811e-15 0
-1.22254e-14 4.00547e-15 0
-1.12646e-14 3.96546e-15 0
-1.1864e-14 2.03629e-15 0
-1.27687e-14 -6.02784e-16 0
-1.12646e-14 3.96546e-15 0
-1.19303e-14 4.25255e-15 0
-1.27687e-14 -6.02784e-16 0
-1.34165e-14 1.10583e-14 0
-1.1864e-14 2.03629e-15 0
-1.27687e-14 -6.02784e-16 0
-1.1492e-14 6.67811e-15 0
-1.41582e-14 6.50564e-15 0
-1.27687e-14 -6.02784e-16 0
-1.34165e-14 1.10583e-14 0
-1.41582e-14 6.50564e-15 0
-1.48217e-14 6.76195e-15 0
0 9.51856e-15 0
-7.19378e-16 9.48233e-15 0
0 1.071e-14 0
-7.78311e-16 1.06998e-14 0
-7.19378e-16 9.48233e-15 0
-1.4327e-15 9.42583e-15 0
-7.78311e-16 1.06998e-14 0
-1.55986e-15 1.06811e-14 0
0 1.071e-14 0
-7.78311e-16 1.06998e-14 0
0 1.20057e-14 0
-8.19096e-16 1.20099e-14 0
-7.78311e-16 1.06998e-14 0
-1.55986e-15 1.06811e-14 0
-8.19096e-16 1.20099e-14 0
-1.65856e-15 1.20486e-14 0
-1.4327e-15 9.42583e-15 0
-2.20166e-15 9.27614e-15 0
-1.55986e-15 1.06811e-14 0
-2.402e-15 1.0566e-14 0
-2.20166e-15 9.27614e-15 0
-3.03485e-15 9.11472e-15 0
-2.402e-15 1.0566e-14 0
-3.26685e-15 1.04409e-14 0
-1.55986e-15 1.06811e-14 0
-2.402e-15 1.0566e-14 0
-1.65856e-15 1.20486e-14 0
-2.57662e-15 1.19329e-14 0
-2.402e-15 1.0566e-14 0
-3.26685e-15 1.04409e-14 0
-2.57662e-15 1.19329e-14 0
-3.54802e-15 1.19034e-14 0
0 1.20057e-14 0
-8.19096e-16 1.20099e-14 0
0 1.33976e-14 0
-9.3826e-16 1.34306e-14 0
-8.19096e-16 1.20099e-14 0
-1.65856e-15 1.20486e-14 0
-9.3826e-16 1.34306e-14 0
-1.89303e-15 1.35269e-14 0
0 1.33976e-14 0
-9.3826e-16 1.34306e-14 0
0 1.5086e-14 0
-1.17939e-15 1.51929e-14 0
-9.3826e-16 1.34306e-14 0
-1.89303e-15 1.35269e-14 0
-1.17939e-15 1.51929e-14 0
-2.38536e-15 1.53226e-14 0
-1.65856e-15 1.20486e-14 0
-2.57662e-15 1.19329e-14 0
-1.89303e-15 1.35269e-14 0
-2.94788e-15 1.35147e-14 0
-2.57662e-15 1.19329e-14 0
-3.54802e-15 1.19034e-14 0
-2.94788e-15 1.35147e-14 0
-4.06266e-15 1.34906e-14 0
-1.89303e-15 1.35269e-14 0
-2.94788e-15 1.35147e-14 0
-2.38536e-15 1.53226e-14 0
-3.60614e-15 1.53625e-14 0
-2.94788e-15 1.35147e-14 0
-4.06266e-15 1.34906e-14 0
-3.60614e-15 1.53625e-14 0
-4.80642e-15 1.535e-14 0
-3.03485e-15 9.11472e-15 0
-3.82234e-15 8.88709e-15 0
-3.26685e-15 1.04409e-14 0
-3.99322e-15 1.03022e-14 0
-3.82234e-15 8.88709e-15 0
-4.79127e-15 8.54192e-15 0
-3.99322e-15 1.03022e-14 0
-4.96705e-15 1.00291e-14 0
-3.26685e-15 1.04409e-14 0
-3.99322e-15 1.03022e-14 0
-3.54802e-15 1.19034e-14 0
-4.4038e-15 1.18002e-14 0
-3.99322e-15 1.03022e-14 0
-4.96705e-15 1.00291e-14 0
-4.4038e-15 1.18002e-14 0
-5.45332e-15 1.15767e-14 0
-4.79127e-15 8.54192e-15 0
-5.72086e-15 8.30196e-15 0
-4.96705e-15 1.00291e-14 0
-5.97834e-15 9.83283e-15 0
-5.72086e-15 8.30196e-15 0
-6.6746e-15 8.08208e-15 0
-5.97834e-15 9.83283e-15 0
-6.94097e-15 9.67775e-15 0
-4.96705e-15 1.00291e-14 0
-5.97834e-15 9.83283e-15 0
-5.45332e-15 1.15767e-14 0
-6.47808e-15 1.14262e-14 0
-5.97834e-15 9.83283e-15 0
-6.94097e-15 9.67775e-15 0
-6.47808e-15 1.14262e-14 0
-7.44243e-15 1.12669e-14 0
-3.54802e-15 1.19034e-14 0
-4.4038e-15 1.18002e-14 0
-4.06266e-15 1.34906e-14 0
-5.0377e-15 1.34138e-14 0
-4.4038e-15 1.18002e-14 0
-5.45332e-15 1.15767e-14 0
-5.0377e-15 1.34138e-14 0
-6.17267e-15 1.32227e-14 0
-4.06266e-15 1.34906e-14 0
-5.0377e-15 1.34138e-14 0
-4.80642e-15 1.535e-14 0
-5.97209e-15 1.52469e-14 0
-5.0377e-15 1.34138e-14 0
-6.17267e-15 1.32227e-14 0
-5.97209e-15 1.52469e-14 0
-7.17573e-15 1.50648e-14 0
-5.45332e-15 1.15767e-14 0
-6.47808e-15 1.14262e-14 0
-6.17267e-15 1.32227e-14 0
-7.26915e-15 1.30375e-14 0
-6.47808e-15 1.14262e-14 0
-7.44243e-15 1.12669e-14 0
-7.26915e-15 1.30375e-14 0
-8.27539e-15 1.28181e-14 0
-6.17267e-15 1.32227e-14 0
-7.26915e-15 1.30375e-14 0
-7.17573e-15 1.50648e-14 0
-8.27284e-15 1.4839e-14 0
-7.26915e-15 1.30375e-14 0
-8.27539e-15 1.28181e-14 0
-8.27284e-15 1.4839e-14 0
-9.33782e-15 1.46204e-14 0
0 1.5086e-14 0
-1.17939e-15 1.51929e-14 0
0 1.72609e-14 0
-1.3695e-15 1.72812e-14 0
-1.17939e-15 1.51929e-14 0
-2.38536e-15 1.53226e-14 0
-1.3695e-15 1.72812e-14 0
-2.76436e-15 1.72772e-14 0
0 1.72609e-14 0
-1.3695e-15 1.72812e-14 0
0 1.96348e-14 0
-1.37989e-15 1.96565e-14 0
-1.3695e-15 1.72812e-14 0
-2.76436e-15 1.72772e-14 0
-1.37989e-15 1.96565e-14 0
-2.86471e-15 1.9647e-14 0
-2.38536e-15 1.53226e-14 0
-3.60614e-15 1.53625e-14 0
-2.76436e-15 1.72772e-14 0
-4.20875e-15 1.72738e-14 0
-3.60614e-15 1.53625e-14 0
-4.80642e-15 1.535e-14 0
-4.20875e-15 1.72738e-14 0
-5.49905e-15 1.73418e-14 0
-2.76436e-15 1.72772e-14 0
-4.20875e-15 1.72738e-14 0
-2.86471e-15 1.9647e-14 0
-4.25319e-15 1.94692e-14 0
-4.20875e-15 1.72738e-14 0
-5.49905e-15 1.73418e-14 0
-4.25319e-15 1.94692e-14 0
-5.56596e-15 1.92626e-14 0
0 1.96348e-14 0
-1.37989e-15 1.96565e-14 0
0 2.19341e-14 0
-1.34931e-15 2.19201e-14 0
-1.37989e-15 1.96565e-14 0
-2.86471e-15 1.9647e-14 0
-1.34931e-15 2.19201e-14 0
-2.79142e-15 2.18565e-14 0
0 2.19341e-14 0
-1.34931e-15 2.19201e-14 0
0 2.41437e-14 0
-1.24692e-15 2.41144e-14 0
-1.34931e-15 2.19201e-14 0
-2.79142e-15 2.18565e-14 0
-1.24692e-15 2.41144e-14 0
-2.62512e-15 2.4024e-14 0
-2.86471e-15 1.9647e-14 0
-4.25319e-15 1.94692e-14 0
-2.79142e-15 2.18565e-14 0
-4.11028e-15 2.15963e-14 0
-4.25319e-15 1.94692e-14 0
-5.56596e-15 1.92626e-14 0
-4.11028e-15 2.15963e-14 0
-5.48557e-15 2.13247e-14 0
-2.79142e-15 2.18565e-14 0
-4.11028e-15 2.15963e-14 0
-2.62512e-15 2.4024e-14 0
-3.93896e-15 2.37438e-14 0
-4.11028e-15 2.15963e-14 0
-5.48557e-15 2.13247e-14 0
-3.93896e-15 2.37438e-14 0
-5.27604e-15 2.3428e-14 0
-4.80642e-15 1.535e-14 0
-5.97209e-15 1.52469e-14 0
-5.49905e-15 1.73418e-14 0
-6.56583e-15 1.70989e-14 0
-5.97209e-15 1.52469e-14 0
-7.17573e-15 1.50648e-14 0
-6.56583e-15 1.70989e-14 0
-7.7397e-15 1.67432e-14 0
-5.49905e-15 1.73418e-14 0
-6.56583e-15 1.70989e-14 0
-5.56596e-15 1.92626e-14 0
-6.74132e-15 1.90011e-14 0
-6.56583e-15 1.70989e-14 0
-7.7397e-15 1.67432e-14 0
-6.74132e-15 1.90011e-14 0
-8.00087e-15 1.86615e-14 0
-7.17573e-15 1.50648e-14 0
-8.27284e-15 1.4839e-14 0
-7.7397e-15 1.67432e-14 0
-8.87778e-15 1.64893e-14 0
-8.27284e-15 1.4839e-14 0
-9.33782e-15 1.46204e-14 0
-8.87778e-15 1.64893e-14 0
-9.97927e-15 1.61866e-14 0
-7.7397e-15 1.67432e-14 0
-8.87778e-15 1.64893e-14 0
-8.00087e-15 1.86615e-14 0
-9.15978e-15 1.83494e-14 0
-8.87778e-15 1.64893e-14 0
-9.97927e-15 1.61866e-14 0
-9.15978e-15 1.83494e-14 0
-1.0308e-14 1.80621e-14 0
-5.56596e-15 1.92626e-14 0
-6.74132e-15 1.90011e-14 0
-5.48557e-15 2.13247e-14 0
-6.72424e-15 2.09765e-14 0
-6.74132e-15 1.90011e-14 0
-8.00087e-15 1.86615e-14 0
-6.72424e-15 2.09765e-14 0
-8.03355e-15 2.05821e-14 0
-5.48557e-15 2.13247e-14 0
-6.72424e-15 2.09765e-14 0
-5.27604e-15 2.3428e-14 0
-6.50558e-15 2.30243e-14 0
-6.72424e-15 2.09765e-14 0
-8.03355e-15 2.05821e-14 0
-6.50558e-15 2.30243e-14 0
-7.82178e-15 2.25134e-14 0
-8.00087e-15 1.86615e-14 0
-9.15978e-15 1.83494e-14 0
-8.03355e-15 2.05821e-14 0
-9.20254e-15 2.01818e-14 0
-9.15978e-15 1.83494e-14 0
-1.0308e-14 1.80621e-14 0
-9.20254e-15 2.01818e-14 0
-1.04013e-14 1.98405e-14 0
-8.03355e-15 2.05821e-14 0
-9.20254e-15 2.01818e-14 0
-7.82178e-15 2.25134e-14 0
-9.06121e-15 2.20966e-14 0
-9.20254e-15 2.01818e-14 0
-1.04013e-14 1.98405e-14 0
-9.06121e-15 2.20966e-14 0
-1.02906e-14 2.17216e-14 0
-6.6746e-15 8.08208e-15 0
-7.68143e-15 7.96924e-15 0
-6.94097e-15 9.67775e-15 0
-7.98388e-15 9.54881e-15 0
-7.68143e-15 7.96924e-15 0
-8.66255e-15 7.83719e-15 0
-7.98388e-15 9.54881e-15 0
-8.9078e-15 9.36831e-15 0
-6.94097e-15 9.67775e-15 0
-7.98388e-15 9.54881e-15 0
-7.44243e-15 1.12669e-14 0
-8.4364e-15 1.10962e-14 0