# vtk DataFile Version 3.0
#This file was generated by the deal.II library on 2018/10/14 at 18:07:54
ASCII
DATASET UNSTRUCTURED_GRID

POINTS 20480 double
0 0 0
0.19635 0 0
0 0.311609 0
0.19635 0.311609 0
0.19635 0 0
0.392699 0 0
0.19635 0.311609 0
0.392699 0.311609 0
0 0.311609 0
0.19635 0.311609 0
0 0.62413 0
0.19635 0.62413 0
0.19635 0.311609 0
0.392699 0.311609 0
0.19635 0.62413 0
0.392699 0.62413 0
0.392699 0 0
0.589049 0 0
0.392699 0.311609 0
0.589049 0.311609 0
0.589049 0 0
0.785398 0 0
0.589049 0.311609 0
0.785398 0.311609 0
0.392699 0.311609 0
0.589049 0.311609 0
0.392699 0.62413 0
0.589049 0.62413 0
0.589049 0.311609 0
0.785398 0.311609 0
0.589049 0.62413 0
0.785398 0.62413 0
0 0.62413 0
0.19635 0.62413 0
0 0.936611 0
0.19635 0.936611 0
0.19635 0.62413 0
0.392699 0.62413 0
0.19635 0.936611 0
0.392699 0.936611 0
0 0.936611 0
0.19635 0.936611 0
0 1.24912 0
0.19635 1.24912 0
0.19635 0.936611 0
0.392699 0.936611 0
0.19635 1.24912 0
0.392699 1.24912 0
0.392699 0.62413 0
0.589049 0.62413 0
0.392699 0.936611 0
0.589049 0.936611 0
0.589049 0.62413 0
0.785398 0.62413 0
0.589049 0.936611 0
0.785398 0.936611 0
0.392699 0.936611 0
0.589049 0.936611 0
0.392699 1.24912 0
0.589049 1.24912 0
0.589049 0.936611 0
0.785398 0.936611 0
0.589049 1.24912 0
0.785398 1.24912 0
0.785398 0 0
0.981748 0 0
0.785398 0.311609 0
0.981748 0.311609 0
0.981748 0 0
1.1781 0 0
0.981748 0.311609 0
1.1781 0.311609 0
0.785398 0.311609 0
0.981748 0.311609 0
0.785398 0.62413 0
0.981748 0.62413 0
0.981748 0.311609 0
1.1781 0.311609 0
0.981748 0.62413 0
1.1781 0.62413 0
1.1781 0 0
1.37445 0 0
1.1781 0.311609 0
1.37445 0.311609 0
1.37445 0 0
1.5708 0 0
1.37445 0.311609 0
1.5708 0.311609 0
1.1781 0.311609 0
1.37445 0.311609 0
1.1781 0.62413 0
1.37445 0.62413 0
1.37445 0.311609 0
1.5708 0.311609 0
1.37445 0.62413 0
1.5708 0.62413 0
0.785398 0.62413 0
0.981748 0.62413 0
0.785398 0.936611 0
0.981748 0.936611 0
0.981748 0.62413 0
1.1781 0.62413 0
0.981748 0.936611 0
1.1781 0.936611 0
0.785398 0.936611 0
0.981748 0.936611 0
0.785398 1.24912 0
0.981748 1.24912 0
0.981748 0.936611 0
1.1781 0.936611 0
0.981748 1.24912 0
1.1781 1.24912 0
1.1781 0.62413 0
1.37445 0.62413 0
1.1781 0.936611 0
1.37445 0.936611 0
1.37445 0.62413 0
1.5708 0.62413 0
1.37445 0.936611 0
1.5708 0.936611 0
1.1781 0.936611 0
1.37445 0.936611 0
1.1781 1.24912 0
1.37445 1.24912 0
1.37445 0.936611 0
1.5708 0.936611 0
1.37445 1.24912 0
1.5708 1.24912 0
0 1.24912 0
0.19635 1.24912 0
0 1.56162 0
0.19635 1.56162 0
0.19635 1.24912 0
0.392699 1.24912 0
0.19635 1.56162 0
0.392699 1.56162 0
0 1.56162 0
0.19635 1.56162 0
0 1.87411 0
0.19635 1.87411 0
0.19635 1.56162 0
0.392699 1.56162 0
0.19635 1.87411 0
0.392699 1.87411 0
0.392699 1.24912 0
0.589049 1.24912 0
0.392699 1.56162 0
0.589049 1.56162 0
0.589049 1.24912 0
0.785398 1.24912 0
0.589049 1.56162 0
0.785398 1.56162 0
0.392699 1.56162 0
0.589049 1.56162 0
0.392699 1.87411 0
0.589049 1.87411 0
0.589049 1.56162 0
0.785398 1.56162 0
0.589049 1.87411 0
0.785398 1.87411 0
0 1.87411 0
0.19635 1.87411 0
0 2.18661 0
0.19635 2.18661 0
0.19635 1.87411 0
0.392699 1.87411 0
0.19635 2.18661 0
0.392699 2.18661 0
0 2.18661 0
0.19635 2.18661 0
0 2.4991 0
0.19635 2.4991 0
0.19635 2.18661 0
0.392699 2.18661 0
0.19635 2.4991 0
0.392699 2.4991 0
0.392699 1.87411 0
0.589049 1.87411 0
0.392699 2.18661 0
0.589049 2.18661 0
0.589049 1.87411 0
0.785398 1.87411 0
0.589049 2.18661 0
0.785398 2.18661 0
0.392699 2.18661 0
0.589049 2.18661 0
0.392699 2.4991 0
0.589049 2.4991 0
0.589049 2.18661 0
0.785398 2.18661 0
0.589049 2.4991 0
0.785398 2.4991 0
0.785398 1.24912 0
0.981748 1.24912 0
0.785398 1.56162 0
0.981748 1.56162 0
0.981748 1.24912 0
1.1781 1.24912 0
0.981748 1.56162 0
1.1781 1.56162 0
0.785398 1.56162 0
0.981748 1.56162 0
0.785398 1.87411 0
0.981748 1.87411 0
0.981748 1.56162 0
1.1781 1.56162 0
0.981748 1.87411 0
1.1781 1.87411 0
1.1781 1.24912 0
1.37445 1.24912 0
1.1781 1.56162 0
1.37445 1.56162 0
1.37445 1.24912 0
1.5708 1.24912 0
1.37445 1.56162 0
1.5708 1.56162 0
1.1781 1.56162 0
1.37445 1.56162 0
1.1781 1.87411 0
1.37445 1.87411 0
1.37445 1.56162 0
1.5708 1.56162 0
1.37445 1.87411 0
1.5708 1.87411 0
0.785398 1.87411 0
0.981748 1.87411 0
0.785398 2.18661 0
0.981748 2.18661 0
0.981748 1.87411 0
1.1781 1.87411 0
0.981748 2.18661 0
1.1781 2.18661 0
0.785398 2.18661 0
0.981748 2.18661 0
0.785398 2.4991 0
0.981748 2.4991 0
0.981748 2.18661 0
1.1781 2.18661 0
0.981748 2.4991 0
1.1781 2.4991 0
1.1781 1.87411 0
1.37445 1.87411 0
1.1781 2.18661 0
1.37445 2.18661 0
1.37445 1.87411 0
1.5708 1.87411 0
1.37445 2.18661 0
1.5708 2.18661 0
1.1781 2.18661 0
1.37445 2.18661 0
1.1781 2.4991 0
1.37445 2.4991 0
1.37445 2.18661 0
1.5708 2.18661 0
1.37445 2.4991 0
1.5708 2.4991 0
1.5708 0 0
1.76715 0 0
1.5708 0.311609 0
1.76715 0.311609 0
1.76715 0 0
1.9635 0 0
1.76715 0.311609 0
1.9635 0.311609 0
1.5708 0.311609 0
1.76715 0.311609 0
1.5708 0.62413 0
1.76715 0.62413 0
1.76715 0.311609 0
1.9635 0.311609 0
1.76715 0.62413 0
1.9635 0.62413 0
1.9635 0 0
2.15984 0 0
1.9635 0.311609 0
2.15984 0.311609 0
2.15984 0 0
2.35619 0 0
2.15984 0.311609 0
2.35619 0.311609 0
1.9635 0.311609 0
2.15984 0.311609 0
1.9635 0.62413 0
2.15984 0.62413 0
2.15984 0.311609 0
2.35619 0.311609 0
2.15984 0.62413 0
2.35619 0.62413 0
1.5708 0.62413 0
1.76715 0.62413 0
1.5708 0.936611 0
1.76715 0.936611 0
1.76715 0.62413 0
1.9635 0.62413 0
1.76715 0.936611 0
1.9635 0.936611 0
1.5708 0.936611 0
1.76715 0.936611 0
1.5708 1.24912 0
1.76715 1.24912 0
1.76715 0.936611 0
1.9635 0.936611 0
1.76715 1.24912 0
1.9635 1.24912 0
1.9635 0.62413 0
2.15984 0.62413 0
1.9635 0.936611 0
2.15984 0.936611 0
2.15984 0.62413 0
2.35619 0.62413 0
2.15984 0.936611 0
2.35619 0.936611 0
1.9635 0.936611 0
2.15984 0.936611 0
1.9635 1.24912 0
2.15984 1.24912 0
2.15984 0.936611 0
2.35619 0.936611 0
2.15984 1.24912 0
2.35619 1.24912 0
2.35619 0 0
2.55254 0 0
2.35619 0.311609 0
2.55254 0.311609 0
2.55254 0 0
2.74889 0 0
2.55254 0.311609 0
2.74889 0.311609 0
2.35619 0.311609 0
2.55254 0.311609 0
2.35619 0.62413 0
2.55254 0.62413 0
2.55254 0.311609 0
2.74889 0.311609 0
2.55254 0.62413 0
2.74889 0.62413 0
2.74889 0 0
2.94524 0 0
2.74889 0.311609 0
2.94524 0.311609 0
2.94524 0 0
3.14159 0 0
2.94524 0.311609 0
3.14159 0.311609 0
2.74889 0.311609 0
2.94524 0.311609 0
2.74889 0.62413 0
2.94524 0.62413 0
2.94524 0.311609 0
3.14159 0.311609 0
2.94524 0.62413 0
3.14159 0.62413 0
2.35619 0.62413 0
2.55254 0.62413 0
2.35619 0.936611 0
2.55254 0.936611 0
2.55254 0.62413 0
2.74889 0.62413 0
2.55254 0.936611 0
2.74889 0.936611 0
2.35619 0.936611 0
2.55254 0.936611 0
2.35619 1.24912 0
2.55254 1.24912 0
2.55254 0.936611 0
2.74889 0.936611 0
2.55254 1.24912 0
2.74889 1.24912 0
2.74889 0.62413 0
2.94524 0.62413 0
2.74889 0.936611 0
2.94524 0.936611 0
2.94524 0.62413 0
3.14159 0.62413 0
2.94524 0.936611 0
3.14159 0.936611 0
2.74889 0.936611 0
2.94524 0.936611 0
2.74889 1.24912 0
2.94524 1.24912 0
2.94524 0.936611 0
3.14159 0.936611 0
2.94524 1.24912 0
3.14159 1.24912 0
1.5708 1.24912 0
1.76715 1.24912 0
1.5708 1.56162 0
1.76715 1.56162 0
1.76715 1.24912 0
1.9635 1.24912 0
1.76715 1.56162 0
1.9635 1.56162 0
1.5708 1.56162 0
1.76715 1.56162 0
1.5708 1.87411 0
1.76715 1.87411 0
1.76715 1.56162 0
1.9635 1.56162 0
1.76715 1.87411 0
1.9635 1.87411 0
1.9635 1.24912 0
2.15984 1.24912 0
1.9635 1.56162 0
2.15984 1.56162 0
2.15984 1.24912 0
2.35619 1.24912 0
2.15984 1.56162 0
2.35619 1.56162 0
1.9635 1.56162 0
2.15984 1.56162 0
1.9635 1.87411 0
2.15984 1.87411 0
2.15984 1.56162 0
2.35619 1.56162 0
2.15984 1.87411 0
2.35619 1.87411 0
1.5708 1.87411 0
1.76715 1.87411 0
1.5708 2.18661 0
1.76715 2.18661 0
1.76715 1.87411 0
1.9635 1.87411 0
1.76715 2.18661 0
1.9635 2.18661 0
1.5708 2.18661 0
1.76715 2.18661 0
1.5708 2.4991 0
1.76715 2.4991 0
1.76715 2.18661 0
1.9635 2.18661 0
1.76715 2.4991 0
1.9635 2.4991 0
1.9635 1.87411 0
2.15984 1.87411 0
1.9635 2.18661 0
2.15984 2.18661 0
2.15984 1.87411 0
2.35619 1.87411 0
2.15984 2.18661 0
2.35619 2.18661 0
1.9635 2.18661 0
2.15984 2.18661 0
1.9635 2.4991 0
2.15984 2.4991 0
2.15984 2.18661 0
2.35619 2.18661 0
2.15984 2.4991 0
2.35619 2.4991 0
2.35619 1.24912 0
2.55254 1.24912 0
2.35619 1.56162 0
2.55254 1.56162 0
2.55254 1.24912 0
2.74889 1.24912 0
2.55254 1.56162 0
2.74889 1.56162 0
2.35619 1.56162 0
2.55254 1.56162 0
2.35619 1.87411 0
2.55254 1.87411 0
2.55254 1.56162 0
2.74889 1.56162 0
2.55254 1.87411 0
2.74889 1.87411 0
2.74889 1.24912 0
2.94524 1.24912 0
2.74889 1.56162 0
2.94524 1.56162 0
2.94524 1.24912 0
3.14159 1.24912 0
2.94524 1.56162 0
3.14159 1.56162 0
2.74889 1.56162 0
2.94524 1.56162 0
2.74889 1.87411 0
2.94524 1.87411 0
2.94524 1.56162 0
3.14159 1.56162 0
2.94524 1.87411 0
3.14159 1.87411 0
2.35619 1.87411 0
2.55254 1.87411 0
2.35619 2.18661 0
2.55254 2.18661 0
2.55254 1.87411 0
2.74889 1.87411 0
2.55254 2.18661 0
2.74889 2.18661 0
2.35619 2.18661 0
2.55254 2.18661 0
2.35619 2.4991 0
2.55254 2.4991 0
2.55254 2.18661 0
2.74889 2.18661 0
2.55254 2.4991 0
2.74889 2.4991 0
2.74889 1.87411 0
2.94524 1.87411 0
2.74889 2.18661 0
2.94524 2.18661 0
2.94524 1.87411 0
3.14159 1.87411 0
2.94524 2.18661 0
3.14159 2.18661 0
2.74889 2.18661 0
2.94524 2.18661 0
2.74889 2.4991 0
2.94524 2.4991 0
2.94524 2.18661 0
3.14159 2.18661 0
2.94524 2.4991 0
3.14159 2.4991 0
0 2.4991 0
0.19635 2.4991 0
0 2.81158 0
0.19635 2.81158 0
0.19635 2.4991 0
0.392699 2.4991 0
0.19635 2.81158 0
0.392699 2.81158 0
0 2.81158 0
0.19635 2.81158 0
0 3.12406 0
0.19635 3.12406 0
0.19635 2.81158 0
0.392699 2.81158 0
0.19635 3.12406 0
0.392699 3.12406 0
0.392699 2.4991 0
0.589049 2.4991 0
0.392699 2.81158 0
0.589049 2.81158 0
0.589049 2.4991 0
0.785398 2.4991 0
0.589049 2.81158 0
0.785398 2.81158 0
0.392699 2.81158 0
0.589049 2.81158 0
0.392699 3.12406 0
0.589049 3.12406 0
0.589049 2.81158 0
0.785398 2.81158 0
0.589049 3.12406 0
0.785398 3.12406 0
0 3.12406 0
0.19635 3.12406 0
0 3.43654 0
0.19635 3.43654 0
0.19635 3.12406 0
0.392699 3.12406 0
0.19635 3.43654 0
0.392699 3.43654 0
0 3.43654 0
0.19635 3.43654 0
0 3.74901 0
0.19635 3.74901 0
0.19635 3.43654 0
[...]
POINT_DATA 20480
VECTORS uf double
0 1 0
-1.43521e-15 1 0
0 1.00579 0
-5.84164e-15 1.00579 0
-1.43521e-15 1 0
-3.91674e-14 1 0
-5.84164e-15 1.00579 0
4.06984e-14 1.00579 0
0 1.00579 0
-3.99548e-15 1.00579 0
0 1.00871 0
1.27974e-14 1.00871 0
-3.99548e-15 1.00579 0
-1.58278e-14 1.00579 0
1.27974e-14 1.00871 0
1.6996e-14 1.00871 0
-3.91674e-14 1 0
-5.33499e-14 1 0
4.06984e-14 1.00579 0
7.28629e-14 1.00579 0
-5.33499e-14 1 0
-1.96174e-14 1 0
7.28629e-14 1.00579 0
1.65381e-14 1.00579 0
-1.58278e-14 1.00579 0
-5.72145e-14 1.00579 0
1.6996e-14 1.00871 0
5.49088e-14 1.00871 0
-5.72145e-14 1.00579 0
-3.28618e-14 1.00579 0
5.49088e-14 1.00871 0
6.25742e-14 1.00871 0
0 1.00871 0
-4.47718e-14 1.00871 0
0 1.01229 0
5.83536e-14 1.01229 0
-4.47718e-14 1.00871 0
-2.35168e-14 1.00871 0
5.83536e-14 1.01229 0
3.34434e-14 1.01229 0
0 1.01229 0
-3.64249e-14 1.01229 0
0 1.01564 0
1.83323e-14 1.01564 0
-3.64249e-14 1.01229 0
-5.04722e-14 1.01229 0
1.83323e-14 1.01564 0
5.27233e-14 1.01564 0
-2.35168e-14 1.00871 0
-8.11631e-14 1.00871 0
3.34434e-14 1.01229 0
9.39275e-14 1.01229 0
-8.11631e-14 1.00871 0
-7.53613e-14 1.00871 0
9.39275e-14 1.01229 0
7.89469e-14 1.01229 0
-5.04722e-14 1.01229 0
-5.8976e-14 1.01229 0
5.27233e-14 1.01564 0
2.79414e-14 1.01564 0
-5.8976e-14 1.01229 0
-8.78335e-14 1.01229 0
2.79414e-14 1.01564 0
7.38151e-14 1.01564 0
-1.96174e-14 1 0
-2.89771e-14 1 0
1.65381e-14 1.00579 0
3.96771e-14 1.00579 0
-2.89771e-14 1 0
-4.82228e-14 1 0
3.96771e-14 1.00579 0
5.08035e-14 1.00579 0
-3.28618e-14 1.00579 0
-7.54389e-14 1.00579 0
6.25742e-14 1.00871 0
8.25544e-14 1.00871 0
-7.54389e-14 1.00579 0
-6.14928e-14 1.00579 0
8.25544e-14 1.00871 0
8.67523e-14 1.00871 0
-4.82228e-14 1 0
-4.89606e-14 1 0
5.08035e-14 1.00579 0
6.64993e-14 1.00579 0
-4.89606e-14 1 0
-4.64302e-14 1 0
6.64993e-14 1.00579 0
5.63832e-14 1.00579 0
-6.14928e-14 1.00579 0
-8.47564e-14 1.00579 0
8.67523e-14 1.00871 0
7.48027e-14 1.00871 0
-8.47564e-14 1.00579 0
-6.28836e-14 1.00579 0
7.48027e-14 1.00871 0
7.60975e-14 1.00871 0
-7.53613e-14 1.00871 0
-8.84137e-14 1.00871 0
7.89469e-14 1.01229 0
9.17405e-14 1.01229 0
-8.84137e-14 1.00871 0
-9.62782e-14 1.00871 0
9.17405e-14 1.01229 0
8.41095e-14 1.01229 0
-8.78335e-14 1.01229 0
-7.96823e-14 1.01229 0
7.38151e-14 1.01564 0
7.01797e-14 1.01564 0
-7.96823e-14 1.01229 0
-8.0847e-14 1.01229 0
7.01797e-14 1.01564 0
8.85666e-14 1.01564 0
-9.62782e-14 1.00871 0
-7.97595e-14 1.00871 0
8.41095e-14 1.01229 0
7.48613e-14 1.01229 0
-7.97595e-14 1.00871 0
-8.2787e-14 1.00871 0
7.48613e-14 1.01229 0
8.077e-14 1.01229 0
-8.0847e-14 1.01229 0
-6.6188e-14 1.01229 0
8.85666e-14 1.01564 0
6.93571e-14 1.01564 0
-6.6188e-14 1.01229 0
-8.90842e-14 1.01229 0
6.93571e-14 1.01564 0
9.67178e-14 1.01564 0
0 1.01564 0
7.28204e-15 1.01564 0
0 1.01899 0
-2.16192e-15 1.01899 0
7.28204e-15 1.01564 0
-5.38737e-14 1.01564 0
-2.16192e-15 1.01899 0
6.05505e-14 1.01899 0
0 1.01899 0
-3.08702e-14 1.01899 0
0 1.02227 0
3.49163e-14 1.02227 0
-3.08702e-14 1.01899 0
-2.20151e-14 1.01899 0
3.49163e-14 1.02227 0
8.70621e-15 1.02227 0
-5.38737e-14 1.01564 0
2.03845e-15 1.01564 0
6.05505e-14 1.01899 0
7.64987e-15 1.01899 0
2.03845e-15 1.01564 0
-1.89139e-14 1.01564 0
7.64987e-15 1.01899 0
2.78848e-14 1.01899 0
-2.20151e-14 1.01899 0
8.8869e-15 1.01899 0
8.70621e-15 1.02227 0
-1.14003e-14 1.02227 0
8.8869e-15 1.01899 0
-6.72733e-14 1.01899 0
-1.14003e-14 1.02227 0
6.99677e-14 1.02227 0
0 1.02227 0
-7.87886e-16 1.02227 0
0 1.0255 0
-1.17975e-14 1.0255 0
-7.87886e-16 1.02227 0
2.95764e-14 1.02227 0
-1.17975e-14 1.0255 0
-3.82654e-14 1.0255 0
0 1.0255 0
6.24265e-16 1.0255 0
0 1.02868 0
7.07714e-15 1.02868 0
6.24265e-16 1.0255 0
2.27677e-14 1.0255 0
7.07714e-15 1.02868 0
-2.11339e-14 1.02868 0
2.95764e-14 1.02227 0
-1.16468e-15 1.02227 0
-3.82654e-14 1.0255 0
1.41064e-14 1.0255 0
-1.16468e-15 1.02227 0
-5.38062e-14 1.02227 0
1.41064e-14 1.0255 0
7.36278e-14 1.0255 0
2.27677e-14 1.0255 0
-6.7782e-14 1.0255 0
-2.11339e-14 1.02868 0
7.62758e-14 1.02868 0
-6.7782e-14 1.0255 0
-1.45896e-13 1.0255 0
7.62758e-14 1.02868 0
1.46225e-13 1.02868 0
-1.89139e-14 1.01564 0
-3.37305e-14 1.01564 0
2.78848e-14 1.01899 0
3.7587e-14 1.01899 0
-3.37305e-14 1.01564 0
-6.20529e-14 1.01564 0
3.7587e-14 1.01899 0
5.74692e-14 1.01899 0
-6.72733e-14 1.01899 0
-5.28899e-14 1.01899 0
6.99677e-14 1.02227 0
6.40296e-14 1.02227 0
-5.28899e-14 1.01899 0
-3.43459e-14 1.01899 0
6.40296e-14 1.02227 0
3.00954e-14 1.02227 0
-6.20529e-14 1.01564 0
-5.22316e-14 1.01564 0
5.74692e-14 1.01899 0
5.99269e-14 1.01899 0
-5.22316e-14 1.01564 0
-5.53185e-14 1.01564 0
5.99269e-14 1.01899 0
5.92252e-14 1.01899 0
-3.43459e-14 1.01899 0
-1.84801e-14 1.01899 0
3.00954e-14 1.02227 0
3.5814e-15 1.02227 0
-1.84801e-14 1.01899 0
-4.73906e-14 1.01899 0
3.5814e-15 1.02227 0
5.67209e-14 1.02227 0
-5.38062e-14 1.02227 0
-8.16014e-14 1.02227 0
7.36278e-14 1.0255 0
8.31809e-14 1.0255 0
-8.16014e-14 1.02227 0
-2.77955e-14 1.02227 0
8.31809e-14 1.0255 0
2.32971e-14 1.0255 0
-1.45896e-13 1.0255 0
-5.40417e-14 1.0255 0
1.46225e-13 1.02868 0
4.75074e-14 1.02868 0
-5.40417e-14 1.0255 0
-1.95687e-14 1.0255 0
4.75074e-14 1.02868 0
2.45093e-14 1.02868 0
-2.77955e-14 1.02227 0
-1.54378e-14 1.02227 0
2.32971e-14 1.0255 0
3.61324e-14 1.0255 0
-1.54378e-14 1.02227 0
-1.05434e-13 1.02227 0
3.61324e-14 1.0255 0
1.07313e-13 1.0255 0
-1.95687e-14 1.0255 0
-6.00654e-14 1.0255 0
2.45093e-14 1.02868 0
6.36032e-14 1.02868 0
-6.00654e-14 1.0255 0
-7.51624e-14 1.0255 0
6.36032e-14 1.02868 0
6.21351e-14 1.02868 0
-4.64302e-14 1 0
-6.45275e-14 1 0
5.63832e-14 1.00579 0
7.66902e-14 1.00579 0
-6.45275e-14 1 0
-6.07642e-14 1 0
7.66902e-14 1.00579 0
7.01236e-14 1.00579 0
-6.28836e-14 1.00579 0
-6.3895e-14 1.00579 0
7.60975e-14 1.00871 0
7.28927e-14 1.00871 0
-6.3895e-14 1.00579 0
-4.4089e-14 1.00579 0
7.28927e-14 1.00871 0
3.78707e-14 1.00871 0
-6.07642e-14 1 0
-1.29761e-13 1 0
7.01236e-14 1.00579 0
1.6094e-13 1.00579 0
-1.29761e-13 1 0
-1.03522e-13 1 0
1.6094e-13 1.00579 0
1.16533e-13 1.00579 0
-4.4089e-14 1.00579 0
-1.06072e-13 1.00579 0
3.78707e-14 1.00871 0
9.59903e-14 1.00871 0
-1.06072e-13 1.00579 0
-1.13459e-13 1.00579 0
9.59903e-14 1.00871 0
1.40464e-13 1.00871 0
-8.2787e-14 1.00871 0
-7.50582e-14 1.00871 0
8.077e-14 1.01229 0
7.33466e-14 1.01229 0
-7.50582e-14 1.00871 0
-6.53743e-14 1.00871 0
7.33466e-14 1.01229 0
6.75455e-14 1.01229 0
-8.90842e-14 1.01229 0
-7.37457e-14 1.01229 0
9.67178e-14 1.01564 0
9.62588e-14 1.01564 0
-7.37457e-14 1.01229 0
-4.78795e-14 1.01229 0
9.62588e-14 1.01564 0
7.90962e-14 1.01564 0
-6.53743e-14 1.00871 0
-1.08915e-13 1.00871 0
6.75455e-14 1.01229 0
9.79853e-14 1.01229 0
-1.08915e-13 1.00871 0
-1.34387e-13 1.00871 0
9.79853e-14 1.01229 0
1.0419e-13 1.01229 0
-4.78795e-14 1.01229 0
-4.83891e-14 1.01229 0
7.90962e-14 1.01564 0
7.22508e-14 1.01564 0
-4.83891e-14 1.01229 0
-3.22833e-14 1.01229 0
7.22508e-14 1.01564 0
4.9762e-14 1.01564 0
-1.03522e-13 1 0
-1.05448e-13 1 0
1.16533e-13 1.00579 0
1.20219e-13 1.00579 0
-1.05448e-13 1 0
-1.14715e-13 1 0
1.20219e-13 1.00579 0
1.30413e-13 1.00579 0
-1.13459e-13 1.00579 0
-9.34391e-14 1.00579 0
1.40464e-13 1.00871 0
1.10401e-13 1.00871 0
-9.34391e-14 1.00579 0
-7.40353e-14 1.00579 0
1.10401e-13 1.00871 0
6.74868e-14 1.00871 0
-1.14715e-13 1 0
-8.65768e-14 1 0
1.30413e-13 1.00579 0
9.5417e-14 1.00579 0
-8.65768e-14 1 0
-5.95939e-14 1 0
9.5417e-14 1.00579 0
6.1531e-14 1.00579 0
-7.40353e-14 1.00579 0
-9.64884e-14 1.00579 0
6.74868e-14 1.00871 0
1.06343e-13 1.00871 0
-9.64884e-14 1.00579 0
-4.6744e-14 1.00579 0
1.06343e-13 1.00871 0
6.17687e-14 1.00871 0
-1.34387e-13 1.00871 0
-1.12684e-13 1.00871 0
1.0419e-13 1.01229 0
1.03787e-13 1.01229 0
-1.12684e-13 1.00871 0
-7.9831e-14 1.00871 0
1.03787e-13 1.01229 0
9.90225e-14 1.01229 0
-3.22833e-14 1.01229 0
-4.19039e-14 1.01229 0
4.9762e-14 1.01564 0
3.83017e-14 1.01564 0
-4.19039e-14 1.01229 0
-7.61945e-14 1.01229 0
3.83017e-14 1.01564 0
8.39095e-14 1.01564 0
-7.9831e-14 1.00871 0
-4.80478e-14 1.00871 0
9.90225e-14 1.01229 0
4.89556e-14 1.01229 0
-4.80478e-14 1.00871 0
-4.83971e-14 1.00871 0
4.89556e-14 1.01229 0
6.36319e-14 1.01229 0
-7.61945e-14 1.01229 0
-5.0362e-14 1.01229 0
8.39095e-14 1.01564 0
7.91704e-14 1.01564 0
-5.0362e-14 1.01229 0
-6.2771e-14 1.01229 0
7.91704e-14 1.01564 0
8.15254e-14 1.01564 0
-5.53185e-14 1.01564 0
-6.13384e-14 1.01564 0
5.92252e-14 1.01899 0
6.00895e-14 1.01899 0
-6.13384e-14 1.01564 0
-7.13284e-14 1.01564 0
6.00895e-14 1.01899 0
7.77612e-14 1.01899 0
-4.73906e-14 1.01899 0
-7.54092e-14 1.01899 0
5.67209e-14 1.02227 0
7.50617e-14 1.02227 0
-7.54092e-14 1.01899 0
-6.25218e-14 1.01899 0
7.50617e-14 1.02227 0
5.12185e-14 1.02227 0
-7.13284e-14 1.01564 0
-6.73285e-14 1.01564 0
7.77612e-14 1.01899 0
6.77502e-14 1.01899 0
-6.73285e-14 1.01564 0
-5.1115e-14 1.01564 0
6.77502e-14 1.01899 0
6.36605e-14 1.01899 0
-6.25218e-14 1.01899 0
-4.76639e-14 1.01899 0
5.12185e-14 1.02227 0
4.79628e-14 1.02227 0
-4.76639e-14 1.01899 0
-6.84654e-14 1.01899 0
4.79628e-14 1.02227 0
7.78615e-14 1.02227 0
-1.05434e-13 1.02227 0
-5.7923e-14 1.02227 0
1.07313e-13 1.0255 0
6.12165e-14 1.0255 0
-5.7923e-14 1.02227 0
-4.71277e-14 1.02227 0
6.12165e-14 1.0255 0
6.16314e-14 1.0255 0
-7.51624e-14 1.0255 0
-7.14547e-14 1.0255 0
6.21351e-14 1.02868 0
6.85318e-14 1.02868 0
-7.14547e-14 1.0255 0
-7.91536e-14 1.0255 0
6.85318e-14 1.02868 0
7.9646e-14 1.02868 0
-4.71277e-14 1.02227 0
-6.17063e-14 1.02227 0
6.16314e-14 1.0255 0
7.63439e-14 1.0255 0
-6.17063e-14 1.02227 0
-7.91925e-14 1.02227 0
7.63439e-14 1.0255 0
8.67722e-14 1.0255 0
-7.91536e-14 1.0255 0
-6.40952e-14 1.0255 0
7.9646e-14 1.02868 0
6.24681e-14 1.02868 0
-6.40952e-14 1.0255 0
-8.43339e-14 1.0255 0
6.24681e-14 1.02868 0
7.91552e-14 1.02868 0
-5.1115e-14 1.01564 0
-3.35478e-15 1.01564 0
6.36605e-14 1.01899 0
1.06978e-14 1.01899 0
-3.35478e-15 1.01564 0
-3.99382e-14 1.01564 0
1.06978e-14 1.01899 0
5.08764e-14 1.01899 0
-6.84654e-14 1.01899 0
-2.81403e-16 1.01899 0
7.78615e-14 1.02227 0
5.75178e-15 1.02227 0
-2.81403e-16 1.01899 0
-3.99734e-14 1.01899 0
5.75178e-15 1.02227 0
3.97684e-14 1.02227 0
-3.99382e-14 1.01564 0
-7.05871e-14 1.01564 0
5.08764e-14 1.01899 0
6.97073e-14 1.01899 0
-7.05871e-14 1.01564 0
-7.1124e-14 1.01564 0
6.97073e-14 1.01899 0
7.67031e-14 1.01899 0
-3.99734e-14 1.01899 0
-4.89679e-14 1.01899 0
3.97684e-14 1.02227 0
6.16832e-14 1.02227 0
-4.89679e-14 1.01899 0
-6.60258e-14 1.01899 0
6.16832e-14 1.02227 0
6.91079e-14 1.02227 0
-7.91925e-14 1.02227 0
-3.77591e-14 1.02227 0
8.67722e-14 1.0255 0
4.60833e-14 1.0255 0
-3.77591e-14 1.02227 0
-7.69906e-14 1.02227 0
4.60833e-14 1.0255 0
7.45558e-14 1.0255 0
-8.43339e-14 1.0255 0
-3.05762e-14 1.0255 0
7.91552e-14 1.02868 0
3.47411e-14 1.02868 0
-3.05762e-14 1.0255 0
-3.70217e-14 1.0255 0
3.47411e-14 1.02868 0
4.00582e-14 1.02868 0
-7.69906e-14 1.02227 0
-8.9615e-14 1.02227 0
7.45558e-14 1.0255 0
7.91457e-14 1.0255 0
-8.9615e-14 1.02227 0
-6.85382e-14 1.02227 0
7.91457e-14 1.0255 0
6.73528e-14 1.0255 0
-3.70217e-14 1.0255 0
-3.26349e-14 1.0255 0
4.00582e-14 1.02868 0
2.78601e-14 1.02868 0
-3.26349e-14 1.0255 0
-4.64788e-14 1.0255 0
2.78601e-14 1.02868 0
5.92187e-14 1.02868 0
0 1.02868 0
-1.93423e-14 1.02868 0
0 1.03181 0
2.81915e-14 1.03181 0
-1.93423e-14 1.02868 0
3.30128e-15 1.02868 0
2.81915e-14 1.03181 0
3.26436e-15 1.03181 0
0 1.03181 0
-3.26305e-14 1.03181 0
0 1.03489 0
2.54571e-14 1.03489 0
-3.26305e-14 1.03181 0
-5.33917e-15 1.03181 0
2.54571e-14 1.03489 0
4.71167e-15 1.03489 0
3.30128e-15 1.02868 0
-9.34185e-14 1.02868 0
3.26436e-15 1.03181 0
9.37104e-14 1.03181 0
-9.34185e-14 1.02868 0
-1.24677e-13 1.02868 0
9.37104e-14 1.03181 0
1.08417e-13 1.03181 0
-5.33917e-15 1.03181 0
-6.519e-14 1.03181 0
4.71167e-15 1.03489 0
6.09384e-14 1.03489 0
-6.519e-14 1.03181 0
-7.65351e-14 1.03181 0
6.09384e-14 1.03489 0
8.01192e-14 1.03489 0
0 1.03489 0
-2.95785e-14 1.03489 0
0 1.03791 0
3.52522e-14 1.03791 0
-2.95785e-14 1.03489 0
-1.35755e-14 1.03489 0
3.52522e-14 1.03791 0
2.11444e-14 1.03791 0
0 1.03791 0
-1.48423e-14 1.03791 0
0 1.04089 0
1.47453e-14 1.04089 0
-1.48423e-14 1.03791 0
5.76665e-15 1.03791 0
1.47453e-14 1.04089 0
-1.11828e-14 1.04089 0
-1.35755e-14 1.03489 0
-6.42075e-14 1.03489 0
2.11444e-14 1.03791 0
5.04556e-14 1.03791 0
-6.42075e-14 1.03489 0
-9.51163e-14 1.03489 0
5.04556e-14 1.03791 0
9.25915e-14 1.03791 0
5.76665e-15 1.03791 0
1.48462e-14 1.03791 0
-1.11828e-14 1.04089 0
-2.72666e-14 1.04089 0
1.48462e-14 1.03791 0
-5.57183e-14 1.03791 0
-2.72666e-14 1.04089 0
3.83172e-14 1.04089 0
-1.24677e-13 1.02868 0
-7.83969e-14 1.02868 0
1.08417e-13 1.03181 0
8.23669e-14 1.03181 0
-7.83969e-14 1.02868 0
-7.46029e-14 1.02868 0
8.23669e-14 1.03181 0
8.42831e-14 1.03181 0
-7.65351e-14 1.03181 0
-7.44999e-14 1.03181 0
8.01192e-14 1.03489 0
8.09154e-14 1.03489 0
-7.44999e-14 1.03181 0
-6.59391e-14 1.03181 0
8.09154e-14 1.03489 0
6.34941e-14 1.03489 0
-7.46029e-14 1.02868 0
-8.45748e-14 1.02868 0
8.42831e-14 1.03181 0
8.11012e-14 1.03181 0
-8.45748e-14 1.02868 0
-5.6865e-14 1.02868 0
8.11012e-14 1.03181 0
6.01549e-14 1.03181 0
-6.59391e-14 1.03181 0
-7.32097e-14 1.03181 0
6.34941e-14 1.03489 0
7.77099e-14 1.03489 0
-7.32097e-14 1.03181 0
-9.63958e-14 1.03181 0
7.77099e-14 1.03489 0
9.94912e-14 1.03489 0
-9.51163e-14 1.03489 0
-8.61901e-14 1.03489 0
9.25915e-14 1.03791 0
8.61447e-14 1.03791 0
-8.61901e-14 1.03489 0
-7.41782e-14 1.03489 0
8.61447e-14 1.03791 0
7.93165e-14 1.03791 0
-5.57183e-14 1.03791 0
-8.09245e-14 1.03791 0
3.83172e-14 1.04089 0
8.50874e-14 1.04089 0
-8.09245e-14 1.03791 0
-7.30354e-14 1.03791 0
8.50874e-14 1.04089 0
8.29628e-14 1.04089 0
-7.41782e-14 1.03489 0
-8.97787e-14 1.03489 0
7.93165e-14 1.03791 0
9.52408e-14 1.03791 0
-8.97787e-14 1.03489 0
-6.27937e-14 1.03489 0
9.52408e-14 1.03791 0
4.82837e-14 1.03791 0
-7.30354e-14 1.03791 0
-7.62558e-14 1.03791 0
8.29628e-14 1.04089 0
7.93807e-14 1.04089 0
-7.62558e-14 1.03791 0
-2.87128e-14 1.03791 0
7.93807e-14 1.04089 0
3.52954e-14 1.04089 0
0 1.04089 0
-2.64425e-14 1.04089 0
0 1.04381 0
3.22882e-14 1.04381 0
-2.64425e-14 1.04089 0
4.34884e-15 1.04089 0
3.22882e-14 1.04381 0
-1.78053e-15 1.04381 0
0 1.04381 0
-4.23254e-14 1.04381 0
0 1.0467 0
3.49496e-14 1.0467 0
-4.23254e-14 1.04381 0
-2.50954e-15 1.04381 0
3.49496e-14 1.0467 0
-1.6978e-15 1.0467 0
4.34884e-15 1.04089 0
2.90899e-14 1.04089 0
-1.78053e-15 1.04381 0
-1.28501e-14 1.04381 0
2.90899e-14 1.04089 0
4.81371e-15 1.04089 0
-1.28501e-14 1.04381 0
-9.86751e-15 1.04381 0
-2.50954e-15 1.04381 0
-3.34856e-14 1.04381 0
-1.6978e-15 1.0467 0
3.39244e-14 1.0467 0
-3.34856e-14 1.04381 0
-1.95449e-14 1.04381 0
3.39244e-14 1.0467 0
3.57152e-14 1.0467 0
0 1.0467 0
-6.43215e-15 1.0467 0
0 1.04954 0
6.99819e-15 1.04954 0
-6.43215e-15 1.0467 0
6.9609e-15 1.0467 0
6.99819e-15 1.04954 0
-2.88229e-15 1.04954 0
0 1.04954 0
-2.01355e-14 1.04954 0
0 1.05234 0
2.26214e-14 1.05234 0
-2.01355e-14 1.04954 0
1.57819e-15 1.04954 0
2.26214e-14 1.05234 0
-3.71378e-15 1.05234 0
6.9609e-15 1.0467 0
-8.16847e-15 1.0467 0
-2.88229e-15 1.04954 0
4.39956e-15 1.04954 0
-8.16847e-15 1.0467 0
-6.3975e-14 1.0467 0
4.39956e-15 1.04954 0
6.78433e-14 1.04954 0
1.57819e-15 1.04954 0
4.14044e-15 1.04954 0
-3.71378e-15 1.05234 0
-6.05045e-15 1.05234 0
4.14044e-15 1.04954 0
-2.67572e-14 1.04954 0
-6.05045e-15 1.05234 0
2.06906e-14 1.05234 0
4.81371e-15 1.04089 0
-7.40414e-14 1.04089 0
-9.86751e-15 1.04381 0
7.34203e-14 1.04381 0
-7.40414e-14 1.04089 0
-7.49285e-14 1.04089 0
7.34203e-14 1.04381 0
7.13254e-14 1.04381 0
-1.95449e-14 1.04381 0
-7.21482e-14 1.04381 0
3.57152e-14 1.0467 0
7.0895e-14 1.0467 0
-7.21482e-14 1.04381 0
-7.8383e-14 1.04381 0
7.0895e-14 1.0467 0
8.23177e-14 1.0467 0
-7.49285e-14 1.04089 0
-1.02191e-13 1.04089 0
7.13254e-14 1.04381 0
1.04034e-13 1.04381 0
-1.02191e-13 1.04089 0
-3.91375e-14 1.04089 0
1.04034e-13 1.04381 0
5.45929e-14 1.04381 0
-7.8383e-14 1.04381 0
-8.33388e-14 1.04381 0
8.23177e-14 1.0467 0
7.59332e-14 1.0467 0
-8.33388e-14 1.04381 0
-1.02303e-13 1.04381 0
7.59332e-14 1.0467 0
9.94454e-14 1.0467 0
-6.3975e-14 1.0467 0
-7.76912e-14 1.0467 0
6.78433e-14 1.04954 0
7.78772e-14 1.04954 0
-7.76912e-14 1.0467 0
-8.67199e-14 1.0467 0
7.78772e-14 1.04954 0
8.10086e-14 1.04954 0
-2.67572e-14 1.04954 0
-6.73511e-14 1.04954 0
2.06906e-14 1.05234 0
6.35037e-14 1.05234 0
-6.73511e-14 1.04954 0
-7.4222e-14 1.04954 0
6.35037e-14 1.05234 0
7.54284e-14 1.05234 0
-8.67199e-14 1.0467 0
-7.672e-14 1.0467 0
8.10086e-14 1.04954 0
8.15246e-14 1.04954 0
-7.672e-14 1.0467 0
-5.85855e-14 1.0467 0
8.15246e-14 1.04954 0
6.15642e-14 1.04954 0
-7.4222e-14 1.04954 0
-7.35719e-14 1.04954 0
7.54284e-14 1.05234 0
6.68951e-14 1.05234 0
-7.35719e-14 1.04954 0
-6.8891e-14 1.04954 0
6.68951e-14 1.05234 0
5.78817e-14 1.05234 0
-5.6865e-14 1.02868 0
-7.55364e-14 1.02868 0
6.01549e-14 1.03181 0
7.07621e-14 1.03181 0
-7.55364e-14 1.02868 0
-9.63373e-14 1.02868 0
7.07621e-14 1.03181 0
9.74293e-14 1.03181 0
-9.63958e-14 1.03181 0
-6.18395e-14 1.03181 0
9.94912e-14 1.03489 0
5.60395e-14 1.03489 0
-6.18395e-14 1.03181 0
-8.2558e-14 1.03181 0
5.60395e-14 1.03489 0
8.04007e-14 1.03489 0
-9.63373e-14 1.02868 0
-8.77488e-14 1.02868 0
9.74293e-14 1.03181 0
8.19259e-14 1.03181 0
-8.77488e-14 1.02868 0
-7.74712e-14 1.02868 0
8.19259e-14 1.03181 0
8.31046e-14 1.03181 0
-8.2558e-14 1.03181 0
-8.3612e-14 1.03181 0
8.04007e-14 1.03489 0
8.75349e-14 1.03489 0
-8.3612e-14 1.03181 0
-1.15006e-13 1.03181 0
8.75349e-14 1.03489 0
1.11416e-13 1.03489 0
-6.27937e-14 1.03489 0
-3.78584e-14 1.03489 0
4.82837e-14 1.03791 0
4.40981e-14 1.03791 0
-3.78584e-14 1.03489 0
-6.97584e-14 1.03489 0
4.40981e-14 1.03791 0
7.36716e-14 1.03791 0
-2.87128e-14 1.03791 0
-5.79301e-14 1.03791 0
3.52954e-14 1.04089 0
7.33976e-14 1.04089 0
-5.79301e-14 1.03791 0
-6.57692e-14 1.03791 0
7.33976e-14 1.04089 0
6.05321e-14 1.04089 0
-6.97584e-14 1.03489 0
-6.92558e-14 1.03489 0
7.36716e-14 1.03791 0
7.54604e-14 1.03791 0
-6.92558e-14 1.03489 0
-7.50179e-14 1.03489 0
7.54604e-14 1.03791 0
8.21792e-14 1.03791 0
-6.57692e-14 1.03791 0
-7.06994e-14 1.03791 0
6.05321e-14 1.04089 0
6.88599e-14 1.04089 0
-7.06994e-14 1.03791 0
-6.73007e-14 1.03791 0
6.88599e-14 1.04089 0
6.16003e-14 1.04089 0
-7.74712e-14 1.02868 0
-2.94981e-14 1.02868 0
8.31046e-14 1.03181 0
1.68032e-14 1.03181 0
-2.94981e-14 1.02868 0
-5.36271e-14 1.02868 0
1.68032e-14 1.03181 0
6.1336e-14 1.03181 0
-1.15006e-13 1.03181 0
-1.63246e-15 1.03181 0
1.11416e-13 1.03489 0
5.74284e-15 1.03489 0
-1.63246e-15 1.03181 0
-5.87543e-14 1.03181 0
5.74284e-15 1.03489 0
6.19799e-14 1.03489 0
-5.36271e-14 1.02868 0
-3.09523e-14 1.02868 0
6.1336e-14 1.03181 0
3.93678e-14 1.03181 0
-3.09523e-14 1.02868 0
-8.33587e-14 1.02868 0
3.93678e-14 1.03181 0
8.24424e-14 1.03181 0
-5.87543e-14 1.03181 0
-4.9106e-14 1.03181 0
6.19799e-14 1.03489 0
5.45808e-14 1.03489 0
-4.9106e-14 1.03181 0
-6.90999e-14 1.03181 0
5.45808e-14 1.03489 0
7.01771e-14 1.03489 0
-7.50179e-14 1.03489 0
-2.25312e-14 1.03489 0
8.21792e-14 1.03791 0
3.83242e-14 1.03791 0
-2.25312e-14 1.03489 0
-6.45535e-14 1.03489 0
3.83242e-14 1.03791 0
5.91023e-14 1.03791 0
-6.73007e-14 1.03791 0
-3.87304e-14 1.03791 0
6.16003e-14 1.04089 0
4.31562e-14 1.04089 0
-3.87304e-14 1.03791 0
-2.74139e-14 1.03791 0
4.31562e-14 1.04089 0
1.90736e-14 1.04089 0
-6.45535e-14 1.03489 0
-4.814e-14 1.03489 0
5.91023e-14 1.03791 0
4.42505e-14 1.03791 0
-4.814e-14 1.03489 0
-6.0664e-14 1.03489 0
4.42505e-14 1.03791 0
5.58111e-14 1.03791 0
-2.74139e-14 1.03791 0
-1.87939e-14 1.03791 0
1.90736e-14 1.04089 0
1.66325e-14 1.04089 0
-1.87939e-14 1.03791 0
-6.26849e-15 1.03791 0
1.66325e-14 1.04089 0
4.04015e-15 1.04089 0
-3.91375e-14 1.04089 0
-7.89086e-14 1.04089 0
5.45929e-14 1.04381 0
6.65055e-14 1.04381 0
-7.89086e-14 1.04089 0
-5.85462e-14 1.04089 0
6.65055e-14 1.04381 0
4.77181e-14 1.04381 0
-1.02303e-13 1.04381 0
-6.01105e-14 1.04381 0
9.94454e-14 1.0467 0
6.62612e-14 1.0467 0
-6.01105e-14 1.04381 0
-1.71656e-14 1.04381 0
6.62612e-14 1.0467 0
1.62072e-14 1.0467 0
-5.85462e-14 1.04089 0
-7.89788e-14 1.04089 0
4.77181e-14 1.04381 0
8.05954e-14 1.04381 0
-7.89788e-14 1.04089 0
-7.09655e-14 1.04089 0
8.05954e-14 1.04381 0