# vtk DataFile Version 3.0
#This file was generated by the deal.II library on 2018/10/14 at 17:27:21
ASCII
DATASET UNSTRUCTURED_GRID

POINTS 20480 double
0 0 0
0.19635 0 0
0 0.312224 0
0.19635 0.312224 0
0.19635 0 0
0.392699 0 0
0.19635 0.312224 0
0.392699 0.312224 0
0 0.312224 0
0.19635 0.312224 0
0 0.62472 0
0.19635 0.62472 0
0.19635 0.312224 0
0.392699 0.312224 0
0.19635 0.62472 0
0.392699 0.62472 0
0.392699 0 0
0.589049 0 0
0.392699 0.312224 0
0.589049 0.312224 0
0.589049 0 0
0.785398 0 0
0.589049 0.312224 0
0.785398 0.312224 0
0.392699 0.312224 0
0.589049 0.312224 0
0.392699 0.62472 0
0.589049 0.62472 0
0.589049 0.312224 0
0.785398 0.312224 0
0.589049 0.62472 0
0.785398 0.62472 0
0 0.62472 0
0.19635 0.62472 0
0 0.937203 0
0.19635 0.937203 0
0.19635 0.62472 0
0.392699 0.62472 0
0.19635 0.937203 0
0.392699 0.937203 0
0 0.937203 0
0.19635 0.937203 0
0 1.24969 0
0.19635 1.24969 0
0.19635 0.937203 0
0.392699 0.937203 0
0.19635 1.24969 0
0.392699 1.24969 0
0.392699 0.62472 0
0.589049 0.62472 0
0.392699 0.937203 0
0.589049 0.937203 0
0.589049 0.62472 0
0.785398 0.62472 0
0.589049 0.937203 0
0.785398 0.937203 0
0.392699 0.937203 0
0.589049 0.937203 0
0.392699 1.24969 0
0.589049 1.24969 0
0.589049 0.937203 0
0.785398 0.937203 0
0.589049 1.24969 0
0.785398 1.24969 0
0.785398 0 0
0.981748 0 0
0.785398 0.312224 0
0.981748 0.312224 0
0.981748 0 0
1.1781 0 0
0.981748 0.312224 0
1.1781 0.312224 0
0.785398 0.312224 0
0.981748 0.312224 0
0.785398 0.62472 0
0.981748 0.62472 0
0.981748 0.312224 0
1.1781 0.312224 0
0.981748 0.62472 0
1.1781 0.62472 0
1.1781 0 0
1.37445 0 0
1.1781 0.312224 0
1.37445 0.312224 0
1.37445 0 0
1.5708 0 0
1.37445 0.312224 0
1.5708 0.312224 0
1.1781 0.312224 0
1.37445 0.312224 0
1.1781 0.62472 0
1.37445 0.62472 0
1.37445 0.312224 0
1.5708 0.312224 0
1.37445 0.62472 0
1.5708 0.62472 0
0.785398 0.62472 0
0.981748 0.62472 0
0.785398 0.937203 0
0.981748 0.937203 0
0.981748 0.62472 0
1.1781 0.62472 0
0.981748 0.937203 0
1.1781 0.937203 0
0.785398 0.937203 0
0.981748 0.937203 0
0.785398 1.24969 0
0.981748 1.24969 0
0.981748 0.937203 0
1.1781 0.937203 0
0.981748 1.24969 0
1.1781 1.24969 0
1.1781 0.62472 0
1.37445 0.62472 0
1.1781 0.937203 0
1.37445 0.937203 0
1.37445 0.62472 0
1.5708 0.62472 0
1.37445 0.937203 0
1.5708 0.937203 0
1.1781 0.937203 0
1.37445 0.937203 0
1.1781 1.24969 0
1.37445 1.24969 0
1.37445 0.937203 0
1.5708 0.937203 0
1.37445 1.24969 0
1.5708 1.24969 0
0 1.24969 0
0.19635 1.24969 0
0 1.56218 0
0.19635 1.56218 0
0.19635 1.24969 0
0.392699 1.24969 0
0.19635 1.56218 0
0.392699 1.56218 0
0 1.56218 0
0.19635 1.56218 0
0 1.87467 0
0.19635 1.87467 0
0.19635 1.56218 0
0.392699 1.56218 0
0.19635 1.87467 0
0.392699 1.87467 0
0.392699 1.24969 0
0.589049 1.24969 0
0.392699 1.56218 0
0.589049 1.56218 0
0.589049 1.24969 0
0.785398 1.24969 0
0.589049 1.56218 0
0.785398 1.56218 0
0.392699 1.56218 0
0.589049 1.56218 0
0.392699 1.87467 0
0.589049 1.87467 0
0.589049 1.56218 0
0.785398 1.56218 0
0.589049 1.87467 0
0.785398 1.87467 0
0 1.87467 0
0.19635 1.87467 0
0 2.18715 0
0.19635 2.18715 0
0.19635 1.87467 0
0.392699 1.87467 0
0.19635 2.18715 0
0.392699 2.18715 0
0 2.18715 0
0.19635 2.18715 0
0 2.49963 0
0.19635 2.49963 0
0.19635 2.18715 0
0.392699 2.18715 0
0.19635 2.49963 0
0.392699 2.49963 0
0.392699 1.87467 0
0.589049 1.87467 0
0.392699 2.18715 0
0.589049 2.18715 0
0.589049 1.87467 0
0.785398 1.87467 0
0.589049 2.18715 0
0.785398 2.18715 0
0.392699 2.18715 0
0.589049 2.18715 0
0.392699 2.49963 0
0.589049 2.49963 0
0.589049 2.18715 0
0.785398 2.18715 0
0.589049 2.49963 0
0.785398 2.49963 0
0.785398 1.24969 0
0.981748 1.24969 0
0.785398 1.56218 0
0.981748 1.56218 0
0.981748 1.24969 0
1.1781 1.24969 0
0.981748 1.56218 0
1.1781 1.56218 0
0.785398 1.56218 0
0.981748 1.56218 0
0.785398 1.87467 0
0.981748 1.87467 0
0.981748 1.56218 0
1.1781 1.56218 0
0.981748 1.87467 0
1.1781 1.87467 0
1.1781 1.24969 0
1.37445 1.24969 0
1.1781 1.56218 0
1.37445 1.56218 0
1.37445 1.24969 0
1.5708 1.24969 0
1.37445 1.56218 0
1.5708 1.56218 0
1.1781 1.56218 0
1.37445 1.56218 0
1.1781 1.87467 0
1.37445 1.87467 0
1.37445 1.56218 0
1.5708 1.56218 0
1.37445 1.87467 0
1.5708 1.87467 0
0.785398 1.87467 0
0.981748 1.87467 0
0.785398 2.18715 0
0.981748 2.18715 0
0.981748 1.87467 0
1.1781 1.87467 0
0.981748 2.18715 0
1.1781 2.18715 0
0.785398 2.18715 0
0.981748 2.18715 0
0.785398 2.49963 0
0.981748 2.49963 0
0.981748 2.18715 0
1.1781 2.18715 0
0.981748 2.49963 0
1.1781 2.49963 0
1.1781 1.87467 0
1.37445 1.87467 0
1.1781 2.18715 0
1.37445 2.18715 0
1.37445 1.87467 0
1.5708 1.87467 0
1.37445 2.18715 0
1.5708 2.18715 0
1.1781 2.18715 0
1.37445 2.18715 0
1.1781 2.49963 0
1.37445 2.49963 0
1.37445 2.18715 0
1.5708 2.18715 0
1.37445 2.49963 0
1.5708 2.49963 0
1.5708 0 0
1.76715 0 0
1.5708 0.312224 0
1.76715 0.312224 0
1.76715 0 0
1.9635 0 0
1.76715 0.312224 0
1.9635 0.312224 0
1.5708 0.312224 0
1.76715 0.312224 0
1.5708 0.62472 0
1.76715 0.62472 0
1.76715 0.312224 0
1.9635 0.312224 0
1.76715 0.62472 0
1.9635 0.62472 0
1.9635 0 0
2.15984 0 0
1.9635 0.312224 0
2.15984 0.312224 0
2.15984 0 0
2.35619 0 0
2.15984 0.312224 0
2.35619 0.312224 0
1.9635 0.312224 0
2.15984 0.312224 0
1.9635 0.62472 0
2.15984 0.62472 0
2.15984 0.312224 0
2.35619 0.312224 0
2.15984 0.62472 0
2.35619 0.62472 0
1.5708 0.62472 0
1.76715 0.62472 0
1.5708 0.937203 0
1.76715 0.937203 0
1.76715 0.62472 0
1.9635 0.62472 0
1.76715 0.937203 0
1.9635 0.937203 0
1.5708 0.937203 0
1.76715 0.937203 0
1.5708 1.24969 0
1.76715 1.24969 0
1.76715 0.937203 0
1.9635 0.937203 0
1.76715 1.24969 0
1.9635 1.24969 0
1.9635 0.62472 0
2.15984 0.62472 0
1.9635 0.937203 0
2.15984 0.937203 0
2.15984 0.62472 0
2.35619 0.62472 0
2.15984 0.937203 0
2.35619 0.937203 0
1.9635 0.937203 0
2.15984 0.937203 0
1.9635 1.24969 0
2.15984 1.24969 0
2.15984 0.937203 0
2.35619 0.937203 0
2.15984 1.24969 0
2.35619 1.24969 0
2.35619 0 0
2.55254 0 0
2.35619 0.312224 0
2.55254 0.312224 0
2.55254 0 0
2.74889 0 0
2.55254 0.312224 0
2.74889 0.312224 0
2.35619 0.312224 0
2.55254 0.312224 0
2.35619 0.62472 0
2.55254 0.62472 0
2.55254 0.312224 0
2.74889 0.312224 0
2.55254 0.62472 0
2.74889 0.62472 0
2.74889 0 0
2.94524 0 0
2.74889 0.312224 0
2.94524 0.312224 0
2.94524 0 0
3.14159 0 0
2.94524 0.312224 0
3.14159 0.312224 0
2.74889 0.312224 0
2.94524 0.312224 0
2.74889 0.62472 0
2.94524 0.62472 0
2.94524 0.312224 0
3.14159 0.312224 0
2.94524 0.62472 0
3.14159 0.62472 0
2.35619 0.62472 0
2.55254 0.62472 0
2.35619 0.937203 0
2.55254 0.937203 0
2.55254 0.62472 0
2.74889 0.62472 0
2.55254 0.937203 0
2.74889 0.937203 0
2.35619 0.937203 0
2.55254 0.937203 0
2.35619 1.24969 0
2.55254 1.24969 0
2.55254 0.937203 0
2.74889 0.937203 0
2.55254 1.24969 0
2.74889 1.24969 0
2.74889 0.62472 0
2.94524 0.62472 0
2.74889 0.937203 0
2.94524 0.937203 0
2.94524 0.62472 0
3.14159 0.62472 0
2.94524 0.937203 0
3.14159 0.937203 0
2.74889 0.937203 0
2.94524 0.937203 0
2.74889 1.24969 0
2.94524 1.24969 0
2.94524 0.937203 0
3.14159 0.937203 0
2.94524 1.24969 0
3.14159 1.24969 0
1.5708 1.24969 0
1.76715 1.24969 0
1.5708 1.56218 0
1.76715 1.56218 0
1.76715 1.24969 0
1.9635 1.24969 0
1.76715 1.56218 0
1.9635 1.56218 0
1.5708 1.56218 0
1.76715 1.56218 0
1.5708 1.87467 0
1.76715 1.87467 0
1.76715 1.56218 0
1.9635 1.56218 0
1.76715 1.87467 0
1.9635 1.87467 0
1.9635 1.24969 0
2.15984 1.24969 0
1.9635 1.56218 0
2.15984 1.56218 0
2.15984 1.24969 0
2.35619 1.24969 0
2.15984 1.56218 0
2.35619 1.56218 0
1.9635 1.56218 0
2.15984 1.56218 0
1.9635 1.87467 0
2.15984 1.87467 0
2.15984 1.56218 0
2.35619 1.56218 0
2.15984 1.87467 0
2.35619 1.87467 0
1.5708 1.87467 0
1.76715 1.87467 0
1.5708 2.18715 0
1.76715 2.18715 0
1.76715 1.87467 0
1.9635 1.87467 0
1.76715 2.18715 0
1.9635 2.18715 0
1.5708 2.18715 0
1.76715 2.18715 0
1.5708 2.49963 0
1.76715 2.49963 0
1.76715 2.18715 0
1.9635 2.18715 0
1.76715 2.49963 0
1.9635 2.49963 0
1.9635 1.87467 0
2.15984 1.87467 0
1.9635 2.18715 0
2.15984 2.18715 0
2.15984 1.87467 0
2.35619 1.87467 0
2.15984 2.18715 0
2.35619 2.18715 0
1.9635 2.18715 0
2.15984 2.18715 0
1.9635 2.49963 0
2.15984 2.49963 0
2.15984 2.18715 0
2.35619 2.18715 0
2.15984 2.49963 0
2.35619 2.49963 0
2.35619 1.24969 0
2.55254 1.24969 0
2.35619 1.56218 0
2.55254 1.56218 0
2.55254 1.24969 0
2.74889 1.24969 0
2.55254 1.56218 0
2.74889 1.56218 0
2.35619 1.56218 0
2.55254 1.56218 0
2.35619 1.87467 0
2.55254 1.87467 0
2.55254 1.56218 0
2.74889 1.56218 0
2.55254 1.87467 0
2.74889 1.87467 0
2.74889 1.24969 0
2.94524 1.24969 0
2.74889 1.56218 0
2.94524 1.56218 0
2.94524 1.24969 0
3.14159 1.24969 0
2.94524 1.56218 0
3.14159 1.56218 0
2.74889 1.56218 0
2.94524 1.56218 0
2.74889 1.87467 0
2.94524 1.87467 0
2.94524 1.56218 0
3.14159 1.56218 0
2.94524 1.87467 0
3.14159 1.87467 0
2.35619 1.87467 0
2.55254 1.87467 0
2.35619 2.18715 0
2.55254 2.18715 0
2.55254 1.87467 0
2.74889 1.87467 0
2.55254 2.18715 0
2.74889 2.18715 0
2.35619 2.18715 0
2.55254 2.18715 0
2.35619 2.49963 0
2.55254 2.49963 0
2.55254 2.18715 0
2.74889 2.18715 0
2.55254 2.49963 0
2.74889 2.49963 0
2.74889 1.87467 0
2.94524 1.87467 0
2.74889 2.18715 0
2.94524 2.18715 0
2.94524 1.87467 0
3.14159 1.87467 0
2.94524 2.18715 0
3.14159 2.18715 0
2.74889 2.18715 0
2.94524 2.18715 0
2.74889 2.49963 0
2.94524 2.49963 0
2.94524 2.18715 0
3.14159 2.18715 0
2.94524 2.49963 0
3.14159 2.49963 0
0 2.49963 0
0.19635 2.49963 0
0 2.81211 0
0.19635 2.81211 0
0.19635 2.49963 0
0.392699 2.49963 0
0.19635 2.81211 0
0.392699 2.81211 0
0 2.81211 0
0.19635 2.81211 0
0 3.12459 0
0.19635 3.12459 0
0.19635 2.81211 0
0.392699 2.81211 0
0.19635 3.12459 0
0.392699 3.12459 0
0.392699 2.49963 0
0.589049 2.49963 0
0.392699 2.81211 0
0.589049 2.81211 0
0.589049 2.49963 0
0.785398 2.49963 0
0.589049 2.81211 0
0.785398 2.81211 0
0.392699 2.81211 0
0.589049 2.81211 0
0.392699 3.12459 0
0.589049 3.12459 0
0.589049 2.81211 0
0.785398 2.81211 0
0.589049 3.12459 0
0.785398 3.12459 0
0 3.12459 0
0.19635 3.12459 0
0 3.43706 0
0.19635 3.43706 0
0.19635 3.12459 0
0.392699 3.12459 0
0.19635 3.43706 0
0.392699 3.43706 0
0 3.43706 0
0.19635 3.43706 0
0 3.74954 0
[...]
POINT_DATA 20480
VECTORS uf double
0 1 0
-7.375e-15 1 0
0 1.00362 0
6.17329e-15 1.00362 0
-7.375e-15 1 0
-1.93748e-15 1 0
6.17329e-15 1.00362 0
3.69751e-15 1.00362 0
0 1.00362 0
1.3751e-14 1.00362 0
0 1.00578 0
-7.13378e-15 1.00578 0
1.3751e-14 1.00362 0
7.34457e-15 1.00362 0
-7.13378e-15 1.00578 0
-5.52447e-15 1.00578 0
-1.93748e-15 1 0
-3.42018e-15 1 0
3.69751e-15 1.00362 0
1.3685e-14 1.00362 0
-3.42018e-15 1 0
6.75396e-15 1 0
1.3685e-14 1.00362 0
-5.54671e-15 1.00362 0
7.34457e-15 1.00362 0
-5.01649e-15 1.00362 0
-5.52447e-15 1.00578 0
5.78754e-15 1.00578 0
-5.01649e-15 1.00362 0
9.52534e-15 1.00362 0
5.78754e-15 1.00578 0
6.95049e-15 1.00578 0
0 1.00578 0
1.71073e-15 1.00578 0
0 1.00828 0
-7.57676e-15 1.00828 0
1.71073e-15 1.00578 0
5.34733e-15 1.00578 0
-7.57676e-15 1.00828 0
-7.20316e-15 1.00828 0
0 1.00828 0
1.6288e-14 1.00828 0
0 1.01067 0
-2.67091e-14 1.01067 0
1.6288e-14 1.00828 0
5.39774e-15 1.00828 0
-2.67091e-14 1.01067 0
-1.17343e-14 1.01067 0
5.34733e-15 1.00578 0
-4.93363e-15 1.00578 0
-7.20316e-15 1.00828 0
3.17935e-15 1.00828 0
-4.93363e-15 1.00578 0
-2.17144e-14 1.00578 0
3.17935e-15 1.00828 0
2.6693e-14 1.00828 0
5.39774e-15 1.00828 0
-1.30679e-14 1.00828 0
-1.17343e-14 1.01067 0
1.22772e-14 1.01067 0
-1.30679e-14 1.00828 0
-2.14709e-14 1.00828 0
1.22772e-14 1.01067 0
1.39468e-14 1.01067 0
6.75396e-15 1 0
3.37404e-15 1 0
-5.54671e-15 1.00362 0
7.18886e-15 1.00362 0
3.37404e-15 1 0
4.8431e-15 1 0
7.18886e-15 1.00362 0
-3.32573e-15 1.00362 0
9.52534e-15 1.00362 0
-4.95115e-15 1.00362 0
6.95049e-15 1.00578 0
-5.30992e-15 1.00578 0
-4.95115e-15 1.00362 0
1.86006e-15 1.00362 0
-5.30992e-15 1.00578 0
-3.62226e-15 1.00578 0
4.8431e-15 1 0
-6.61354e-15 1 0
-3.32573e-15 1.00362 0
1.29866e-14 1.00362 0
-6.61354e-15 1 0
3.8843e-15 1 0
1.29866e-14 1.00362 0
-1.078e-14 1.00362 0
1.86006e-15 1.00362 0
-2.56505e-14 1.00362 0
-3.62226e-15 1.00578 0
5.77665e-15 1.00578 0
-2.56505e-14 1.00362 0
-4.17984e-15 1.00362 0
5.77665e-15 1.00578 0
2.197e-14 1.00578 0
-2.17144e-14 1.00578 0
-2.99129e-15 1.00578 0
2.6693e-14 1.00828 0
7.98493e-15 1.00828 0
-2.99129e-15 1.00578 0
-2.06234e-15 1.00578 0
7.98493e-15 1.00828 0
8.50444e-15 1.00828 0
-2.14709e-14 1.00828 0
-4.88353e-15 1.00828 0
1.39468e-14 1.01067 0
9.85198e-16 1.01067 0
-4.88353e-15 1.00828 0
-7.08576e-15 1.00828 0
9.85198e-16 1.01067 0
-2.83019e-15 1.01067 0
-2.06234e-15 1.00578 0
-6.40557e-15 1.00578 0
8.50444e-15 1.00828 0
1.35775e-14 1.00828 0
-6.40557e-15 1.00578 0
-2.07118e-14 1.00578 0
1.35775e-14 1.00828 0
1.49419e-14 1.00828 0
-7.08576e-15 1.00828 0
-8.5973e-15 1.00828 0
-2.83019e-15 1.01067 0
-1.62212e-15 1.01067 0
-8.5973e-15 1.00828 0
-1.16067e-14 1.00828 0
-1.62212e-15 1.01067 0
1.51242e-14 1.01067 0
0 1.01067 0
2.26785e-14 1.01067 0
0 1.01306 0
-1.27332e-14 1.01306 0
2.26785e-14 1.01067 0
9.65465e-15 1.01067 0
-1.27332e-14 1.01306 0
-6.67049e-15 1.01306 0
0 1.01306 0
9.52895e-15 1.01306 0
0 1.01542 0
-1.91207e-14 1.01542 0
9.52895e-15 1.01306 0
2.44021e-15 1.01306 0
-1.91207e-14 1.01542 0
-3.13643e-15 1.01542 0
9.65465e-15 1.01067 0
-1.08206e-14 1.01067 0
-6.67049e-15 1.01306 0
6.97894e-16 1.01306 0
-1.08206e-14 1.01067 0
-1.31204e-14 1.01067 0
6.97894e-16 1.01306 0
-8.04231e-16 1.01306 0
2.44021e-15 1.01306 0
1.79437e-15 1.01306 0
-3.13643e-15 1.01542 0
7.22337e-15 1.01542 0
1.79437e-15 1.01306 0
2.74533e-15 1.01306 0
7.22337e-15 1.01542 0
7.97995e-15 1.01542 0
0 1.01542 0
2.29548e-14 1.01542 0
0 1.01776 0
-1.58771e-14 1.01776 0
2.29548e-14 1.01542 0
1.13981e-14 1.01542 0
-1.58771e-14 1.01776 0
-1.33293e-14 1.01776 0
0 1.01776 0
7.7081e-15 1.01776 0
0 1.02008 0
-7.02377e-15 1.02008 0
7.7081e-15 1.01776 0
8.38347e-15 1.01776 0
-7.02377e-15 1.02008 0
-5.18505e-15 1.02008 0
1.13981e-14 1.01542 0
-1.12378e-15 1.01542 0
-1.33293e-14 1.01776 0
2.02008e-15 1.01776 0
-1.12378e-15 1.01542 0
-1.05891e-16 1.01542 0
2.02008e-15 1.01776 0
6.77546e-15 1.01776 0
8.38347e-15 1.01776 0
-9.89333e-15 1.01776 0
-5.18505e-15 1.02008 0
8.13489e-15 1.02008 0
-9.89333e-15 1.01776 0
-1.25804e-14 1.01776 0
8.13489e-15 1.02008 0
5.78463e-15 1.02008 0
-1.31204e-14 1.01067 0
-5.0217e-15 1.01067 0
-8.04231e-16 1.01306 0
-3.33875e-15 1.01306 0
-5.0217e-15 1.01067 0
1.45929e-15 1.01067 0
-3.33875e-15 1.01306 0
6.71668e-15 1.01306 0
2.74533e-15 1.01306 0
5.69524e-15 1.01306 0
7.97995e-15 1.01542 0
-2.87646e-15 1.01542 0
5.69524e-15 1.01306 0
-7.55e-16 1.01306 0
-2.87646e-15 1.01542 0
-4.75929e-15 1.01542 0
1.45929e-15 1.01067 0
9.23876e-15 1.01067 0
6.71668e-15 1.01306 0
3.13361e-15 1.01306 0
9.23876e-15 1.01067 0
-6.18104e-15 1.01067 0
3.13361e-15 1.01306 0
1.49337e-14 1.01306 0
-7.55e-16 1.01306 0
-7.08217e-15 1.01306 0
-4.75929e-15 1.01542 0
5.61965e-15 1.01542 0
-7.08217e-15 1.01306 0
-1.44877e-14 1.01306 0
5.61965e-15 1.01542 0
7.40711e-15 1.01542 0
-1.05891e-16 1.01542 0
2.03219e-15 1.01542 0
6.77546e-15 1.01776 0
1.36471e-14 1.01776 0
2.03219e-15 1.01542 0
-9.53629e-16 1.01542 0
1.36471e-14 1.01776 0
6.72013e-15 1.01776 0
-1.25804e-14 1.01776 0
-1.70712e-14 1.01776 0
5.78463e-15 1.02008 0
1.06624e-14 1.02008 0
-1.70712e-14 1.01776 0
-8.13486e-15 1.01776 0
1.06624e-14 1.02008 0
1.57006e-14 1.02008 0
-9.53629e-16 1.01542 0
-2.82009e-15 1.01542 0
6.72013e-15 1.01776 0
3.75525e-15 1.01776 0
-2.82009e-15 1.01542 0
-1.04387e-14 1.01542 0
3.75525e-15 1.01776 0
1.43191e-14 1.01776 0
-8.13486e-15 1.01776 0
-9.89275e-15 1.01776 0
1.57006e-14 1.02008 0
1.15144e-14 1.02008 0
-9.89275e-15 1.01776 0
-1.01333e-14 1.01776 0
1.15144e-14 1.02008 0
1.04827e-14 1.02008 0
3.8843e-15 1 0
-6.6776e-16 1 0
-1.078e-14 1.00362 0
2.45866e-15 1.00362 0
-6.6776e-16 1 0
-6.43695e-15 1 0
2.45866e-15 1.00362 0
3.86796e-15 1.00362 0
-4.17984e-15 1.00362 0
-1.44783e-14 1.00362 0
2.197e-14 1.00578 0
2.55068e-14 1.00578 0
-1.44783e-14 1.00362 0
-1.23003e-15 1.00362 0
2.55068e-14 1.00578 0
1.57062e-14 1.00578 0
-6.43695e-15 1 0
-1.19877e-14 1 0
3.86796e-15 1.00362 0
1.87152e-14 1.00362 0
-1.19877e-14 1 0
2.08757e-15 1 0
1.87152e-14 1.00362 0
5.47108e-15 1.00362 0
-1.23003e-15 1.00362 0
-1.16429e-14 1.00362 0
1.57062e-14 1.00578 0
1.88895e-14 1.00578 0
-1.16429e-14 1.00362 0
-8.72252e-15 1.00362 0
1.88895e-14 1.00578 0
2.18893e-14 1.00578 0
-2.07118e-14 1.00578 0
-1.35948e-14 1.00578 0
1.49419e-14 1.00828 0
1.08064e-14 1.00828 0
-1.35948e-14 1.00578 0
-1.70669e-14 1.00578 0
1.08064e-14 1.00828 0
1.31189e-14 1.00828 0
-1.16067e-14 1.00828 0
-1.31068e-14 1.00828 0
1.51242e-14 1.01067 0
1.20394e-14 1.01067 0
-1.31068e-14 1.00828 0
-2.84098e-15 1.00828 0
1.20394e-14 1.01067 0
5.40959e-15 1.01067 0
-1.70669e-14 1.00578 0
-1.04855e-14 1.00578 0
1.31189e-14 1.00828 0
8.99466e-15 1.00828 0
-1.04855e-14 1.00578 0
-2.1801e-14 1.00578 0
8.99466e-15 1.00828 0
1.65121e-14 1.00828 0
-2.84098e-15 1.00828 0
-9.75167e-15 1.00828 0
5.40959e-15 1.01067 0
5.37012e-15 1.01067 0
-9.75167e-15 1.00828 0
-4.00596e-15 1.00828 0
5.37012e-15 1.01067 0
-1.63344e-15 1.01067 0
2.08757e-15 1 0
5.47614e-15 1 0
5.47108e-15 1.00362 0
1.80736e-15 1.00362 0
5.47614e-15 1 0
-8.77708e-15 1 0
1.80736e-15 1.00362 0
1.36042e-14 1.00362 0
-8.72252e-15 1.00362 0
-7.681e-15 1.00362 0
2.18893e-14 1.00578 0
6.55635e-15 1.00578 0
-7.681e-15 1.00362 0
-8.54401e-15 1.00362 0
6.55635e-15 1.00578 0
1.32514e-14 1.00578 0
-8.77708e-15 1 0
-8.76041e-15 1 0
1.36042e-14 1.00362 0
1.82914e-14 1.00362 0
-8.76041e-15 1 0
-1.16386e-14 1 0
1.82914e-14 1.00362 0
3.32406e-14 1.00362 0
-8.54401e-15 1.00362 0
-1.79417e-14 1.00362 0
1.32514e-14 1.00578 0
2.82184e-14 1.00578 0
-1.79417e-14 1.00362 0
-2.61706e-14 1.00362 0
2.82184e-14 1.00578 0
2.27517e-14 1.00578 0
-2.1801e-14 1.00578 0
-1.86053e-15 1.00578 0
1.65121e-14 1.00828 0
9.17664e-15 1.00828 0
-1.86053e-15 1.00578 0
-1.30331e-14 1.00578 0
9.17664e-15 1.00828 0
1.15345e-14 1.00828 0
-4.00596e-15 1.00828 0
1.3082e-16 1.00828 0
-1.63344e-15 1.01067 0
5.82989e-15 1.01067 0
1.3082e-16 1.00828 0
5.0473e-16 1.00828 0
5.82989e-15 1.01067 0
7.51132e-15 1.01067 0
-1.30331e-14 1.00578 0
-1.6125e-14 1.00578 0
1.15345e-14 1.00828 0
2.95425e-15 1.00828 0
-1.6125e-14 1.00578 0
-1.9037e-14 1.00578 0
2.95425e-15 1.00828 0
9.7351e-15 1.00828 0
5.0473e-16 1.00828 0
-7.88909e-15 1.00828 0
7.51132e-15 1.01067 0
1.90462e-14 1.01067 0
-7.88909e-15 1.00828 0
-4.64569e-15 1.00828 0
1.90462e-14 1.01067 0
1.40635e-14 1.01067 0
-6.18104e-15 1.01067 0
4.95956e-16 1.01067 0
1.49337e-14 1.01306 0
7.55091e-15 1.01306 0
4.95956e-16 1.01067 0
-1.2304e-16 1.01067 0
7.55091e-15 1.01306 0
1.38159e-14 1.01306 0
-1.44877e-14 1.01306 0
-7.36774e-15 1.01306 0
7.40711e-15 1.01542 0
-3.58385e-15 1.01542 0
-7.36774e-15 1.01306 0
-1.88992e-14 1.01306 0
-3.58385e-15 1.01542 0
6.94023e-15 1.01542 0
-1.2304e-16 1.01067 0
-2.22764e-15 1.01067 0
1.38159e-14 1.01306 0
1.35054e-14 1.01306 0
-2.22764e-15 1.01067 0
4.19435e-15 1.01067 0
1.35054e-14 1.01306 0
-4.19291e-15 1.01306 0
-1.88992e-14 1.01306 0
-1.18646e-14 1.01306 0
6.94023e-15 1.01542 0
3.05838e-15 1.01542 0
-1.18646e-14 1.01306 0
1.02463e-14 1.01306 0
3.05838e-15 1.01542 0
-2.00125e-15 1.01542 0
-1.04387e-14 1.01542 0
2.81276e-15 1.01542 0
1.43191e-14 1.01776 0
6.08516e-15 1.01776 0
2.81276e-15 1.01542 0
-8.34766e-16 1.01542 0
6.08516e-15 1.01776 0
8.73682e-15 1.01776 0
-1.01333e-14 1.01776 0
-6.32195e-15 1.01776 0
1.04827e-14 1.02008 0
1.27895e-14 1.02008 0
-6.32195e-15 1.01776 0
-1.04386e-14 1.01776 0
1.27895e-14 1.02008 0
1.60816e-14 1.02008 0
-8.34766e-16 1.01542 0
5.20036e-16 1.01542 0
8.73682e-15 1.01776 0
7.72323e-15 1.01776 0
5.20036e-16 1.01542 0
-6.69427e-15 1.01542 0
7.72323e-15 1.01776 0
8.98781e-15 1.01776 0
-1.04386e-14 1.01776 0
-1.0081e-14 1.01776 0
1.60816e-14 1.02008 0
1.68514e-14 1.02008 0
-1.0081e-14 1.01776 0
-8.14897e-15 1.01776 0
1.68514e-14 1.02008 0
1.34009e-14 1.02008 0
4.19435e-15 1.01067 0
-6.92836e-15 1.01067 0
-4.19291e-15 1.01306 0
4.30186e-15 1.01306 0
-6.92836e-15 1.01067 0
4.25125e-15 1.01067 0
4.30186e-15 1.01306 0
-2.76672e-16 1.01306 0
1.02463e-14 1.01306 0
5.92744e-15 1.01306 0
-2.00125e-15 1.01542 0
-3.44261e-15 1.01542 0
5.92744e-15 1.01306 0
3.4885e-15 1.01306 0
-3.44261e-15 1.01542 0
-2.8624e-15 1.01542 0
4.25125e-15 1.01067 0
-1.48421e-15 1.01067 0
-2.76672e-16 1.01306 0
7.6495e-15 1.01306 0
-1.48421e-15 1.01067 0
-2.38206e-15 1.01067 0
7.6495e-15 1.01306 0
8.79403e-15 1.01306 0
3.4885e-15 1.01306 0
-9.55963e-15 1.01306 0
-2.8624e-15 1.01542 0
6.18339e-15 1.01542 0
-9.55963e-15 1.01306 0
1.00942e-15 1.01306 0
6.18339e-15 1.01542 0
1.9727e-15 1.01542 0
-6.69427e-15 1.01542 0
1.72891e-15 1.01542 0
8.98781e-15 1.01776 0
-3.03205e-15 1.01776 0
1.72891e-15 1.01542 0
-2.7308e-15 1.01542 0
-3.03205e-15 1.01776 0
7.90975e-15 1.01776 0
-8.14897e-15 1.01776 0
-7.46207e-15 1.01776 0
1.34009e-14 1.02008 0
1.05791e-14 1.02008 0
-7.46207e-15 1.01776 0
-7.77002e-15 1.01776 0
1.05791e-14 1.02008 0
-2.63964e-15 1.02008 0
-2.7308e-15 1.01542 0
-2.25804e-15 1.01542 0
7.90975e-15 1.01776 0
1.28558e-14 1.01776 0
-2.25804e-15 1.01542 0
-6.67705e-15 1.01542 0
1.28558e-14 1.01776 0
1.01372e-14 1.01776 0
-7.77002e-15 1.01776 0
-8.46497e-15 1.01776 0
-2.63964e-15 1.02008 0
5.47161e-15 1.02008 0
-8.46497e-15 1.01776 0
2.70491e-15 1.01776 0
5.47161e-15 1.02008 0
-6.3252e-16 1.02008 0
0 1.02008 0
6.99592e-15 1.02008 0
0 1.02237 0
-4.83484e-15 1.02237 0
6.99592e-15 1.02008 0
1.50621e-14 1.02008 0
-4.83484e-15 1.02237 0
-2.07898e-14 1.02237 0
0 1.02237 0
4.65551e-15 1.02237 0
0 1.02465 0
-8.01988e-15 1.02465 0
4.65551e-15 1.02237 0
1.11107e-14 1.02237 0
-8.01988e-15 1.02465 0
-3.73138e-16 1.02465 0
1.50621e-14 1.02008 0
-1.12747e-14 1.02008 0
-2.07898e-14 1.02237 0
5.8666e-15 1.02237 0
-1.12747e-14 1.02008 0
-1.31672e-14 1.02008 0
5.8666e-15 1.02237 0
8.99562e-15 1.02237 0
1.11107e-14 1.02237 0
1.98791e-15 1.02237 0
-3.73138e-16 1.02465 0
1.34964e-14 1.02465 0
1.98791e-15 1.02237 0
6.32613e-16 1.02237 0
1.34964e-14 1.02465 0
1.43201e-14 1.02465 0
0 1.02465 0
5.22482e-15 1.02465 0
0 1.0269 0
2.94396e-15 1.0269 0
5.22482e-15 1.02465 0
9.00717e-15 1.02465 0
2.94396e-15 1.0269 0
-1.44967e-14 1.0269 0
0 1.0269 0
-8.68738e-16 1.0269 0
0 1.02914 0
-6.04524e-15 1.02914 0
-8.68738e-16 1.0269 0
1.0114e-14 1.0269 0
-6.04524e-15 1.02914 0
-1.59038e-15 1.02914 0
9.00717e-15 1.02465 0
-9.80586e-15 1.02465 0
-1.44967e-14 1.0269 0
-2.7339e-15 1.0269 0
-9.80586e-15 1.02465 0
-6.05226e-15 1.02465 0
-2.7339e-15 1.0269 0
5.15361e-15 1.0269 0
1.0114e-14 1.0269 0
2.03171e-15 1.0269 0
-1.59038e-15 1.02914 0
-1.03839e-15 1.02914 0
2.03171e-15 1.0269 0
-1.47823e-14 1.0269 0
-1.03839e-15 1.02914 0
1.52134e-14 1.02914 0
-1.31672e-14 1.02008 0
-1.08692e-14 1.02008 0
8.99562e-15 1.02237 0
1.36899e-14 1.02237 0
-1.08692e-14 1.02008 0
-2.09233e-14 1.02008 0
1.36899e-14 1.02237 0
1.85561e-14 1.02237 0
6.32613e-16 1.02237 0
-8.37561e-15 1.02237 0
1.43201e-14 1.02465 0
1.71166e-14 1.02465 0
-8.37561e-15 1.02237 0
-1.79286e-14 1.02237 0
1.71166e-14 1.02465 0
3.05341e-14 1.02465 0
-2.09233e-14 1.02008 0
-4.10249e-15 1.02008 0
1.85561e-14 1.02237 0
1.08826e-15 1.02237 0
-4.10249e-15 1.02008 0
-1.13067e-14 1.02008 0
1.08826e-15 1.02237 0
9.24011e-15 1.02237 0
-1.79286e-14 1.02237 0
5.08185e-15 1.02237 0
3.05341e-14 1.02465 0
-2.10385e-15 1.02465 0
5.08185e-15 1.02237 0
-8.14194e-15 1.02237 0
-2.10385e-15 1.02465 0
1.21776e-14 1.02465 0
-6.05226e-15 1.02465 0
-4.45896e-15 1.02465 0
5.15361e-15 1.0269 0
-7.50865e-15 1.0269 0
-4.45896e-15 1.02465 0
-3.22703e-14 1.02465 0
-7.50865e-15 1.0269 0
2.27133e-14 1.0269 0
-1.47823e-14 1.0269 0
1.21267e-16 1.0269 0
1.52134e-14 1.02914 0
4.07249e-15 1.02914 0
1.21267e-16 1.0269 0
-1.52778e-14 1.0269 0
4.07249e-15 1.02914 0
1.19173e-14 1.02914 0
-3.22703e-14 1.02465 0
-2.92344e-15 1.02465 0
2.27133e-14 1.0269 0
3.27288e-15 1.0269 0
-2.92344e-15 1.02465 0
-1.09817e-14 1.02465 0
3.27288e-15 1.0269 0
7.26192e-15 1.0269 0
-1.52778e-14 1.0269 0
-8.64545e-16 1.0269 0
1.19173e-14 1.02914 0
9.62126e-15 1.02914 0
-8.64545e-16 1.0269 0
-1.40601e-16 1.0269 0
9.62126e-15 1.02914 0
9.93691e-15 1.02914 0
0 1.02914 0
1.21432e-14 1.02914 0
0 1.03135 0
-1.66767e-14 1.03135 0
1.21432e-14 1.02914 0
-3.5499e-15 1.02914 0
-1.66767e-14 1.03135 0
2.71793e-15 1.03135 0
0 1.03135 0
2.19457e-14 1.03135 0
0 1.03356 0
-1.51209e-14 1.03356 0
2.19457e-14 1.03135 0
2.46889e-15 1.03135 0
-1.51209e-14 1.03356 0
-5.37663e-15 1.03356 0
-3.5499e-15 1.02914 0
1.07131e-15 1.02914 0
2.71793e-15 1.03135 0
9.50223e-15 1.03135 0
1.07131e-15 1.02914 0
-1.20311e-14 1.02914 0
9.50223e-15 1.03135 0
7.77949e-15 1.03135 0
2.46889e-15 1.03135 0
-1.19176e-14 1.03135 0
-5.37663e-15 1.03356 0
7.96727e-15 1.03356 0
-1.19176e-14 1.03135 0
-1.03105e-14 1.03135 0
7.96727e-15 1.03356 0
1.51928e-14 1.03356 0
0 1.03356 0
1.5889e-14 1.03356 0
0 1.03574 0
-1.97206e-14 1.03574 0
1.5889e-14 1.03356 0
5.06446e-16 1.03356 0
-1.97206e-14 1.03574 0
5.05234e-15 1.03574 0
0 1.03574 0
5.98877e-15 1.03574 0
0 1.03792 0
-4.17588e-15 1.03792 0
5.98877e-15 1.03574 0
2.53048e-15 1.03574 0
-4.17588e-15 1.03792 0
-5.25723e-15 1.03792 0
5.06446e-16 1.03356 0
-1.92215e-15 1.03356 0
5.05234e-15 1.03574 0
-1.23568e-15 1.03574 0
-1.92215e-15 1.03356 0
-1.29133e-14 1.03356 0
-1.23568e-15 1.03574 0
1.27363e-14 1.03574 0
2.53048e-15 1.03574 0
4.42406e-15 1.03574 0
-5.25723e-15 1.03792 0
-1.11398e-15 1.03792 0
4.42406e-15 1.03574 0
-3.20736e-15 1.03574 0
-1.11398e-15 1.03792 0
-4.37336e-15 1.03792 0
-1.20311e-14 1.02914 0
-1.33228e-15 1.02914 0
7.77949e-15 1.03135 0
1.7412e-14 1.03135 0
-1.33228e-15 1.02914 0
3.42675e-16 1.02914 0
1.7412e-14 1.03135 0
7.62168e-15 1.03135 0
-1.03105e-14 1.03135 0
-1.12727e-14 1.03135 0
1.51928e-14 1.03356 0
-3.71184e-15 1.03356 0
-1.12727e-14 1.03135 0
-1.32807e-14 1.03135 0
-3.71184e-15 1.03356 0
1.27737e-14 1.03356 0
3.42675e-16 1.02914 0
-1.30411e-14 1.02914 0
7.62168e-15 1.03135 0
9.96358e-15 1.03135 0
-1.30411e-14 1.02914 0
-4.21881e-15 1.02914 0
9.96358e-15 1.03135 0
-8.59402e-17 1.03135 0
-1.32807e-14 1.03135 0
2.45622e-15 1.03135 0
1.27737e-14 1.03356 0
-4.73614e-15 1.03356 0
2.45622e-15 1.03135 0
-7.12198e-15 1.03135 0
-4.73614e-15 1.03356 0
1.53878e-14 1.03356 0
-1.29133e-14 1.03356 0
7.53203e-15 1.03356 0
1.27363e-14 1.03574 0
-3.955e-15 1.03574 0
7.53203e-15 1.03356 0
-7.7628e-15 1.03356 0
-3.955e-15 1.03574 0
4.70085e-15 1.03574 0
-3.20736e-15 1.03574 0
2.01537e-16 1.03574 0
-4.37336e-15 1.03792 0
5.41291e-15 1.03792 0
2.01537e-16 1.03574 0
-2.15727e-16 1.03574 0
5.41291e-15 1.03792 0
2.14078e-15 1.03792 0
-7.7628e-15 1.03356 0
3.20424e-15 1.03356 0
4.70085e-15 1.03574 0
1.36267e-15 1.03574 0
3.20424e-15 1.03356 0
-2.04782e-14 1.03356 0
1.36267e-15 1.03574 0
1.15468e-14 1.03574 0
-2.15727e-16 1.03574 0
-5.09519e-15 1.03574 0
2.14078e-15 1.03792 0
5.8708e-15 1.03792 0
-5.09519e-15 1.03574 0
-9.13326e-15 1.03574 0
5.8708e-15 1.03792 0
1.58073e-14 1.03792 0
-1.13067e-14 1.02008 0
-1.63797e-14 1.02008 0
9.24011e-15 1.02237 0
9.75767e-15 1.02237 0
-1.63797e-14 1.02008 0
-1.63458e-14 1.02008 0
9.75767e-15 1.02237 0
5.37434e-15 1.02237 0
-8.14194e-15 1.02237 0
-3.71255e-15 1.02237 0
1.21776e-14 1.02465 0
1.29037e-14 1.02465 0
-3.71255e-15 1.02237 0
-3.53206e-15 1.02237 0
1.29037e-14 1.02465 0
1.13962e-14 1.02465 0
-1.63458e-14 1.02008 0
-1.65649e-14 1.02008 0
5.37434e-15 1.02237 0
1.1506e-14 1.02237 0
-1.65649e-14 1.02008 0
-1.3308e-14 1.02008 0
1.1506e-14 1.02237 0
1.01617e-14 1.02237 0
-3.53206e-15 1.02237 0
-6.19193e-15 1.02237 0
1.13962e-14 1.02465 0
1.33854e-14 1.02465 0
-6.19193e-15 1.02237 0
-4.99526e-15 1.02237 0
1.33854e-14 1.02465 0
1.12949e-14 1.02465 0
-1.09817e-14 1.02465 0
-1.74861e-14 1.02465 0
7.26192e-15 1.0269 0
1.83632e-14 1.0269 0
-1.74861e-14 1.02465 0
-3.04771e-15 1.02465 0
1.83632e-14 1.0269 0
1.41694e-14 1.0269 0
-1.40601e-16 1.0269 0
4.97773e-16 1.0269 0
9.93691e-15 1.02914 0
2.95931e-16 1.02914 0
4.97773e-16 1.0269 0
-7.60503e-15 1.0269 0
2.95931e-16 1.02914 0
3.22984e-15 1.02914 0
-3.04771e-15 1.02465 0
-5.44378e-15 1.02465 0
1.41694e-14 1.0269 0
4.12501e-15 1.0269 0
-5.44378e-15 1.02465 0
-1.05904e-14 1.02465 0
4.12501e-15 1.0269 0
1.94486e-14 1.0269 0
-7.60503e-15 1.0269 0
-4.54002e-15 1.0269 0
3.22984e-15 1.02914 0
5.52463e-15 1.02914 0
-4.54002e-15 1.0269 0
-1.04622e-14 1.0269 0
5.52463e-15 1.02914 0
4.64119e-15 1.02914 0
-1.3308e-14 1.02008 0
-1.12282e-15 1.02008 0
1.01617e-14 1.02237 0
-2.65223e-15 1.02237 0
-1.12282e-15 1.02008 0
5.65358e-15 1.02008 0
-2.65223e-15 1.02237 0
4.21293e-15 1.02237 0
-4.99526e-15 1.02237 0
9.37181e-15 1.02237 0
1.12949e-14 1.02465 0
1.46718e-15 1.02465 0
9.37181e-15 1.02237 0
-1.74591e-15 1.02237 0
1.46718e-15 1.02465 0
8.73616e-15 1.02465 0
5.65358e-15 1.02008 0
-1.05076e-14 1.02008 0
4.21293e-15 1.02237 0
1.21516e-14 1.02237 0
-1.05076e-14 1.02008 0
-1.53306e-15 1.02008 0
1.21516e-14 1.02237 0
-3.90407e-15 1.02237 0
-1.74591e-15 1.02237 0
-2.75102e-15 1.02237 0
8.73616e-15 1.02465 0
8.73685e-15 1.02465 0
-2.75102e-15 1.02237 0
8.40578e-15 1.02237 0
8.73685e-15 1.02465 0
9.8421e-15 1.02465 0
-1.05904e-14 1.02465 0
-6.97686e-15 1.02465 0
1.94486e-14 1.0269 0
1.76478e-14 1.0269 0
-6.97686e-15 1.02465 0
-8.20236e-15 1.02465 0
1.76478e-14 1.0269 0
1.31629e-14 1.0269 0
-1.04622e-14 1.0269 0
-9.77542e-15 1.0269 0
4.64119e-15 1.02914 0
3.77923e-15 1.02914 0
-9.77542e-15 1.0269 0
-1.22458e-15 1.0269 0
3.77923e-15 1.02914 0
1.07701e-15 1.02914 0
-8.20236e-15 1.02465 0
-4.8018e-15 1.02465 0
1.31629e-14 1.0269 0
6.03151e-15 1.0269 0
-4.8018e-15 1.02465 0
-1.63865e-14 1.02465 0
6.03151e-15 1.0269 0
1.39542e-14 1.0269 0
-1.22458e-15 1.0269 0
5.0567e-16 1.0269 0
1.07701e-15 1.02914 0
1.28249e-14 1.02914 0
5.0567e-16 1.0269 0
4.49327e-15 1.0269 0
1.28249e-14 1.02914 0
-2.33528e-15 1.02914 0
-4.21881e-15 1.02914 0
-5.09327e-15 1.02914 0
-8.59402e-17 1.03135 0
3.27013e-15 1.03135 0
-5.09327e-15 1.02914 0
-4.92105e-15 1.02914 0
3.27013e-15 1.03135 0
6.56739e-15 1.03135 0
-7.12198e-15 1.03135 0
-2.49702e-15 1.03135 0
1.53878e-14 1.03356 0
4.90774e-16 1.03356 0
-2.49702e-15 1.03135 0
-1.68267e-14 1.03135 0
4.90774e-16 1.03356 0
9.05976e-15 1.03356 0
-4.92105e-15 1.02914 0
-8.67431e-15 1.02914 0
6.56739e-15 1.03135 0
1.01355e-14 1.03135 0
-8.67431e-15 1.02914 0
-8.90419e-15 1.02914 0