# vtk DataFile Version 3.0
#This file was generated by the deal.II library on 2018/10/14 at 18:48:53
ASCII
DATASET UNSTRUCTURED_GRID

POINTS 20480 double
0 0 0
0.19635 0 0
0 0.310898 0
0.19635 0.310898 0
0.19635 0 0
0.392699 0 0
0.19635 0.310898 0
0.392699 0.310898 0
0 0.310898 0
0.19635 0.310898 0
0 0.623451 0
0.19635 0.623451 0
0.19635 0.310898 0
0.392699 0.310898 0
0.19635 0.623451 0
0.392699 0.623451 0
0.392699 0 0
0.589049 0 0
0.392699 0.310898 0
0.589049 0.310898 0
0.589049 0 0
0.785398 0 0
0.589049 0.310898 0
0.785398 0.310898 0
0.392699 0.310898 0
0.589049 0.310898 0
0.392699 0.623451 0
0.589049 0.623451 0
0.589049 0.310898 0
0.785398 0.310898 0
0.589049 0.623451 0
0.785398 0.623451 0
0 0.623451 0
0.19635 0.623451 0
0 0.935937 0
0.19635 0.935937 0
0.19635 0.623451 0
0.392699 0.623451 0
0.19635 0.935937 0
0.392699 0.935937 0
0 0.935937 0
0.19635 0.935937 0
0 1.24847 0
0.19635 1.24847 0
0.19635 0.935937 0
0.392699 0.935937 0
0.19635 1.24847 0
0.392699 1.24847 0
0.392699 0.623451 0
0.589049 0.623451 0
0.392699 0.935937 0
0.589049 0.935937 0
0.589049 0.623451 0
0.785398 0.623451 0
0.589049 0.935937 0
0.785398 0.935937 0
0.392699 0.935937 0
0.589049 0.935937 0
0.392699 1.24847 0
0.589049 1.24847 0
0.589049 0.935937 0
0.785398 0.935937 0
0.589049 1.24847 0
0.785398 1.24847 0
0.785398 0 0
0.981748 0 0
0.785398 0.310898 0
0.981748 0.310898 0
0.981748 0 0
1.1781 0 0
0.981748 0.310898 0
1.1781 0.310898 0
0.785398 0.310898 0
0.981748 0.310898 0
0.785398 0.623451 0
0.981748 0.623451 0
0.981748 0.310898 0
1.1781 0.310898 0
0.981748 0.623451 0
1.1781 0.623451 0
1.1781 0 0
1.37445 0 0
1.1781 0.310898 0
1.37445 0.310898 0
1.37445 0 0
1.5708 0 0
1.37445 0.310898 0
1.5708 0.310898 0
1.1781 0.310898 0
1.37445 0.310898 0
1.1781 0.623451 0
1.37445 0.623451 0
1.37445 0.310898 0
1.5708 0.310898 0
1.37445 0.623451 0
1.5708 0.623451 0
0.785398 0.623451 0
0.981748 0.623451 0
0.785398 0.935937 0
0.981748 0.935937 0
0.981748 0.623451 0
1.1781 0.623451 0
0.981748 0.935937 0
1.1781 0.935937 0
0.785398 0.935937 0
0.981748 0.935937 0
0.785398 1.24847 0
0.981748 1.24847 0
0.981748 0.935937 0
1.1781 0.935937 0
0.981748 1.24847 0
1.1781 1.24847 0
1.1781 0.623451 0
1.37445 0.623451 0
1.1781 0.935937 0
1.37445 0.935937 0
1.37445 0.623451 0
1.5708 0.623451 0
1.37445 0.935937 0
1.5708 0.935937 0
1.1781 0.935937 0
1.37445 0.935937 0
1.1781 1.24847 0
1.37445 1.24847 0
1.37445 0.935937 0
1.5708 0.935937 0
1.37445 1.24847 0
1.5708 1.24847 0
0 1.24847 0
0.19635 1.24847 0
0 1.56099 0
0.19635 1.56099 0
0.19635 1.24847 0
0.392699 1.24847 0
0.19635 1.56099 0
0.392699 1.56099 0
0 1.56099 0
0.19635 1.56099 0
0 1.87351 0
0.19635 1.87351 0
0.19635 1.56099 0
0.392699 1.56099 0
0.19635 1.87351 0
0.392699 1.87351 0
0.392699 1.24847 0
0.589049 1.24847 0
0.392699 1.56099 0
0.589049 1.56099 0
0.589049 1.24847 0
0.785398 1.24847 0
0.589049 1.56099 0
0.785398 1.56099 0
0.392699 1.56099 0
0.589049 1.56099 0
0.392699 1.87351 0
0.589049 1.87351 0
0.589049 1.56099 0
0.785398 1.56099 0
0.589049 1.87351 0
0.785398 1.87351 0
0 1.87351 0
0.19635 1.87351 0
0 2.18602 0
0.19635 2.18602 0
0.19635 1.87351 0
0.392699 1.87351 0
0.19635 2.18602 0
0.392699 2.18602 0
0 2.18602 0
0.19635 2.18602 0
0 2.49853 0
0.19635 2.49853 0
0.19635 2.18602 0
0.392699 2.18602 0
0.19635 2.49853 0
0.392699 2.49853 0
0.392699 1.87351 0
0.589049 1.87351 0
0.392699 2.18602 0
0.589049 2.18602 0
0.589049 1.87351 0
0.785398 1.87351 0
0.589049 2.18602 0
0.785398 2.18602 0
0.392699 2.18602 0
0.589049 2.18602 0
0.392699 2.49853 0
0.589049 2.49853 0
0.589049 2.18602 0
0.785398 2.18602 0
0.589049 2.49853 0
0.785398 2.49853 0
0.785398 1.24847 0
0.981748 1.24847 0
0.785398 1.56099 0
0.981748 1.56099 0
0.981748 1.24847 0
1.1781 1.24847 0
0.981748 1.56099 0
1.1781 1.56099 0
0.785398 1.56099 0
0.981748 1.56099 0
0.785398 1.87351 0
0.981748 1.87351 0
0.981748 1.56099 0
1.1781 1.56099 0
0.981748 1.87351 0
1.1781 1.87351 0
1.1781 1.24847 0
1.37445 1.24847 0
1.1781 1.56099 0
1.37445 1.56099 0
1.37445 1.24847 0
1.5708 1.24847 0
1.37445 1.56099 0
1.5708 1.56099 0
1.1781 1.56099 0
1.37445 1.56099 0
1.1781 1.87351 0
1.37445 1.87351 0
1.37445 1.56099 0
1.5708 1.56099 0
1.37445 1.87351 0
1.5708 1.87351 0
0.785398 1.87351 0
0.981748 1.87351 0
0.785398 2.18602 0
0.981748 2.18602 0
0.981748 1.87351 0
1.1781 1.87351 0
0.981748 2.18602 0
1.1781 2.18602 0
0.785398 2.18602 0
0.981748 2.18602 0
0.785398 2.49853 0
0.981748 2.49853 0
0.981748 2.18602 0
1.1781 2.18602 0
0.981748 2.49853 0
1.1781 2.49853 0
1.1781 1.87351 0
1.37445 1.87351 0
1.1781 2.18602 0
1.37445 2.18602 0
1.37445 1.87351 0
1.5708 1.87351 0
1.37445 2.18602 0
1.5708 2.18602 0
1.1781 2.18602 0
1.37445 2.18602 0
1.1781 2.49853 0
1.37445 2.49853 0
1.37445 2.18602 0
1.5708 2.18602 0
1.37445 2.49853 0
1.5708 2.49853 0
1.5708 0 0
1.76715 0 0
1.5708 0.310898 0
1.76715 0.310898 0
1.76715 0 0
1.9635 0 0
1.76715 0.310898 0
1.9635 0.310898 0
1.5708 0.310898 0
1.76715 0.310898 0
1.5708 0.623451 0
1.76715 0.623451 0
1.76715 0.310898 0
1.9635 0.310898 0
1.76715 0.623451 0
1.9635 0.623451 0
1.9635 0 0
2.15984 0 0
1.9635 0.310898 0
2.15984 0.310898 0
2.15984 0 0
2.35619 0 0
2.15984 0.310898 0
2.35619 0.310898 0
1.9635 0.310898 0
2.15984 0.310898 0
1.9635 0.623451 0
2.15984 0.623451 0
2.15984 0.310898 0
2.35619 0.310898 0
2.15984 0.623451 0
2.35619 0.623451 0
1.5708 0.623451 0
1.76715 0.623451 0
1.5708 0.935937 0
1.76715 0.935937 0
1.76715 0.623451 0
1.9635 0.623451 0
1.76715 0.935937 0
1.9635 0.935937 0
1.5708 0.935937 0
1.76715 0.935937 0
1.5708 1.24847 0
1.76715 1.24847 0
1.76715 0.935937 0
1.9635 0.935937 0
1.76715 1.24847 0
1.9635 1.24847 0
1.9635 0.623451 0
2.15984 0.623451 0
1.9635 0.935937 0
2.15984 0.935937 0
2.15984 0.623451 0
2.35619 0.623451 0
2.15984 0.935937 0
2.35619 0.935937 0
1.9635 0.935937 0
2.15984 0.935937 0
1.9635 1.24847 0
2.15984 1.24847 0
2.15984 0.935937 0
2.35619 0.935937 0
2.15984 1.24847 0
2.35619 1.24847 0
2.35619 0 0
2.55254 0 0
2.35619 0.310898 0
2.55254 0.310898 0
2.55254 0 0
2.74889 0 0
2.55254 0.310898 0
2.74889 0.310898 0
2.35619 0.310898 0
2.55254 0.310898 0
2.35619 0.623451 0
2.55254 0.623451 0
2.55254 0.310898 0
2.74889 0.310898 0
2.55254 0.623451 0
2.74889 0.623451 0
2.74889 0 0
2.94524 0 0
2.74889 0.310898 0
2.94524 0.310898 0
2.94524 0 0
3.14159 0 0
2.94524 0.310898 0
3.14159 0.310898 0
2.74889 0.310898 0
2.94524 0.310898 0
2.74889 0.623451 0
2.94524 0.623451 0
2.94524 0.310898 0
3.14159 0.310898 0
2.94524 0.623451 0
3.14159 0.623451 0
2.35619 0.623451 0
2.55254 0.623451 0
2.35619 0.935937 0
2.55254 0.935937 0
2.55254 0.623451 0
2.74889 0.623451 0
2.55254 0.935937 0
2.74889 0.935937 0
2.35619 0.935937 0
2.55254 0.935937 0
2.35619 1.24847 0
2.55254 1.24847 0
2.55254 0.935937 0
2.74889 0.935937 0
2.55254 1.24847 0
2.74889 1.24847 0
2.74889 0.623451 0
2.94524 0.623451 0
2.74889 0.935937 0
2.94524 0.935937 0
2.94524 0.623451 0
3.14159 0.623451 0
2.94524 0.935937 0
3.14159 0.935937 0
2.74889 0.935937 0
2.94524 0.935937 0
2.74889 1.24847 0
2.94524 1.24847 0
2.94524 0.935937 0
3.14159 0.935937 0
2.94524 1.24847 0
3.14159 1.24847 0
1.5708 1.24847 0
1.76715 1.24847 0
1.5708 1.56099 0
1.76715 1.56099 0
1.76715 1.24847 0
1.9635 1.24847 0
1.76715 1.56099 0
1.9635 1.56099 0
1.5708 1.56099 0
1.76715 1.56099 0
1.5708 1.87351 0
1.76715 1.87351 0
1.76715 1.56099 0
1.9635 1.56099 0
1.76715 1.87351 0
1.9635 1.87351 0
1.9635 1.24847 0
2.15984 1.24847 0
1.9635 1.56099 0
2.15984 1.56099 0
2.15984 1.24847 0
2.35619 1.24847 0
2.15984 1.56099 0
2.35619 1.56099 0
1.9635 1.56099 0
2.15984 1.56099 0
1.9635 1.87351 0
2.15984 1.87351 0
2.15984 1.56099 0
2.35619 1.56099 0
2.15984 1.87351 0
2.35619 1.87351 0
1.5708 1.87351 0
1.76715 1.87351 0
1.5708 2.18602 0
1.76715 2.18602 0
1.76715 1.87351 0
1.9635 1.87351 0
1.76715 2.18602 0
1.9635 2.18602 0
1.5708 2.18602 0
1.76715 2.18602 0
1.5708 2.49853 0
1.76715 2.49853 0
1.76715 2.18602 0
1.9635 2.18602 0
1.76715 2.49853 0
1.9635 2.49853 0
1.9635 1.87351 0
2.15984 1.87351 0
1.9635 2.18602 0
2.15984 2.18602 0
2.15984 1.87351 0
2.35619 1.87351 0
2.15984 2.18602 0
2.35619 2.18602 0
1.9635 2.18602 0
2.15984 2.18602 0
1.9635 2.49853 0
2.15984 2.49853 0
2.15984 2.18602 0
2.35619 2.18602 0
2.15984 2.49853 0
2.35619 2.49853 0
2.35619 1.24847 0
2.55254 1.24847 0
2.35619 1.56099 0
2.55254 1.56099 0
2.55254 1.24847 0
2.74889 1.24847 0
2.55254 1.56099 0
2.74889 1.56099 0
2.35619 1.56099 0
2.55254 1.56099 0
2.35619 1.87351 0
2.55254 1.87351 0
2.55254 1.56099 0
2.74889 1.56099 0
2.55254 1.87351 0
2.74889 1.87351 0
2.74889 1.24847 0
2.94524 1.24847 0
2.74889 1.56099 0
2.94524 1.56099 0
2.94524 1.24847 0
3.14159 1.24847 0
2.94524 1.56099 0
3.14159 1.56099 0
2.74889 1.56099 0
2.94524 1.56099 0
2.74889 1.87351 0
2.94524 1.87351 0
2.94524 1.56099 0
3.14159 1.56099 0
2.94524 1.87351 0
3.14159 1.87351 0
2.35619 1.87351 0
2.55254 1.87351 0
2.35619 2.18602 0
2.55254 2.18602 0
2.55254 1.87351 0
2.74889 1.87351 0
2.55254 2.18602 0
2.74889 2.18602 0
2.35619 2.18602 0
2.55254 2.18602 0
2.35619 2.49853 0
2.55254 2.49853 0
2.55254 2.18602 0
2.74889 2.18602 0
2.55254 2.49853 0
2.74889 2.49853 0
2.74889 1.87351 0
2.94524 1.87351 0
2.74889 2.18602 0
2.94524 2.18602 0
2.94524 1.87351 0
3.14159 1.87351 0
2.94524 2.18602 0
3.14159 2.18602 0
2.74889 2.18602 0
2.94524 2.18602 0
2.74889 2.49853 0
2.94524 2.49853 0
2.94524 2.18602 0
3.14159 2.18602 0
2.94524 2.49853 0
3.14159 2.49853 0
0 2.49853 0
0.19635 2.49853 0
0 2.81103 0
0.19635 2.81103 0
0.19635 2.49853 0
0.392699 2.49853 0
0.19635 2.81103 0
0.392699 2.81103 0
0 2.81103 0
0.19635 2.81103 0
0 3.12352 0
0.19635 3.12352 0
0.19635 2.81103 0
0.392699 2.81103 0
0.19635 3.12352 0
0.392699 3.12352 0
0.392699 2.49853 0
0.589049 2.49853 0
0.392699 2.81103 0
0.589049 2.81103 0
0.589049 2.49853 0
0.785398 2.49853 0
0.589049 2.81103 0
0.785398 2.81103 0
0.392699 2.81103 0
0.589049 2.81103 0
0.392699 3.12352 0
0.589049 3.12352 0
0.589049 2.81103 0
0.785398 2.81103 0
0.589049 3.12352 0
0.785398 3.12352 0
0 3.12352 0
0.19635 3.12352 0
0 3.43601 0
0.19635 3.43601 0
0.19635 3.12352 0
0.392699 3.12352 0
0.19635 3.43601 0
[...]
POINT_DATA 20480
VECTORS uf double
0 1 0
-1.79388e-14 1 0
0 1.00737 0
2.07985e-14 1.00737 0
-1.79388e-14 1 0
-3.37576e-14 1 0
2.07985e-14 1.00737 0
3.58904e-14 1.00737 0
0 1.00737 0
-2.45672e-14 1.00737 0
0 1.0107 0
3.05467e-14 1.0107 0
-2.45672e-14 1.00737 0
-2.46359e-14 1.00737 0
3.05467e-14 1.0107 0
3.32495e-14 1.0107 0
-3.37576e-14 1 0
-3.7615e-14 1 0
3.58904e-14 1.00737 0
4.97699e-14 1.00737 0
-3.7615e-14 1 0
-1.74588e-14 1 0
4.97699e-14 1.00737 0
2.43484e-14 1.00737 0
-2.46359e-14 1.00737 0
-4.94125e-14 1.00737 0
3.32495e-14 1.0107 0
5.89896e-14 1.0107 0
-4.94125e-14 1.00737 0
-3.82262e-14 1.00737 0
5.89896e-14 1.0107 0
4.6876e-14 1.0107 0
0 1.0107 0
-3.709e-14 1.0107 0
0 1.01493 0
3.04863e-14 1.01493 0
-3.709e-14 1.0107 0
-3.5378e-14 1.0107 0
3.04863e-14 1.01493 0
3.25533e-14 1.01493 0
0 1.01493 0
-9.29342e-15 1.01493 0
0 1.01887 0
1.55293e-15 1.01887 0
-9.29342e-15 1.01493 0
-3.82214e-14 1.01493 0
1.55293e-15 1.01887 0
4.42215e-14 1.01887 0
-3.5378e-14 1.0107 0
-6.95256e-14 1.0107 0
3.25533e-14 1.01493 0
6.73888e-14 1.01493 0
-6.95256e-14 1.0107 0
-3.71429e-14 1.0107 0
6.73888e-14 1.01493 0
3.38518e-14 1.01493 0
-3.82214e-14 1.01493 0
-4.92163e-14 1.01493 0
4.42215e-14 1.01887 0
3.03935e-14 1.01887 0
-4.92163e-14 1.01493 0
-4.74611e-14 1.01493 0
3.03935e-14 1.01887 0
3.28546e-14 1.01887 0
-1.74588e-14 1 0
-2.07413e-14 1 0
2.43484e-14 1.00737 0
2.80519e-14 1.00737 0
-2.07413e-14 1 0
-4.4629e-14 1 0
2.80519e-14 1.00737 0
5.33463e-14 1.00737 0
-3.82262e-14 1.00737 0
-6.38678e-14 1.00737 0
4.6876e-14 1.0107 0
8.38543e-14 1.0107 0
-6.38678e-14 1.00737 0
-4.82931e-14 1.00737 0
8.38543e-14 1.0107 0
5.97568e-14 1.0107 0
-4.4629e-14 1 0
-3.9961e-14 1 0
5.33463e-14 1.00737 0
6.19545e-14 1.00737 0
-3.9961e-14 1 0
-4.76738e-14 1 0
6.19545e-14 1.00737 0
6.8694e-14 1.00737 0
-4.82931e-14 1.00737 0
-6.63727e-14 1.00737 0
5.97568e-14 1.0107 0
6.11117e-14 1.0107 0
-6.63727e-14 1.00737 0
-6.60936e-14 1.00737 0
6.11117e-14 1.0107 0
6.68583e-14 1.0107 0
-3.71429e-14 1.0107 0
-6.9454e-14 1.0107 0
3.38518e-14 1.01493 0
6.31712e-14 1.01493 0
-6.9454e-14 1.0107 0
-6.81577e-14 1.0107 0
6.31712e-14 1.01493 0
6.06363e-14 1.01493 0
-4.74611e-14 1.01493 0
-6.00004e-14 1.01493 0
3.28546e-14 1.01887 0
5.83031e-14 1.01887 0
-6.00004e-14 1.01493 0
-6.50061e-14 1.01493 0
5.83031e-14 1.01887 0
6.38083e-14 1.01887 0
-6.81577e-14 1.0107 0
-6.31674e-14 1.0107 0
6.06363e-14 1.01493 0
5.81864e-14 1.01493 0
-6.31674e-14 1.0107 0
-6.45404e-14 1.0107 0
5.81864e-14 1.01493 0
6.91567e-14 1.01493 0
-6.50061e-14 1.01493 0
-4.95707e-14 1.01493 0
6.38083e-14 1.01887 0
4.75793e-14 1.01887 0
-4.95707e-14 1.01493 0
-8.28054e-14 1.01493 0
4.75793e-14 1.01887 0
8.13319e-14 1.01887 0
0 1.01887 0
-5.76907e-16 1.01887 0
0 1.02279 0
1.29158e-14 1.02279 0
-5.76907e-16 1.01887 0
-4.39844e-14 1.01887 0
1.29158e-14 1.02279 0
3.69519e-14 1.02279 0
0 1.02279 0
-3.86949e-14 1.02279 0
0 1.02663 0
3.70774e-14 1.02663 0
-3.86949e-14 1.02279 0
-9.44296e-15 1.02279 0
3.70774e-14 1.02663 0
6.43264e-15 1.02663 0
-4.39844e-14 1.01887 0
-1.43866e-14 1.01887 0
3.69519e-14 1.02279 0
1.86551e-15 1.02279 0
-1.43866e-14 1.01887 0
-8.10804e-15 1.01887 0
1.86551e-15 1.02279 0
1.82478e-14 1.02279 0
-9.44296e-15 1.02279 0
1.74763e-14 1.02279 0
6.43264e-15 1.02663 0
-1.61819e-14 1.02663 0
1.74763e-14 1.02279 0
-5.28114e-14 1.02279 0
-1.61819e-14 1.02663 0
6.74717e-14 1.02663 0
0 1.02663 0
-5.8207e-16 1.02663 0
0 1.0304 0
-2.10929e-14 1.0304 0
-5.8207e-16 1.02663 0
1.85613e-14 1.02663 0
-2.10929e-14 1.0304 0
-2.48715e-14 1.0304 0
0 1.0304 0
8.1777e-15 1.0304 0
0 1.03409 0
1.10256e-14 1.03409 0
8.1777e-15 1.0304 0
1.25199e-14 1.0304 0
1.10256e-14 1.03409 0
-9.69353e-15 1.03409 0
1.85613e-14 1.02663 0
1.22472e-14 1.02663 0
-2.48715e-14 1.0304 0
8.33494e-15 1.0304 0
1.22472e-14 1.02663 0
-4.68227e-14 1.02663 0
8.33494e-15 1.0304 0
4.47075e-14 1.0304 0
1.25199e-14 1.0304 0
-4.53738e-14 1.0304 0
-9.69353e-15 1.03409 0
5.34731e-14 1.03409 0
-4.53738e-14 1.0304 0
-8.26516e-14 1.0304 0
5.34731e-14 1.03409 0
9.58687e-14 1.03409 0
-8.10804e-15 1.01887 0
-3.91088e-14 1.01887 0
1.82478e-14 1.02279 0
2.73861e-14 1.02279 0
-3.91088e-14 1.01887 0
-2.89571e-14 1.01887 0
2.73861e-14 1.02279 0
2.50308e-14 1.02279 0
-5.28114e-14 1.02279 0
-3.18219e-14 1.02279 0
6.74717e-14 1.02663 0
4.22902e-14 1.02663 0
-3.18219e-14 1.02279 0
-1.94544e-14 1.02279 0
4.22902e-14 1.02663 0
1.77808e-14 1.02663 0
-2.89571e-14 1.01887 0
-2.98059e-14 1.01887 0
2.50308e-14 1.02279 0
3.57795e-14 1.02279 0
-2.98059e-14 1.01887 0
-4.60591e-14 1.01887 0
3.57795e-14 1.02279 0
3.79966e-14 1.02279 0
-1.94544e-14 1.02279 0
-2.25507e-14 1.02279 0
1.77808e-14 1.02663 0
1.47701e-14 1.02663 0
-2.25507e-14 1.02279 0
-3.00224e-14 1.02279 0
1.47701e-14 1.02663 0
2.73784e-14 1.02663 0
-4.68227e-14 1.02663 0
-5.16092e-14 1.02663 0
4.47075e-14 1.0304 0
6.14499e-14 1.0304 0
-5.16092e-14 1.02663 0
-2.98442e-14 1.02663 0
6.14499e-14 1.0304 0
3.69029e-14 1.0304 0
-8.26516e-14 1.0304 0
-4.74014e-14 1.0304 0
9.58687e-14 1.03409 0
4.74638e-14 1.03409 0
-4.74014e-14 1.0304 0
-3.58371e-14 1.0304 0
4.74638e-14 1.03409 0
4.54058e-14 1.03409 0
-2.98442e-14 1.02663 0
-2.83231e-14 1.02663 0
3.69029e-14 1.0304 0
4.01975e-14 1.0304 0
-2.83231e-14 1.02663 0
-5.70524e-14 1.02663 0
4.01975e-14 1.0304 0
7.41027e-14 1.0304 0
-3.58371e-14 1.0304 0
-4.29601e-14 1.0304 0
4.54058e-14 1.03409 0
5.48776e-14 1.03409 0
-4.29601e-14 1.0304 0
-4.2535e-14 1.0304 0
5.48776e-14 1.03409 0
4.35955e-14 1.03409 0
-4.76738e-14 1 0
-5.9855e-14 1 0
6.8694e-14 1.00737 0
7.38046e-14 1.00737 0
-5.9855e-14 1 0
-6.26304e-14 1 0
7.38046e-14 1.00737 0
7.38456e-14 1.00737 0
-6.60936e-14 1.00737 0
-5.58307e-14 1.00737 0
6.68583e-14 1.0107 0
5.74123e-14 1.0107 0
-5.58307e-14 1.00737 0
-5.51819e-14 1.00737 0
5.74123e-14 1.0107 0
5.61329e-14 1.0107 0
-6.26304e-14 1 0
-9.43178e-14 1 0
7.38456e-14 1.00737 0
1.08871e-13 1.00737 0
-9.43178e-14 1 0
-6.65405e-14 1 0
1.08871e-13 1.00737 0
7.73364e-14 1.00737 0
-5.51819e-14 1.00737 0
-7.11472e-14 1.00737 0
5.61329e-14 1.0107 0
6.99214e-14 1.0107 0
-7.11472e-14 1.00737 0
-8.20121e-14 1.00737 0
6.99214e-14 1.0107 0
9.63345e-14 1.0107 0
-6.45404e-14 1.0107 0
-4.25784e-14 1.0107 0
6.91567e-14 1.01493 0
4.41327e-14 1.01493 0
-4.25784e-14 1.0107 0
-5.74761e-14 1.0107 0
4.41327e-14 1.01493 0
7.44198e-14 1.01493 0
-8.28054e-14 1.01493 0
-4.49778e-14 1.01493 0
8.13319e-14 1.01887 0
4.16019e-14 1.01887 0
-4.49778e-14 1.01493 0
-6.52714e-14 1.01493 0
4.16019e-14 1.01887 0
5.43365e-14 1.01887 0
-5.74761e-14 1.0107 0
-5.55537e-14 1.0107 0
7.44198e-14 1.01493 0
5.40127e-14 1.01493 0
-5.55537e-14 1.0107 0
-7.7061e-14 1.0107 0
5.40127e-14 1.01493 0
6.33417e-14 1.01493 0
-6.52714e-14 1.01493 0
-3.77765e-14 1.01493 0
5.43365e-14 1.01887 0
3.86143e-14 1.01887 0
-3.77765e-14 1.01493 0
-3.0416e-14 1.01493 0
3.86143e-14 1.01887 0
2.72365e-14 1.01887 0
-6.65405e-14 1 0
-5.94569e-14 1 0
7.73364e-14 1.00737 0
7.85048e-14 1.00737 0
-5.94569e-14 1 0
-7.25563e-14 1 0
7.85048e-14 1.00737 0
8.63585e-14 1.00737 0
-8.20121e-14 1.00737 0
-8.53735e-14 1.00737 0
9.63345e-14 1.0107 0
8.95171e-14 1.0107 0
-8.53735e-14 1.00737 0
-4.82973e-14 1.00737 0
8.95171e-14 1.0107 0
4.55418e-14 1.0107 0
-7.25563e-14 1 0
-5.75608e-14 1 0
8.63585e-14 1.00737 0
6.84712e-14 1.00737 0
-5.75608e-14 1 0
-4.728e-14 1 0
6.84712e-14 1.00737 0
6.11403e-14 1.00737 0
-4.82973e-14 1.00737 0
-6.58909e-14 1.00737 0
4.55418e-14 1.0107 0
6.8433e-14 1.0107 0
-6.58909e-14 1.00737 0
-6.14271e-14 1.00737 0
6.8433e-14 1.0107 0
6.1732e-14 1.0107 0
-7.7061e-14 1.0107 0
-8.23465e-14 1.0107 0
6.33417e-14 1.01493 0
8.42272e-14 1.01493 0
-8.23465e-14 1.0107 0
-5.41581e-14 1.0107 0
8.42272e-14 1.01493 0
5.72095e-14 1.01493 0
-3.0416e-14 1.01493 0
-4.99873e-14 1.01493 0
2.72365e-14 1.01887 0
3.87691e-14 1.01887 0
-4.99873e-14 1.01493 0
-5.27979e-14 1.01493 0
3.87691e-14 1.01887 0
5.85679e-14 1.01887 0
-5.41581e-14 1.0107 0
-4.46696e-14 1.0107 0
5.72095e-14 1.01493 0
4.45277e-14 1.01493 0
-4.46696e-14 1.0107 0
-4.07117e-14 1.0107 0
4.45277e-14 1.01493 0
4.96919e-14 1.01493 0
-5.27979e-14 1.01493 0
-3.82401e-14 1.01493 0
5.85679e-14 1.01887 0
5.19608e-14 1.01887 0
-3.82401e-14 1.01493 0
-5.1031e-14 1.01493 0
5.19608e-14 1.01887 0
6.17377e-14 1.01887 0
-4.60591e-14 1.01887 0
-2.74764e-14 1.01887 0
3.79966e-14 1.02279 0
3.74137e-14 1.02279 0
-2.74764e-14 1.01887 0
-4.34994e-14 1.01887 0
3.74137e-14 1.02279 0
5.35031e-14 1.02279 0
-3.00224e-14 1.02279 0
-6.63813e-14 1.02279 0
2.73784e-14 1.02663 0
6.27663e-14 1.02663 0
-6.63813e-14 1.02279 0
-6.0443e-14 1.02279 0
6.27663e-14 1.02663 0
5.06441e-14 1.02663 0
-4.34994e-14 1.01887 0
-2.51149e-14 1.01887 0
5.35031e-14 1.02279 0
2.78962e-14 1.02279 0
-2.51149e-14 1.01887 0
-2.00297e-14 1.01887 0
2.78962e-14 1.02279 0
4.15682e-14 1.02279 0
-6.0443e-14 1.02279 0
-2.62946e-14 1.02279 0
5.06441e-14 1.02663 0
3.52513e-14 1.02663 0
-2.62946e-14 1.02279 0
-4.61223e-14 1.02279 0
3.52513e-14 1.02663 0
5.15223e-14 1.02663 0
-5.70524e-14 1.02663 0
-3.72698e-14 1.02663 0
7.41027e-14 1.0304 0
3.67756e-14 1.0304 0
-3.72698e-14 1.02663 0
-3.14566e-14 1.02663 0
3.67756e-14 1.0304 0
4.15096e-14 1.0304 0
-4.2535e-14 1.0304 0
-4.24114e-14 1.0304 0
4.35955e-14 1.03409 0
5.74943e-14 1.03409 0
-4.24114e-14 1.0304 0
-6.42384e-14 1.0304 0
5.74943e-14 1.03409 0
7.57467e-14 1.03409 0
-3.14566e-14 1.02663 0
-4.78514e-14 1.02663 0
4.15096e-14 1.0304 0
4.47428e-14 1.0304 0
-4.78514e-14 1.02663 0
-5.8246e-14 1.02663 0
4.47428e-14 1.0304 0
6.22289e-14 1.0304 0
-6.42384e-14 1.0304 0
-2.5336e-14 1.0304 0
7.57467e-14 1.03409 0
4.11117e-14 1.03409 0
-2.5336e-14 1.0304 0
-5.59204e-14 1.0304 0
4.11117e-14 1.03409 0
6.91721e-14 1.03409 0
-2.00297e-14 1.01887 0
-2.31001e-15 1.01887 0
4.15682e-14 1.02279 0
1.61213e-14 1.02279 0
-2.31001e-15 1.01887 0
-1.62629e-14 1.01887 0
1.61213e-14 1.02279 0
2.98376e-14 1.02279 0
-4.61223e-14 1.02279 0
-1.57331e-14 1.02279 0
5.15223e-14 1.02663 0
1.57178e-14 1.02663 0
-1.57331e-14 1.02279 0
-4.37008e-14 1.02279 0
1.57178e-14 1.02663 0
5.09126e-14 1.02663 0
-1.62629e-14 1.01887 0
-3.37681e-14 1.01887 0
2.98376e-14 1.02279 0
3.86535e-14 1.02279 0
-3.37681e-14 1.01887 0
-3.84638e-14 1.01887 0
3.86535e-14 1.02279 0
4.63012e-14 1.02279 0
-4.37008e-14 1.02279 0
-3.86999e-14 1.02279 0
5.09126e-14 1.02663 0
5.27928e-14 1.02663 0
-3.86999e-14 1.02279 0
-6.10549e-14 1.02279 0
5.27928e-14 1.02663 0
7.47635e-14 1.02663 0
-5.8246e-14 1.02663 0
-3.30863e-14 1.02663 0
6.22289e-14 1.0304 0
4.5189e-14 1.0304 0
-3.30863e-14 1.02663 0
-5.82752e-14 1.02663 0
4.5189e-14 1.0304 0
5.79436e-14 1.0304 0
-5.59204e-14 1.0304 0
-2.57969e-14 1.0304 0
6.91721e-14 1.03409 0
2.59571e-14 1.03409 0
-2.57969e-14 1.0304 0
-2.97856e-14 1.0304 0
2.59571e-14 1.03409 0
3.51451e-14 1.03409 0
-5.82752e-14 1.02663 0
-6.4443e-14 1.02663 0
5.79436e-14 1.0304 0
6.81815e-14 1.0304 0
-6.4443e-14 1.02663 0
-5.61006e-14 1.02663 0
6.81815e-14 1.0304 0
5.40641e-14 1.0304 0
-2.97856e-14 1.0304 0
-3.66784e-14 1.0304 0
3.51451e-14 1.03409 0
3.58672e-14 1.03409 0
-3.66784e-14 1.0304 0
-2.88134e-14 1.0304 0
3.58672e-14 1.03409 0
4.18993e-14 1.03409 0
0 1.03409 0
-1.32564e-14 1.03409 0
0 1.03771 0
1.51706e-14 1.03771 0
-1.32564e-14 1.03409 0
4.71384e-15 1.03409 0
1.51706e-14 1.03771 0
-3.64276e-15 1.03771 0
0 1.03771 0
-1.66336e-14 1.03771 0
0 1.04126 0
1.68232e-14 1.04126 0
-1.66336e-14 1.03771 0
6.62284e-15 1.03771 0
1.68232e-14 1.04126 0
8.14073e-16 1.04126 0
4.71384e-15 1.03409 0
-5.79821e-14 1.03409 0
-3.64276e-15 1.03771 0
5.71185e-14 1.03771 0
-5.79821e-14 1.03409 0
-7.94283e-14 1.03409 0
5.71185e-14 1.03771 0
6.55109e-14 1.03771 0
6.62284e-15 1.03771 0
-4.00075e-14 1.03771 0
8.14073e-16 1.04126 0
4.36444e-14 1.04126 0
-4.00075e-14 1.03771 0
-5.06222e-14 1.03771 0
4.36444e-14 1.04126 0
5.76268e-14 1.04126 0
0 1.04126 0
-1.93382e-14 1.04126 0
0 1.04473 0
2.17669e-14 1.04473 0
-1.93382e-14 1.04126 0
-2.13462e-15 1.04126 0
2.17669e-14 1.04473 0
6.39403e-16 1.04473 0
0 1.04473 0
-1.63392e-14 1.04473 0
0 1.04813 0
8.83172e-15 1.04813 0
-1.63392e-14 1.04473 0
2.67013e-15 1.04473 0
8.83172e-15 1.04813 0
-9.94933e-15 1.04813 0
-2.13462e-15 1.04126 0
-5.8486e-14 1.04126 0
6.39403e-16 1.04473 0
4.10794e-14 1.04473 0
-5.8486e-14 1.04126 0
-7.61301e-14 1.04126 0
4.10794e-14 1.04473 0
6.65337e-14 1.04473 0
2.67013e-15 1.04473 0
1.01693e-14 1.04473 0
-9.94933e-15 1.04813 0
-3.69985e-14 1.04813 0
1.01693e-14 1.04473 0
-4.31361e-14 1.04473 0
-3.69985e-14 1.04813 0
2.88887e-14 1.04813 0
-7.94283e-14 1.03409 0
-5.2785e-14 1.03409 0
6.55109e-14 1.03771 0
5.97159e-14 1.03771 0
-5.2785e-14 1.03409 0
-5.04698e-14 1.03409 0
5.97159e-14 1.03771 0
4.88027e-14 1.03771 0
-5.06222e-14 1.03771 0
-5.83591e-14 1.03771 0
5.76268e-14 1.04126 0
5.42963e-14 1.04126 0
-5.83591e-14 1.03771 0
-4.12382e-14 1.03771 0
5.42963e-14 1.04126 0
4.0556e-14 1.04126 0
-5.04698e-14 1.03409 0
-5.85724e-14 1.03409 0
4.88027e-14 1.03771 0
6.07145e-14 1.03771 0
-5.85724e-14 1.03409 0
-3.05806e-14 1.03409 0
6.07145e-14 1.03771 0
3.99411e-14 1.03771 0
-4.12382e-14 1.03771 0
-5.48549e-14 1.03771 0
4.0556e-14 1.04126 0
4.92073e-14 1.04126 0
-5.48549e-14 1.03771 0
-7.22291e-14 1.03771 0
4.92073e-14 1.04126 0
6.76605e-14 1.04126 0
-7.61301e-14 1.04126 0
-6.94937e-14 1.04126 0
6.65337e-14 1.04473 0
6.2998e-14 1.04473 0
-6.94937e-14 1.04126 0
-5.56889e-14 1.04126 0
6.2998e-14 1.04473 0
5.80358e-14 1.04473 0
-4.31361e-14 1.04473 0
-5.48926e-14 1.04473 0
2.88887e-14 1.04813 0
5.94572e-14 1.04813 0
-5.48926e-14 1.04473 0
-5.70479e-14 1.04473 0
5.94572e-14 1.04813 0
5.38274e-14 1.04813 0
-5.56889e-14 1.04126 0
-6.33618e-14 1.04126 0
5.80358e-14 1.04473 0
7.08066e-14 1.04473 0
-6.33618e-14 1.04126 0
-4.81014e-14 1.04126 0
7.08066e-14 1.04473 0
4.14627e-14 1.04473 0
-5.70479e-14 1.04473 0
-6.08743e-14 1.04473 0
5.38274e-14 1.04813 0
6.10679e-14 1.04813 0
-6.08743e-14 1.04473 0
-2.55984e-14 1.04473 0
6.10679e-14 1.04813 0
1.88239e-14 1.04813 0
0 1.04813 0
-1.87094e-14 1.04813 0
0 1.05147 0
1.87588e-14 1.05147 0
-1.87094e-14 1.04813 0
1.19964e-16 1.04813 0
1.87588e-14 1.05147 0
-6.03783e-15 1.05147 0
0 1.05147 0
-2.33473e-14 1.05147 0
0 1.05474 0
3.23979e-14 1.05474 0
-2.33473e-14 1.05147 0
1.24147e-14 1.05147 0
3.23979e-14 1.05474 0
-2.70709e-15 1.05474 0
1.19964e-16 1.04813 0
4.14299e-14 1.04813 0
-6.03783e-15 1.05147 0
-1.54498e-14 1.05147 0
4.14299e-14 1.04813 0
1.32232e-14 1.04813 0
-1.54498e-14 1.05147 0
-1.73619e-14 1.05147 0
1.24147e-14 1.05147 0
-2.28445e-14 1.05147 0
-2.70709e-15 1.05474 0
2.80427e-14 1.05474 0
-2.28445e-14 1.05147 0
-5.09917e-15 1.05147 0
2.80427e-14 1.05474 0
1.49266e-14 1.05474 0
0 1.05474 0
-1.05073e-14 1.05474 0
0 1.05795 0
1.04416e-14 1.05795 0
-1.05073e-14 1.05474 0
5.6419e-15 1.05474 0
1.04416e-14 1.05795 0
-1.73672e-15 1.05795 0
0 1.05795 0
-2.87578e-14 1.05795 0
0 1.0611 0
2.60176e-14 1.0611 0
-2.87578e-14 1.05795 0
-6.51276e-16 1.05795 0
2.60176e-14 1.0611 0
-8.68058e-15 1.0611 0
5.6419e-15 1.05474 0
-8.20297e-15 1.05474 0
-1.73672e-15 1.05795 0
1.54115e-16 1.05795 0
-8.20297e-15 1.05474 0
-4.42962e-14 1.05474 0
1.54115e-16 1.05795 0
4.63169e-14 1.05795 0
-6.51276e-16 1.05795 0
-5.97681e-16 1.05795 0
-8.68058e-15 1.0611 0
3.68395e-15 1.0611 0
-5.97681e-16 1.05795 0
-2.23833e-14 1.05795 0
3.68395e-15 1.0611 0
2.1565e-14 1.0611 0
1.32232e-14 1.04813 0
-5.60385e-14 1.04813 0
-1.73619e-14 1.05147 0
5.44824e-14 1.05147 0
-5.60385e-14 1.04813 0
-4.33201e-14 1.04813 0
5.44824e-14 1.05147 0
5.09615e-14 1.05147 0
-5.09917e-15 1.05147 0
-5.94756e-14 1.05147 0
1.49266e-14 1.05474 0
5.7058e-14 1.05474 0
-5.94756e-14 1.05147 0
-5.80377e-14 1.05147 0
5.7058e-14 1.05474 0
5.50364e-14 1.05474 0
-4.33201e-14 1.04813 0
-8.48428e-14 1.04813 0
5.09615e-14 1.05147 0
7.78255e-14 1.05147 0
-8.48428e-14 1.04813 0
-3.23921e-14 1.04813 0
7.78255e-14 1.05147 0
4.55367e-14 1.05147 0
-5.80377e-14 1.05147 0
-6.00854e-14 1.05147 0
5.50364e-14 1.05474 0
5.77622e-14 1.05474 0
-6.00854e-14 1.05147 0
-6.90701e-14 1.05147 0
5.77622e-14 1.05474 0
6.70343e-14 1.05474 0
-4.42962e-14 1.05474 0
-4.93934e-14 1.05474 0
4.63169e-14 1.05795 0
4.50917e-14 1.05795 0
-4.93934e-14 1.05474 0
-6.1079e-14 1.05474 0
4.50917e-14 1.05795 0
6.09187e-14 1.05795 0
-2.23833e-14 1.05795 0
-5.13739e-14 1.05795 0
2.1565e-14 1.0611 0
4.70464e-14 1.0611 0
-5.13739e-14 1.05795 0
-5.75187e-14 1.05795 0
4.70464e-14 1.0611 0
4.9606e-14 1.0611 0
-6.1079e-14 1.05474 0
-6.00498e-14 1.05474 0
6.09187e-14 1.05795 0
6.02099e-14 1.05795 0
-6.00498e-14 1.05474 0
-5.31518e-14 1.05474 0
6.02099e-14 1.05795 0
5.01918e-14 1.05795 0
-5.75187e-14 1.05795 0
-4.75563e-14 1.05795 0
4.9606e-14 1.0611 0
4.59998e-14 1.0611 0
-4.75563e-14 1.05795 0
-4.35574e-14 1.05795 0
4.59998e-14 1.0611 0
4.18948e-14 1.0611 0
-3.05806e-14 1.03409 0
-4.87828e-14 1.03409 0
3.99411e-14 1.03771 0
4.6151e-14 1.03771 0
-4.87828e-14 1.03409 0
-6.1681e-14 1.03409 0
4.6151e-14 1.03771 0
6.44281e-14 1.03771 0
-7.22291e-14 1.03771 0
-2.6739e-14 1.03771 0
6.76605e-14 1.04126 0
2.31049e-14 1.04126 0
-2.6739e-14 1.03771 0
-5.85486e-14 1.03771 0
2.31049e-14 1.04126 0
5.92393e-14 1.04126 0
-6.1681e-14 1.03409 0
-5.63307e-14 1.03409 0
6.44281e-14 1.03771 0
6.1617e-14 1.03771 0
-5.63307e-14 1.03409 0
-5.99013e-14 1.03409 0
6.1617e-14 1.03771 0
6.22402e-14 1.03771 0
-5.85486e-14 1.03771 0
-6.04543e-14 1.03771 0
5.92393e-14 1.04126 0
6.52711e-14 1.04126 0
-6.04543e-14 1.03771 0
-8.50099e-14 1.03771 0
6.52711e-14 1.04126 0
8.56953e-14 1.04126 0
-4.81014e-14 1.04126 0
-3.41007e-14 1.04126 0
4.14627e-14 1.04473 0
4.37732e-14 1.04473 0
-3.41007e-14 1.04126 0
-5.65861e-14 1.04126 0
4.37732e-14 1.04473 0
5.91801e-14 1.04473 0
-2.55984e-14 1.04473 0
-5.08548e-14 1.04473 0
1.88239e-14 1.04813 0
4.94062e-14 1.04813 0
-5.08548e-14 1.04473 0
-5.03591e-14 1.04473 0
4.94062e-14 1.04813 0
4.53878e-14 1.04813 0
-5.65861e-14 1.04126 0
-5.8645e-14 1.04126 0
5.91801e-14 1.04473 0
5.84456e-14 1.04473 0
-5.8645e-14 1.04126 0
-6.51379e-14 1.04126 0
5.84456e-14 1.04473 0
6.77453e-14 1.04473 0
-5.03591e-14 1.04473 0
-4.81604e-14 1.04473 0
4.53878e-14 1.04813 0
4.51707e-14 1.04813 0
-4.81604e-14 1.04473 0
-4.91729e-14 1.04473 0
4.51707e-14 1.04813 0
5.06765e-14 1.04813 0
-5.99013e-14 1.03409 0
-2.1345e-14 1.03409 0
6.22402e-14 1.03771 0
1.41824e-14 1.03771 0
-2.1345e-14 1.03409 0
-3.89215e-14 1.03409 0
1.41824e-14 1.03771 0
3.80095e-14 1.03771 0
-8.50099e-14 1.03771 0
1.08172e-15 1.03771 0
8.56953e-14 1.04126 0
3.02838e-15 1.04126 0
1.08172e-15 1.03771 0
-3.80073e-14 1.03771 0
3.02838e-15 1.04126 0
4.59027e-14 1.04126 0
-3.89215e-14 1.03409 0
-2.87238e-14 1.03409 0
3.80095e-14 1.03771 0
1.51316e-14 1.03771 0
-2.87238e-14 1.03409 0
-5.13393e-14 1.03409 0
1.51316e-14 1.03771 0
4.4316e-14 1.03771 0
-3.80073e-14 1.03771 0
-2.9083e-14 1.03771 0
4.59027e-14 1.04126 0
4.17678e-14 1.04126 0
-2.9083e-14 1.03771 0
-4.61968e-14 1.03771 0
4.17678e-14 1.04126 0
5.55977e-14 1.04126 0
-6.51379e-14 1.04126 0
-1.09938e-14 1.04126 0
6.77453e-14 1.04473 0
3.56724e-14 1.04473 0
-1.09938e-14 1.04126 0
-3.5007e-14 1.04126 0
3.56724e-14 1.04473 0
4.10332e-14 1.04473 0
-4.91729e-14 1.04473 0
-2.8018e-14 1.04473 0
5.06765e-14 1.04813 0
2.73017e-14 1.04813 0
-2.8018e-14 1.04473 0
-2.16175e-14 1.04473 0
2.73017e-14 1.04813 0
1.7167e-14 1.04813 0
-3.5007e-14 1.04126 0
-2.85664e-14 1.04126 0
4.10332e-14 1.04473 0
3.48486e-14 1.04473 0
-2.85664e-14 1.04126 0
-4.4704e-14 1.04126 0
3.48486e-14 1.04473 0
3.55676e-14 1.04473 0
-2.16175e-14 1.04473 0
-1.76159e-14 1.04473 0
1.7167e-14 1.04813 0
2.01968e-14 1.04813 0
-1.76159e-14 1.04473 0
3.83434e-15 1.04473 0
2.01968e-14 1.04813 0
7.34567e-15 1.04813 0
-3.23921e-14 1.04813 0
-5.15836e-14 1.04813 0
4.55367e-14 1.05147 0
5.19976e-14 1.05147 0
-5.15836e-14 1.04813 0
-4.84491e-14 1.04813 0
5.19976e-14 1.05147 0
4.44247e-14 1.05147 0
-6.90701e-14 1.05147 0
-5.06384e-14 1.05147 0
6.70343e-14 1.05474 0
4.53452e-14 1.05474 0
-5.06384e-14 1.05147 0
-1.52467e-14 1.05147 0
4.53452e-14 1.05474 0
1.32997e-14 1.05474 0
-4.84491e-14 1.04813 0
-5.33047e-14 1.04813 0
4.44247e-14 1.05147 0
5.84873e-14 1.05147 0
-5.33047e-14 1.04813 0
-5.76845e-14 1.04813 0
5.84873e-14 1.05147 0
6.44488e-14 1.05147 0
-1.52467e-14 1.05147 0