# vtk DataFile Version 3.0
#This file was generated by the deal.II library on 2018/10/14 at 17:03:11
ASCII
DATASET UNSTRUCTURED_GRID

POINTS 20480 double
0 0 0
0.19635 0 0
0 0.3125 0
0.19635 0.3125 0
0.19635 0 0
0.392699 0 0
0.19635 0.3125 0
0.392699 0.3125 0
0 0.3125 0
0.19635 0.3125 0
0 0.625 0
0.19635 0.625 0
0.19635 0.3125 0
0.392699 0.3125 0
0.19635 0.625 0
0.392699 0.625 0
0.392699 0 0
0.589049 0 0
0.392699 0.3125 0
0.589049 0.3125 0
0.589049 0 0
0.785398 0 0
0.589049 0.3125 0
0.785398 0.3125 0
0.392699 0.3125 0
0.589049 0.3125 0
0.392699 0.625 0
0.589049 0.625 0
0.589049 0.3125 0
0.785398 0.3125 0
0.589049 0.625 0
0.785398 0.625 0
0 0.625 0
0.19635 0.625 0
0 0.9375 0
0.19635 0.9375 0
0.19635 0.625 0
0.392699 0.625 0
0.19635 0.9375 0
0.392699 0.9375 0
0 0.9375 0
0.19635 0.9375 0
0 1.25 0
0.19635 1.25 0
0.19635 0.9375 0
0.392699 0.9375 0
0.19635 1.25 0
0.392699 1.25 0
0.392699 0.625 0
0.589049 0.625 0
0.392699 0.9375 0
0.589049 0.9375 0
0.589049 0.625 0
0.785398 0.625 0
0.589049 0.9375 0
0.785398 0.9375 0
0.392699 0.9375 0
0.589049 0.9375 0
0.392699 1.25 0
0.589049 1.25 0
0.589049 0.9375 0
0.785398 0.9375 0
0.589049 1.25 0
0.785398 1.25 0
0.785398 0 0
0.981748 0 0
0.785398 0.3125 0
0.981748 0.3125 0
0.981748 0 0
1.1781 0 0
0.981748 0.3125 0
1.1781 0.3125 0
0.785398 0.3125 0
0.981748 0.3125 0
0.785398 0.625 0
0.981748 0.625 0
0.981748 0.3125 0
1.1781 0.3125 0
0.981748 0.625 0
1.1781 0.625 0
1.1781 0 0
1.37445 0 0
1.1781 0.3125 0
1.37445 0.3125 0
1.37445 0 0
1.5708 0 0
1.37445 0.3125 0
1.5708 0.3125 0
1.1781 0.3125 0
1.37445 0.3125 0
1.1781 0.625 0
1.37445 0.625 0
1.37445 0.3125 0
1.5708 0.3125 0
1.37445 0.625 0
1.5708 0.625 0
0.785398 0.625 0
0.981748 0.625 0
0.785398 0.9375 0
0.981748 0.9375 0
0.981748 0.625 0
1.1781 0.625 0
0.981748 0.9375 0
1.1781 0.9375 0
0.785398 0.9375 0
0.981748 0.9375 0
0.785398 1.25 0
0.981748 1.25 0
0.981748 0.9375 0
1.1781 0.9375 0
0.981748 1.25 0
1.1781 1.25 0
1.1781 0.625 0
1.37445 0.625 0
1.1781 0.9375 0
1.37445 0.9375 0
1.37445 0.625 0
1.5708 0.625 0
1.37445 0.9375 0
1.5708 0.9375 0
1.1781 0.9375 0
1.37445 0.9375 0
1.1781 1.25 0
1.37445 1.25 0
1.37445 0.9375 0
1.5708 0.9375 0
1.37445 1.25 0
1.5708 1.25 0
0 1.25 0
0.19635 1.25 0
0 1.5625 0
0.19635 1.5625 0
0.19635 1.25 0
0.392699 1.25 0
0.19635 1.5625 0
0.392699 1.5625 0
0 1.5625 0
0.19635 1.5625 0
0 1.875 0
0.19635 1.875 0
0.19635 1.5625 0
0.392699 1.5625 0
0.19635 1.875 0
0.392699 1.875 0
0.392699 1.25 0
0.589049 1.25 0
0.392699 1.5625 0
0.589049 1.5625 0
0.589049 1.25 0
0.785398 1.25 0
0.589049 1.5625 0
0.785398 1.5625 0
0.392699 1.5625 0
0.589049 1.5625 0
0.392699 1.875 0
0.589049 1.875 0
0.589049 1.5625 0
0.785398 1.5625 0
0.589049 1.875 0
0.785398 1.875 0
0 1.875 0
0.19635 1.875 0
0 2.1875 0
0.19635 2.1875 0
0.19635 1.875 0
0.392699 1.875 0
0.19635 2.1875 0
0.392699 2.1875 0
0 2.1875 0
0.19635 2.1875 0
0 2.5 0
0.19635 2.5 0
0.19635 2.1875 0
0.392699 2.1875 0
0.19635 2.5 0
0.392699 2.5 0
0.392699 1.875 0
0.589049 1.875 0
0.392699 2.1875 0
0.589049 2.1875 0
0.589049 1.875 0
0.785398 1.875 0
0.589049 2.1875 0
0.785398 2.1875 0
0.392699 2.1875 0
0.589049 2.1875 0
0.392699 2.5 0
0.589049 2.5 0
0.589049 2.1875 0
0.785398 2.1875 0
0.589049 2.5 0
0.785398 2.5 0
0.785398 1.25 0
0.981748 1.25 0
0.785398 1.5625 0
0.981748 1.5625 0
0.981748 1.25 0
1.1781 1.25 0
0.981748 1.5625 0
1.1781 1.5625 0
0.785398 1.5625 0
0.981748 1.5625 0
0.785398 1.875 0
0.981748 1.875 0
0.981748 1.5625 0
1.1781 1.5625 0
0.981748 1.875 0
1.1781 1.875 0
1.1781 1.25 0
1.37445 1.25 0
1.1781 1.5625 0
1.37445 1.5625 0
1.37445 1.25 0
1.5708 1.25 0
1.37445 1.5625 0
1.5708 1.5625 0
1.1781 1.5625 0
1.37445 1.5625 0
1.1781 1.875 0
1.37445 1.875 0
1.37445 1.5625 0
1.5708 1.5625 0
1.37445 1.875 0
1.5708 1.875 0
0.785398 1.875 0
0.981748 1.875 0
0.785398 2.1875 0
0.981748 2.1875 0
0.981748 1.875 0
1.1781 1.875 0
0.981748 2.1875 0
1.1781 2.1875 0
0.785398 2.1875 0
0.981748 2.1875 0
0.785398 2.5 0
0.981748 2.5 0
0.981748 2.1875 0
1.1781 2.1875 0
0.981748 2.5 0
1.1781 2.5 0
1.1781 1.875 0
1.37445 1.875 0
1.1781 2.1875 0
1.37445 2.1875 0
1.37445 1.875 0
1.5708 1.875 0
1.37445 2.1875 0
1.5708 2.1875 0
1.1781 2.1875 0
1.37445 2.1875 0
1.1781 2.5 0
1.37445 2.5 0
1.37445 2.1875 0
1.5708 2.1875 0
1.37445 2.5 0
1.5708 2.5 0
1.5708 0 0
1.76715 0 0
1.5708 0.3125 0
1.76715 0.3125 0
1.76715 0 0
1.9635 0 0
1.76715 0.3125 0
1.9635 0.3125 0
1.5708 0.3125 0
1.76715 0.3125 0
1.5708 0.625 0
1.76715 0.625 0
1.76715 0.3125 0
1.9635 0.3125 0
1.76715 0.625 0
1.9635 0.625 0
1.9635 0 0
2.15984 0 0
1.9635 0.3125 0
2.15984 0.3125 0
2.15984 0 0
2.35619 0 0
2.15984 0.3125 0
2.35619 0.3125 0
1.9635 0.3125 0
2.15984 0.3125 0
1.9635 0.625 0
2.15984 0.625 0
2.15984 0.3125 0
2.35619 0.3125 0
2.15984 0.625 0
2.35619 0.625 0
1.5708 0.625 0
1.76715 0.625 0
1.5708 0.9375 0
1.76715 0.9375 0
1.76715 0.625 0
1.9635 0.625 0
1.76715 0.9375 0
1.9635 0.9375 0
1.5708 0.9375 0
1.76715 0.9375 0
1.5708 1.25 0
1.76715 1.25 0
1.76715 0.9375 0
1.9635 0.9375 0
1.76715 1.25 0
1.9635 1.25 0
1.9635 0.625 0
2.15984 0.625 0
1.9635 0.9375 0
2.15984 0.9375 0
2.15984 0.625 0
2.35619 0.625 0
2.15984 0.9375 0
2.35619 0.9375 0
1.9635 0.9375 0
2.15984 0.9375 0
1.9635 1.25 0
2.15984 1.25 0
2.15984 0.9375 0
2.35619 0.9375 0
2.15984 1.25 0
2.35619 1.25 0
2.35619 0 0
2.55254 0 0
2.35619 0.3125 0
2.55254 0.3125 0
2.55254 0 0
2.74889 0 0
2.55254 0.3125 0
2.74889 0.3125 0
2.35619 0.3125 0
2.55254 0.3125 0
2.35619 0.625 0
2.55254 0.625 0
2.55254 0.3125 0
2.74889 0.3125 0
2.55254 0.625 0
2.74889 0.625 0
2.74889 0 0
2.94524 0 0
2.74889 0.3125 0
2.94524 0.3125 0
2.94524 0 0
3.14159 0 0
2.94524 0.3125 0
3.14159 0.3125 0
2.74889 0.3125 0
2.94524 0.3125 0
2.74889 0.625 0
2.94524 0.625 0
2.94524 0.3125 0
3.14159 0.3125 0
2.94524 0.625 0
3.14159 0.625 0
2.35619 0.625 0
2.55254 0.625 0
2.35619 0.9375 0
2.55254 0.9375 0
2.55254 0.625 0
2.74889 0.625 0
2.55254 0.9375 0
2.74889 0.9375 0
2.35619 0.9375 0
2.55254 0.9375 0
2.35619 1.25 0
2.55254 1.25 0
2.55254 0.9375 0
2.74889 0.9375 0
2.55254 1.25 0
2.74889 1.25 0
2.74889 0.625 0
2.94524 0.625 0
2.74889 0.9375 0
2.94524 0.9375 0
2.94524 0.625 0
3.14159 0.625 0
2.94524 0.9375 0
3.14159 0.9375 0
2.74889 0.9375 0
2.94524 0.9375 0
2.74889 1.25 0
2.94524 1.25 0
2.94524 0.9375 0
3.14159 0.9375 0
2.94524 1.25 0
3.14159 1.25 0
1.5708 1.25 0
1.76715 1.25 0
1.5708 1.5625 0
1.76715 1.5625 0
1.76715 1.25 0
1.9635 1.25 0
1.76715 1.5625 0
1.9635 1.5625 0
1.5708 1.5625 0
1.76715 1.5625 0
1.5708 1.875 0
1.76715 1.875 0
1.76715 1.5625 0
1.9635 1.5625 0
1.76715 1.875 0
1.9635 1.875 0
1.9635 1.25 0
2.15984 1.25 0
1.9635 1.5625 0
2.15984 1.5625 0
2.15984 1.25 0
2.35619 1.25 0
2.15984 1.5625 0
2.35619 1.5625 0
1.9635 1.5625 0
2.15984 1.5625 0
1.9635 1.875 0
2.15984 1.875 0
2.15984 1.5625 0
2.35619 1.5625 0
2.15984 1.875 0
2.35619 1.875 0
1.5708 1.875 0
1.76715 1.875 0
1.5708 2.1875 0
1.76715 2.1875 0
1.76715 1.875 0
1.9635 1.875 0
1.76715 2.1875 0
1.9635 2.1875 0
1.5708 2.1875 0
1.76715 2.1875 0
1.5708 2.5 0
1.76715 2.5 0
1.76715 2.1875 0
1.9635 2.1875 0
1.76715 2.5 0
1.9635 2.5 0
1.9635 1.875 0
2.15984 1.875 0
1.9635 2.1875 0
2.15984 2.1875 0
2.15984 1.875 0
2.35619 1.875 0
2.15984 2.1875 0
2.35619 2.1875 0
1.9635 2.1875 0
2.15984 2.1875 0
1.9635 2.5 0
2.15984 2.5 0
2.15984 2.1875 0
2.35619 2.1875 0
2.15984 2.5 0
2.35619 2.5 0
2.35619 1.25 0
2.55254 1.25 0
2.35619 1.5625 0
2.55254 1.5625 0
2.55254 1.25 0
2.74889 1.25 0
2.55254 1.5625 0
2.74889 1.5625 0
2.35619 1.5625 0
2.55254 1.5625 0
2.35619 1.875 0
2.55254 1.875 0
2.55254 1.5625 0
2.74889 1.5625 0
2.55254 1.875 0
2.74889 1.875 0
2.74889 1.25 0
2.94524 1.25 0
2.74889 1.5625 0
2.94524 1.5625 0
2.94524 1.25 0
3.14159 1.25 0
2.94524 1.5625 0
3.14159 1.5625 0
2.74889 1.5625 0
2.94524 1.5625 0
2.74889 1.875 0
2.94524 1.875 0
2.94524 1.5625 0
3.14159 1.5625 0
2.94524 1.875 0
3.14159 1.875 0
2.35619 1.875 0
2.55254 1.875 0
2.35619 2.1875 0
2.55254 2.1875 0
2.55254 1.875 0
2.74889 1.875 0
2.55254 2.1875 0
2.74889 2.1875 0
2.35619 2.1875 0
2.55254 2.1875 0
2.35619 2.5 0
2.55254 2.5 0
2.55254 2.1875 0
2.74889 2.1875 0
2.55254 2.5 0
2.74889 2.5 0
2.74889 1.875 0
2.94524 1.875 0
2.74889 2.1875 0
2.94524 2.1875 0
2.94524 1.875 0
3.14159 1.875 0
2.94524 2.1875 0
3.14159 2.1875 0
2.74889 2.1875 0
2.94524 2.1875 0
2.74889 2.5 0
2.94524 2.5 0
2.94524 2.1875 0
3.14159 2.1875 0
2.94524 2.5 0
3.14159 2.5 0
0 2.5 0
0.19635 2.5 0
0 2.8125 0
0.19635 2.8125 0
0.19635 2.5 0
0.392699 2.5 0
0.19635 2.8125 0
0.392699 2.8125 0
0 2.8125 0
0.19635 2.8125 0
0 3.125 0
0.19635 3.125 0
0.19635 2.8125 0
0.392699 2.8125 0
0.19635 3.125 0
0.392699 3.125 0
0.392699 2.5 0
0.589049 2.5 0
0.392699 2.8125 0
0.589049 2.8125 0
0.589049 2.5 0
0.785398 2.5 0
0.589049 2.8125 0
0.785398 2.8125 0
0.392699 2.8125 0
0.589049 2.8125 0
0.392699 3.125 0
0.589049 3.125 0
0.589049 2.8125 0
0.785398 2.8125 0
0.589049 3.125 0
0.785398 3.125 0
0 3.125 0
0.19635 3.125 0
0 3.4375 0
0.19635 3.4375 0
0.19635 3.125 0
0.392699 3.125 0
0.19635 3.4375 0
0.392699 3.4375 0
0 3.4375 0
0.19635 3.4375 0
0 3.75 0
0.19635 3.75 0
0.19635 3.4375 0
0.392699 3.4375 0
0.19635 3.75 0
0.392699 3.75 0
0.392699 3.125 0
0.589049 3.125 0
0.392699 3.4375 0
0.589049 3.4375 0
0.589049 3.125 0
0.785398 3.125 0
0.589049 3.4375 0
0.785398 3.4375 0
0.392699 3.4375 0
0.589049 3.4375 0
0.392699 3.75 0
0.589049 3.75 0
0.589049 3.4375 0
0.785398 3.4375 0
0.589049 3.75 0
0.785398 3.75 0
0.785398 2.5 0
0.981748 2.5 0
0.785398 2.8125 0
0.981748 2.8125 0
0.981748 2.5 0
1.1781 2.5 0
0.981748 2.8125 0
1.1781 2.8125 0
0.785398 2.8125 0
0.981748 2.8125 0
0.785398 3.125 0
0.981748 3.125 0
0.981748 2.8125 0
1.1781 2.8125 0
0.981748 3.125 0
1.1781 3.125 0
1.1781 2.5 0
1.37445 2.5 0
1.1781 2.8125 0
1.37445 2.8125 0
1.37445 2.5 0
1.5708 2.5 0
1.37445 2.8125 0
1.5708 2.8125 0
1.1781 2.8125 0
1.37445 2.8125 0
1.1781 3.125 0
1.37445 3.125 0
1.37445 2.8125 0
1.5708 2.8125 0
1.37445 3.125 0
1.5708 3.125 0
0.785398 3.125 0
0.981748 3.125 0
0.785398 3.4375 0
0.981748 3.4375 0
0.981748 3.125 0
1.1781 3.125 0
0.981748 3.4375 0
1.1781 3.4375 0
0.785398 3.4375 0
0.981748 3.4375 0
[...]
POINT_DATA 20480
VECTORS uf double
0 1 0
4.48762e-14 1 0
0 1 0
-6.32178e-14 1 0
4.48762e-14 1 0
2.87959e-14 1 0
-6.32178e-14 1 0
-4.47902e-14 1 0
0 1 0
5.6043e-14 1 0
0 1 0
-5.456e-14 1 0
5.6043e-14 1 0
4.50294e-14 1 0
-5.456e-14 1 0
-3.60188e-14 1 0
2.87959e-14 1 0
6.1831e-15 1 0
-4.47902e-14 1 0
-1.89826e-14 1 0
6.1831e-15 1 0
-1.23092e-14 1 0
-1.89826e-14 1 0
1.61754e-14 1 0
4.50294e-14 1 0
1.55135e-14 1 0
-3.60188e-14 1 0
-1.04883e-14 1 0
1.55135e-14 1 0
-1.62161e-14 1 0
-1.04883e-14 1 0
-3.63847e-15 1 0
0 1 0
5.41346e-14 1 0
0 1 0
-6.17646e-14 1 0
5.41346e-14 1 0
2.53522e-14 1 0
-6.17646e-14 1 0
-3.89557e-14 1 0
0 1 0
3.52476e-14 1 0
0 1 0
-2.86702e-14 1 0
3.52476e-14 1 0
2.80431e-14 1 0
-2.86702e-14 1 0
-2.27714e-14 1 0
2.53522e-14 1 0
-1.84116e-15 1 0
-3.89557e-14 1 0
1.54804e-14 1 0
-1.84116e-15 1 0
4.79792e-15 1 0
1.54804e-14 1 0
-2.09266e-15 1 0
2.80431e-14 1 0
-3.13539e-14 1 0
-2.27714e-14 1 0
1.62557e-14 1 0
-3.13539e-14 1 0
-7.57912e-15 1 0
1.62557e-14 1 0
3.04316e-15 1 0
-1.23092e-14 1 0
-1.64486e-14 1 0
1.61754e-14 1 0
2.53006e-14 1 0
-1.64486e-14 1 0
-1.75952e-14 1 0
2.53006e-14 1 0
2.39383e-14 1 0
-1.62161e-14 1 0
-2.74934e-14 1 0
-3.63847e-15 1 0
8.08362e-15 1 0
-2.74934e-14 1 0
-4.46039e-14 1 0
8.08362e-15 1 0
3.38825e-14 1 0
-1.75952e-14 1 0
-2.24667e-14 1 0
2.39383e-14 1 0
1.34104e-14 1 0
-2.24667e-14 1 0
-2.43789e-14 1 0
1.34104e-14 1 0
1.84738e-14 1 0
-4.46039e-14 1 0
-3.77445e-14 1 0
3.38825e-14 1 0
3.32509e-14 1 0
-3.77445e-14 1 0
-3.71328e-14 1 0
3.32509e-14 1 0
1.22263e-14 1 0
4.79792e-15 1 0
-1.4865e-14 1 0
-2.09266e-15 1 0
3.09493e-15 1 0
-1.4865e-14 1 0
-4.63994e-14 1 0
3.09493e-15 1 0
2.57343e-14 1 0
-7.57912e-15 1 0
-7.99182e-15 1 0
3.04316e-15 1 0
2.03764e-14 1 0
-7.99182e-15 1 0
-7.72565e-15 1 0
2.03764e-14 1 0
1.70378e-14 1 0
-4.63994e-14 1 0
-4.0648e-14 1 0
2.57343e-14 1 0
2.79826e-14 1 0
-4.0648e-14 1 0
-2.64062e-14 1 0
2.79826e-14 1 0
2.11755e-14 1 0
-7.72565e-15 1 0
-5.6696e-15 1 0
1.70378e-14 1 0
1.36213e-14 1 0
-5.6696e-15 1 0
1.8572e-16 1 0
1.36213e-14 1 0
1.54318e-14 1 0
0 1 0
2.80462e-14 1 0
0 1 0
-2.07667e-14 1 0
2.80462e-14 1 0
1.71694e-14 1 0
-2.07667e-14 1 0
-8.35178e-15 1 0
0 1 0
2.19051e-14 1 0
0 1 0
-1.71071e-14 1 0
2.19051e-14 1 0
6.30571e-17 1 0
-1.71071e-14 1 0
-2.23523e-15 1 0
1.71694e-14 1 0
-1.28998e-14 1 0
-8.35178e-15 1 0
1.70068e-14 1 0
-1.28998e-14 1 0
-3.50632e-15 1 0
1.70068e-14 1 0
1.38812e-14 1 0
6.30571e-17 1 0
-2.14139e-14 1 0
-2.23523e-15 1 0
1.223e-14 1 0
-2.14139e-14 1 0
-2.68281e-14 1 0
1.223e-14 1 0
2.59603e-14 1 0
0 1 0
1.73121e-14 1 0
0 1 0
-2.04948e-14 1 0
1.73121e-14 1 0
1.29681e-14 1 0
-2.04948e-14 1 0
-1.80378e-14 1 0
0 1 0
1.59608e-14 1 0
0 1 0
-1.82911e-14 1 0
1.59608e-14 1 0
1.22833e-15 1 0
-1.82911e-14 1 0
6.38044e-15 1 0
1.29681e-14 1 0
-4.49707e-15 1 0
-1.80378e-14 1 0
2.34516e-15 1 0
-4.49707e-15 1 0
-1.78424e-14 1 0
2.34516e-15 1 0
5.16667e-15 1 0
1.22833e-15 1 0
-5.99489e-15 1 0
6.38044e-15 1 0
1.72616e-14 1 0
-5.99489e-15 1 0
-1.10673e-15 1 0
1.72616e-14 1 0
1.23546e-14 1 0
-3.50632e-15 1 0
-3.4515e-15 1 0
1.38812e-14 1 0
-7.73373e-15 1 0
-3.4515e-15 1 0
5.86898e-15 1 0
-7.73373e-15 1 0
-1.70038e-14 1 0
-2.68281e-14 1 0
1.86318e-14 1 0
2.59603e-14 1 0
-1.95203e-14 1 0
1.86318e-14 1 0
1.8185e-14 1 0
-1.95203e-14 1 0
-8.89438e-15 1 0
5.86898e-15 1 0
6.2518e-16 1 0
-1.70038e-14 1 0
3.69242e-15 1 0
6.2518e-16 1 0
-1.87417e-15 1 0
3.69242e-15 1 0
2.90425e-15 1 0
1.8185e-14 1 0
9.6973e-15 1 0
-8.89438e-15 1 0
-1.5786e-14 1 0
9.6973e-15 1 0
1.76687e-14 1 0
-1.5786e-14 1 0
-2.38379e-14 1 0
-1.78424e-14 1 0
1.0137e-14 1 0
5.16667e-15 1 0
-5.26339e-15 1 0
1.0137e-14 1 0
1.03971e-14 1 0
-5.26339e-15 1 0
-1.37981e-14 1 0
-1.10673e-15 1 0
4.62042e-15 1 0
1.23546e-14 1 0
-2.34717e-15 1 0
4.62042e-15 1 0
1.64122e-14 1 0
-2.34717e-15 1 0
-3.25577e-15 1 0
1.03971e-14 1 0
1.96882e-14 1 0
-1.37981e-14 1 0
-1.66979e-14 1 0
1.96882e-14 1 0
2.46659e-14 1 0
-1.66979e-14 1 0
-1.33661e-14 1 0
1.64122e-14 1 0
2.10425e-14 1 0
-3.25577e-15 1 0
-1.43988e-14 1 0
2.10425e-14 1 0
1.40438e-14 1 0
-1.43988e-14 1 0
-1.06994e-14 1 0
-2.43789e-14 1 0
-1.82675e-14 1 0
1.84738e-14 1 0
7.79784e-15 1 0
-1.82675e-14 1 0
-2.42764e-14 1 0
7.79784e-15 1 0
2.17186e-14 1 0
-3.71328e-14 1 0
-3.52333e-14 1 0
1.22263e-14 1 0
2.32521e-14 1 0
-3.52333e-14 1 0
-4.11768e-14 1 0
2.32521e-14 1 0
2.55792e-14 1 0
-2.42764e-14 1 0
-2.45414e-14 1 0
2.17186e-14 1 0
1.42562e-14 1 0
-2.45414e-14 1 0
-1.90188e-14 1 0
1.42562e-14 1 0
9.84124e-15 1 0
-4.11768e-14 1 0
-3.45206e-14 1 0
2.55792e-14 1 0
1.72905e-14 1 0
-3.45206e-14 1 0
-3.00322e-14 1 0
1.72905e-14 1 0
2.52915e-14 1 0
-2.64062e-14 1 0
-3.83882e-14 1 0
2.11755e-14 1 0
2.53228e-14 1 0
-3.83882e-14 1 0
-4.48058e-14 1 0
2.53228e-14 1 0
2.94714e-14 1 0
1.8572e-16 1 0
-6.12085e-15 1 0
1.54318e-14 1 0
1.03131e-14 1 0
-6.12085e-15 1 0
-6.6555e-15 1 0
1.03131e-14 1 0
1.11178e-14 1 0
-4.48058e-14 1 0
-2.31415e-14 1 0
2.94714e-14 1 0
1.84355e-14 1 0
-2.31415e-14 1 0
-4.20807e-14 1 0
1.84355e-14 1 0
2.6882e-14 1 0
-6.6555e-15 1 0
-7.27014e-15 1 0
1.11178e-14 1 0
1.59547e-14 1 0
-7.27014e-15 1 0
-5.9465e-15 1 0
1.59547e-14 1 0
1.70152e-14 1 0
-1.90188e-14 1 0
-2.6187e-14 1 0
9.84124e-15 1 0
2.60133e-14 1 0
-2.6187e-14 1 0
-2.79317e-14 1 0
2.60133e-14 1 0
2.18947e-14 1 0
-3.00322e-14 1 0
-4.28353e-14 1 0
2.52915e-14 1 0
3.11436e-14 1 0
-4.28353e-14 1 0
-3.85582e-14 1 0
3.11436e-14 1 0
2.99877e-14 1 0
-2.79317e-14 1 0
-2.13378e-14 1 0
2.18947e-14 1 0
1.74962e-14 1 0
-2.13378e-14 1 0
-1.95514e-14 1 0
1.74962e-14 1 0
2.71997e-14 1 0
-3.85582e-14 1 0
-3.35724e-14 1 0
2.99877e-14 1 0
2.63577e-14 1 0
-3.35724e-14 1 0
-4.61842e-14 1 0
2.63577e-14 1 0
3.32898e-14 1 0
-4.20807e-14 1 0
-4.10791e-14 1 0
2.6882e-14 1 0
3.49804e-14 1 0
-4.10791e-14 1 0
-3.88347e-14 1 0
3.49804e-14 1 0
2.92454e-14 1 0
-5.9465e-15 1 0
-1.56999e-14 1 0
1.70152e-14 1 0
2.67099e-14 1 0
-1.56999e-14 1 0
-4.06388e-15 1 0
2.67099e-14 1 0
5.36653e-15 1 0
-3.88347e-14 1 0
-3.67991e-14 1 0
2.92454e-14 1 0
2.03888e-14 1 0
-3.67991e-14 1 0
-4.54431e-14 1 0
2.03888e-14 1 0
3.31824e-14 1 0
-4.06388e-15 1 0
-5.11055e-15 1 0
5.36653e-15 1 0
2.72915e-14 1 0
-5.11055e-15 1 0
-1.84768e-14 1 0
2.72915e-14 1 0
2.7557e-14 1 0
-1.87417e-15 1 0
3.99246e-15 1 0
2.90425e-15 1 0
9.31672e-16 1 0
3.99246e-15 1 0
3.10518e-15 1 0
9.31672e-16 1 0
-1.33641e-15 1 0
1.76687e-14 1 0
1.51739e-14 1 0
-2.38379e-14 1 0
-5.15063e-15 1 0
1.51739e-14 1 0
2.42566e-14 1 0
-5.15063e-15 1 0
-1.78005e-14 1 0
3.10518e-15 1 0
-2.7321e-15 1 0
-1.33641e-15 1 0
7.89509e-15 1 0
-2.7321e-15 1 0
3.65905e-15 1 0
7.89509e-15 1 0
-7.20827e-15 1 0
2.42566e-14 1 0
1.0809e-14 1 0
-1.78005e-14 1 0
-3.34959e-15 1 0
1.0809e-14 1 0
2.8722e-14 1 0
-3.34959e-15 1 0
-1.96906e-14 1 0
2.46659e-14 1 0
7.25671e-15 1 0
-1.33661e-14 1 0
-5.79379e-16 1 0
7.25671e-15 1 0
1.61312e-14 1 0
-5.79379e-16 1 0
-5.94351e-15 1 0
1.40438e-14 1 0
1.60163e-14 1 0
-1.06994e-14 1 0
-1.12658e-14 1 0
1.60163e-14 1 0
1.56352e-14 1 0
-1.12658e-14 1 0
-5.76384e-15 1 0
1.61312e-14 1 0
8.13793e-15 1 0
-5.94351e-15 1 0
-1.76827e-14 1 0
8.13793e-15 1 0
1.6546e-14 1 0
-1.76827e-14 1 0
-1.3357e-14 1 0
1.56352e-14 1 0
3.30228e-14 1 0
-5.76384e-15 1 0
-2.13303e-14 1 0
3.30228e-14 1 0
2.13975e-14 1 0
-2.13303e-14 1 0
-1.09653e-14 1 0
3.65905e-15 1 0
-1.56957e-14 1 0
-7.20827e-15 1 0
1.84595e-14 1 0
-1.56957e-14 1 0
2.63375e-14 1 0
1.84595e-14 1 0
-1.65903e-14 1 0
2.8722e-14 1 0
-6.56098e-15 1 0
-1.96906e-14 1 0
1.21663e-14 1 0
-6.56098e-15 1 0
2.7299e-14 1 0
1.21663e-14 1 0
-1.4299e-14 1 0
2.63375e-14 1 0
-1.18543e-14 1 0
-1.65903e-14 1 0
1.65616e-14 1 0
-1.18543e-14 1 0
1.01923e-14 1 0
1.65616e-14 1 0
-2.46178e-15 1 0
2.7299e-14 1 0
5.00117e-15 1 0
-1.4299e-14 1 0
1.66657e-15 1 0
5.00117e-15 1 0
1.10706e-14 1 0
1.66657e-15 1 0
-6.9274e-15 1 0
1.6546e-14 1 0
-3.27005e-16 1 0
-1.3357e-14 1 0
-5.04707e-15 1 0
-3.27005e-16 1 0
1.76171e-14 1 0
-5.04707e-15 1 0
-2.19038e-14 1 0
2.13975e-14 1 0
1.03614e-14 1 0
-1.09653e-14 1 0
1.43991e-14 1 0
1.03614e-14 1 0
2.36923e-14 1 0
1.43991e-14 1 0
-1.66127e-14 1 0
1.76171e-14 1 0
1.67031e-15 1 0
-2.19038e-14 1 0
6.60784e-15 1 0
1.67031e-15 1 0
1.35722e-14 1 0
6.60784e-15 1 0
-7.0968e-15 1 0
2.36923e-14 1 0
-8.44527e-15 1 0
-1.66127e-14 1 0
1.51741e-14 1 0
-8.44527e-15 1 0
1.63948e-14 1 0
1.51741e-14 1 0
-1.36897e-14 1 0
0 1 0
2.23172e-14 1 0
0 1 0
-2.04249e-14 1 0
2.23172e-14 1 0
-3.35202e-15 1 0
-2.04249e-14 1 0
1.31705e-15 1 0
0 1 0
2.08986e-14 1 0
0 1 0
-1.68285e-14 1 0
2.08986e-14 1 0
-7.69756e-16 1 0
-1.68285e-14 1 0
4.41857e-15 1 0
-3.35202e-15 1 0
-1.5299e-14 1 0
1.31705e-15 1 0
1.83399e-15 1 0
-1.5299e-14 1 0
-7.00034e-15 1 0
1.83399e-15 1 0
7.59516e-15 1 0
-7.69756e-16 1 0
7.7643e-15 1 0
4.41857e-15 1 0
4.49264e-15 1 0
7.7643e-15 1 0
-1.0114e-14 1 0
4.49264e-15 1 0
1.6405e-14 1 0
0 1 0
1.7898e-14 1 0
0 1 0
-2.03723e-14 1 0
1.7898e-14 1 0
4.01778e-15 1 0
-2.03723e-14 1 0
2.24321e-15 1 0
0 1 0
2.09854e-14 1 0
0 1 0
-8.80804e-15 1 0
2.09854e-14 1 0
-1.73308e-16 1 0
-8.80804e-15 1 0
3.64792e-15 1 0
4.01778e-15 1 0
-5.95143e-15 1 0
2.24321e-15 1 0
6.43245e-15 1 0
-5.95143e-15 1 0
-1.44212e-14 1 0
6.43245e-15 1 0
2.17345e-14 1 0
-1.73308e-16 1 0
1.95836e-15 1 0
3.64792e-15 1 0
7.73813e-15 1 0
1.95836e-15 1 0
-1.899e-14 1 0
7.73813e-15 1 0
2.46709e-14 1 0
-7.00034e-15 1 0
1.44056e-14 1 0
7.59516e-15 1 0
-1.30006e-14 1 0
1.44056e-14 1 0
5.94617e-15 1 0
-1.30006e-14 1 0
-9.01679e-15 1 0
-1.0114e-14 1 0
1.52338e-14 1 0
1.6405e-14 1 0
-1.07781e-14 1 0
1.52338e-14 1 0
1.92217e-14 1 0
-1.07781e-14 1 0
-8.63668e-15 1 0
5.94617e-15 1 0
2.04616e-14 1 0
-9.01679e-15 1 0
-1.14375e-14 1 0
2.04616e-14 1 0
2.47697e-14 1 0
-1.14375e-14 1 0
-1.75048e-14 1 0
1.92217e-14 1 0
1.64517e-14 1 0
-8.63668e-15 1 0
-1.47357e-14 1 0
1.64517e-14 1 0
2.4374e-14 1 0
-1.47357e-14 1 0
-1.36138e-14 1 0
-1.44212e-14 1 0
1.57879e-14 1 0
2.17345e-14 1 0
-6.49403e-15 1 0
1.57879e-14 1 0
1.26208e-14 1 0
-6.49403e-15 1 0
-6.82939e-15 1 0
-1.899e-14 1 0
5.04611e-15 1 0
2.46709e-14 1 0
8.12973e-16 1 0
5.04611e-15 1 0
8.2745e-15 1 0
8.12973e-16 1 0
-3.96665e-15 1 0
1.26208e-14 1 0
2.60122e-14 1 0
-6.82939e-15 1 0
-1.71716e-14 1 0
2.60122e-14 1 0
1.56125e-14 1 0
-1.71716e-14 1 0
-8.11878e-15 1 0
8.2745e-15 1 0
8.90656e-15 1 0
-3.96665e-15 1 0
5.14152e-15 1 0
8.90656e-15 1 0
1.07429e-14 1 0
5.14152e-15 1 0
-9.99982e-15 1 0
0 1 0
2.72537e-14 1 0
0 1 0
-3.35769e-14 1 0
2.72537e-14 1 0
3.20924e-14 1 0
-3.35769e-14 1 0
-2.67311e-14 1 0
0 1 0
1.14083e-14 1 0
0 1 0
-4.79582e-15 1 0
1.14083e-14 1 0
4.97738e-16 1 0
-4.79582e-15 1 0
2.28472e-15 1 0
3.20924e-14 1 0
1.47589e-14 1 0
-2.67311e-14 1 0
-1.75121e-14 1 0
1.47589e-14 1 0
-1.21926e-14 1 0
-1.75121e-14 1 0
1.75231e-14 1 0
4.97738e-16 1 0
1.13975e-14 1 0
2.28472e-15 1 0
-3.41651e-15 1 0
1.13975e-14 1 0
-1.46455e-14 1 0
-3.41651e-15 1 0
1.5376e-14 1 0
0 1 0
5.37243e-15 1 0
0 1 0
7.07163e-16 1 0
5.37243e-15 1 0
-3.32508e-16 1 0
7.07163e-16 1 0
6.22733e-15 1 0
0 1 0
-1.68238e-15 1 0
0 1 0
1.08757e-16 1 0
-1.68238e-15 1 0
-2.33642e-15 1 0
1.08757e-16 1 0
-5.22497e-15 1 0
-3.32508e-16 1 0
6.71847e-15 1 0
6.22733e-15 1 0
-4.28212e-15 1 0
6.71847e-15 1 0
-7.11143e-15 1 0
-4.28212e-15 1 0
9.74463e-15 1 0
-2.33642e-15 1 0
7.05535e-15 1 0
-5.22497e-15 1 0
-1.43298e-14 1 0
7.05535e-15 1 0
-7.30066e-15 1 0
-1.43298e-14 1 0
4.20912e-15 1 0
-1.21926e-14 1 0
-1.6285e-15 1 0
1.75231e-14 1 0
1.08494e-14 1 0
-1.6285e-15 1 0
-2.75922e-15 1 0
1.08494e-14 1 0
9.32398e-15 1 0
-1.46455e-14 1 0
1.08649e-15 1 0
1.5376e-14 1 0
5.92104e-15 1 0
1.08649e-15 1 0
-4.38681e-15 1 0
5.92104e-15 1 0
1.56597e-14 1 0
-2.75922e-15 1 0
-1.41597e-14 1 0
9.32398e-15 1 0
1.20628e-14 1 0
-1.41597e-14 1 0
1.9871e-15 1 0
1.20628e-14 1 0
6.73331e-15 1 0
-4.38681e-15 1 0
-1.88915e-15 1 0
1.56597e-14 1 0
1.53236e-14 1 0
-1.88915e-15 1 0
-6.66982e-16 1 0
1.53236e-14 1 0
1.23087e-14 1 0
-7.11143e-15 1 0
-6.07623e-15 1 0
9.74463e-15 1 0
6.32418e-15 1 0
-6.07623e-15 1 0
-9.51725e-15 1 0
6.32418e-15 1 0
1.31346e-14 1 0
-7.30066e-15 1 0
-4.29025e-15 1 0
4.20912e-15 1 0
6.80652e-15 1 0
-4.29025e-15 1 0
-6.09251e-15 1 0
6.80652e-15 1 0
4.53137e-16 1 0
-9.51725e-15 1 0
-9.09378e-15 1 0
1.31346e-14 1 0
1.07625e-14 1 0
-9.09378e-15 1 0
-6.41236e-15 1 0
1.07625e-14 1 0
5.3838e-15 1 0
-6.09251e-15 1 0
-6.92271e-15 1 0
4.53137e-16 1 0
2.13173e-15 1 0
-6.92271e-15 1 0
-4.07424e-15 1 0
2.13173e-15 1 0
2.53698e-15 1 0
2.47697e-14 1 0
1.30464e-14 1 0
-1.75048e-14 1 0
-3.75089e-15 1 0
1.30464e-14 1 0
1.16808e-14 1 0
-3.75089e-15 1 0
-7.30121e-16 1 0
2.4374e-14 1 0
1.46153e-14 1 0
-1.36138e-14 1 0
-4.71066e-15 1 0
1.46153e-14 1 0
1.69497e-14 1 0
-4.71066e-15 1 0
-1.19369e-14 1 0
1.16808e-14 1 0
2.47317e-14 1 0
-7.30121e-16 1 0
-2.0399e-15 1 0
2.47317e-14 1 0
2.17377e-14 1 0
-2.0399e-15 1 0
-5.04863e-15 1 0
1.69497e-14 1 0
1.26361e-14 1 0
-1.19369e-14 1 0
-4.44789e-15 1 0
1.26361e-14 1 0
1.98661e-14 1 0
-4.44789e-15 1 0
-1.11541e-14 1 0
1.56125e-14 1 0
1.02087e-14 1 0
-8.11878e-15 1 0
-6.20122e-15 1 0
1.02087e-14 1 0
1.5168e-14 1 0
-6.20122e-15 1 0
-8.96127e-15 1 0
1.07429e-14 1 0
6.81364e-15 1 0
-9.99982e-15 1 0
-4.65159e-15 1 0
6.81364e-15 1 0
8.87699e-15 1 0
-4.65159e-15 1 0
-3.7967e-15 1 0
1.5168e-14 1 0
7.35222e-15 1 0
-8.96127e-15 1 0
-4.83761e-15 1 0
7.35222e-15 1 0
1.65237e-14 1 0
-4.83761e-15 1 0
-1.66676e-14 1 0
8.87699e-15 1 0
5.81683e-15 1 0
-3.7967e-15 1 0
2.39119e-15 1 0
5.81683e-15 1 0
9.43135e-15 1 0
2.39119e-15 1 0
1.86653e-15 1 0
2.17377e-14 1 0
2.30698e-15 1 0
-5.04863e-15 1 0
4.07773e-15 1 0
2.30698e-15 1 0
2.7481e-14 1 0
4.07773e-15 1 0
1.1044e-15 1 0
1.98661e-14 1 0
9.77336e-15 1 0
-1.11541e-14 1 0
-4.8343e-15 1 0
9.77336e-15 1 0
6.04909e-15 1 0
-4.8343e-15 1 0
-3.66355e-15 1 0
2.7481e-14 1 0
-2.57454e-15 1 0
1.1044e-15 1 0
1.1083e-14 1 0
-2.57454e-15 1 0
2.43671e-14 1 0
1.1083e-14 1 0
-7.96495e-15 1 0
6.04909e-15 1 0
6.47227e-15 1 0
-3.66355e-15 1 0
4.27627e-16 1 0
6.47227e-15 1 0
1.53603e-14 1 0
4.27627e-16 1 0
-1.20448e-14 1 0
1.65237e-14 1 0
9.58157e-15 1 0
-1.66676e-14 1 0
-8.04364e-15 1 0
9.58157e-15 1 0
1.68472e-14 1 0
-8.04364e-15 1 0
-2.32559e-14 1 0
9.43135e-15 1 0
-2.05014e-17 1 0
1.86653e-15 1 0
1.62472e-14 1 0
-2.05014e-17 1 0
1.91405e-14 1 0
1.62472e-14 1 0
-4.68573e-15 1 0
1.68472e-14 1 0
1.04777e-14 1 0
-2.32559e-14 1 0
-7.349e-15 1 0
1.04777e-14 1 0
1.49349e-14 1 0
-7.349e-15 1 0
-9.93674e-15 1 0
1.91405e-14 1 0
-1.42764e-15 1 0
-4.68573e-15 1 0
4.48473e-15 1 0
-1.42764e-15 1 0
1.02265e-14 1 0
4.48473e-15 1 0
2.82671e-15 1 0
1.9871e-15 1 0
-2.79544e-15 1 0
6.73331e-15 1 0
1.1373e-14 1 0
-2.79544e-15 1 0
-5.86273e-15 1 0
1.1373e-14 1 0
9.44458e-15 1 0
-6.66982e-16 1 0
-5.68616e-15 1 0
1.23087e-14 1 0
1.06603e-14 1 0
-5.68616e-15 1 0
-2.2735e-15 1 0
1.06603e-14 1 0
8.9999e-15 1 0
-5.86273e-15 1 0
-1.15479e-14 1 0
9.44458e-15 1 0
9.88101e-15 1 0
-1.15479e-14 1 0
-4.37928e-15 1 0
9.88101e-15 1 0
-3.66055e-16 1 0
-2.2735e-15 1 0
-2.29085e-15 1 0
8.9999e-15 1 0
1.2398e-14 1 0
-2.29085e-15 1 0
-1.36904e-15 1 0
1.2398e-14 1 0
1.80001e-14 1 0
-6.41236e-15 1 0
4.87235e-17 1 0
5.3838e-15 1 0
4.50163e-15 1 0
4.87235e-17 1 0
-2.57933e-15 1 0
4.50163e-15 1 0
1.1281e-14 1 0
-4.07424e-15 1 0
-4.92423e-15 1 0
2.53698e-15 1 0
4.88152e-15 1 0
-4.92423e-15 1 0
-1.01471e-14 1 0
4.88152e-15 1 0
5.66859e-15 1 0
-2.57933e-15 1 0
6.24996e-16 1 0
1.1281e-14 1 0
1.15182e-18 1 0
6.24996e-16 1 0
-9.17431e-15 1 0
1.15182e-18 1 0
6.59358e-15 1 0
-1.01471e-14 1 0
-6.38581e-15 1 0
5.66859e-15 1 0
5.32084e-15 1 0
-6.38581e-15 1 0
-7.12142e-15 1 0
5.32084e-15 1 0
6.60048e-15 1 0
-4.37928e-15 1 0
-2.56306e-14 1 0
-3.66055e-16 1 0
2.03841e-14 1 0
-2.56306e-14 1 0
-2.33865e-16 1 0
2.03841e-14 1 0
6.15713e-15 1 0
-1.36904e-15 1 0
-5.48106e-15 1 0
1.80001e-14 1 0
1.03552e-14 1 0
-5.48106e-15 1 0
-6.97203e-15 1 0
1.03552e-14 1 0
1.30368e-14 1 0
-2.33865e-16 1 0
-2.08214e-15 1 0
6.15713e-15 1 0
5.9106e-15 1 0
-2.08214e-15 1 0
3.59848e-15 1 0
5.9106e-15 1 0
-1.19201e-14 1 0
-6.97203e-15 1 0
-3.92154e-15 1 0
1.30368e-14 1 0
1.53962e-14 1 0
-3.92154e-15 1 0
9.74659e-15 1 0
1.53962e-14 1 0
1.23637e-15 1 0
-9.17431e-15 1 0
-5.8244e-15 1 0
6.59358e-15 1 0
7.01165e-15 1 0
-5.8244e-15 1 0
-2.27101e-15 1 0
7.01165e-15 1 0
-2.45577e-16 1 0
-7.12142e-15 1 0
-1.20812e-14 1 0
6.60048e-15 1 0
1.17189e-14 1 0
-1.20812e-14 1 0
-3.05261e-15 1 0
1.17189e-14 1 0
9.40003e-15 1 0
-2.27101e-15 1 0
-1.22074e-14 1 0
-2.45577e-16 1 0
1.5623e-14 1 0
-1.22074e-14 1 0
7.2898e-16 1 0
1.5623e-14 1 0
1.23235e-15 1 0
-3.05261e-15 1 0
-1.83024e-14 1 0
9.40003e-15 1 0
1.76209e-14 1 0
-1.83024e-14 1 0
9.44406e-15 1 0
1.76209e-14 1 0
-7.803e-15 1 0
-1.95514e-14 1 0
-5.70704e-15 1 0
2.71997e-14 1 0
8.17586e-15 1 0
-5.70704e-15 1 0
7.81919e-15 1 0
8.17586e-15 1 0
-1.84388e-14 1 0
-4.61842e-14 1 0
-3.03066e-14 1 0
3.32898e-14 1 0
1.47453e-14 1 0
-3.03066e-14 1 0
8.24426e-15 1 0
1.47453e-14 1 0
-5.08635e-15 1 0
7.81919e-15 1 0
-1.00276e-14 1 0
-1.84388e-14 1 0
2.17763e-14 1 0
-1.00276e-14 1 0
-1.4425e-14 1 0
2.17763e-14 1 0
3.3626e-14 1 0
8.24426e-15 1 0
-3.62623e-14 1 0
-5.08635e-15 1 0
2.98452e-14 1 0
-3.62623e-14 1 0
-4.55781e-14 1 0
2.98452e-14 1 0
4.03402e-14 1 0
-4.54431e-14 1 0
-3.60962e-14 1 0
3.31824e-14 1 0
3.31277e-14 1 0
-3.60962e-14 1 0
-3.24163e-14 1 0
3.31277e-14 1 0
2.60026e-14 1 0
-1.84768e-14 1 0
-6.09529e-15 1 0
2.7557e-14 1 0
1.50582e-14 1 0
-6.09529e-15 1 0
-3.10312e-16 1 0
1.50582e-14 1 0
1.15517e-14 1 0
-3.24163e-14 1 0
-3.85759e-14 1 0
2.60026e-14 1 0
2.41357e-14 1 0
-3.85759e-14 1 0
-3.89245e-14 1 0
2.41357e-14 1 0
3.02096e-14 1 0
-3.10312e-16 1 0
1.70832e-15 1 0
1.15517e-14 1 0
1.85324e-14 1 0
1.70832e-15 1 0
-2.43143e-14 1 0
1.85324e-14 1 0
3.26456e-14 1 0
-1.4425e-14 1 0
-2.7149e-15 1 0
3.3626e-14 1 0
7.42895e-15 1 0
-2.7149e-15 1 0
2.16509e-14 1 0
7.42895e-15 1 0
-1.18251e-14 1 0
-4.55781e-14 1 0
-2.4304e-15 1 0
4.03402e-14 1 0
-2.19198e-15 1 0
-2.4304e-15 1 0
1.3448e-14 1 0
-2.19198e-15 1 0
-9.82138e-15 1 0
2.16509e-14 1 0
2.44197e-14 1 0
-1.18251e-14 1 0
-1.74423e-14 1 0
2.44197e-14 1 0
2.22323e-14 1 0
-1.74423e-14 1 0
-1.87848e-14 1 0
1.3448e-14 1 0
3.22413e-14 1 0
-9.82138e-15 1 0
-2.77602e-14 1 0
3.22413e-14 1 0
2.45031e-14 1 0
-2.77602e-14 1 0
-1.44938e-14 1 0
-3.89245e-14 1 0
3.1712e-15 1 0
3.02096e-14 1 0
-2.44278e-15 1 0
3.1712e-15 1 0
1.35885e-14 1 0
-2.44278e-15 1 0
-9.45464e-15 1 0
-2.43143e-14 1 0
1.47145e-14 1 0
3.26456e-14 1 0
-2.48375e-15 1 0
1.47145e-14 1 0
2.2667e-15 1 0
-2.48375e-15 1 0
1.1479e-14 1 0
1.35885e-14 1 0
2.74982e-14 1 0
-9.45464e-15 1 0
-7.34219e-15 1 0
2.74982e-14 1 0
2.1174e-14 1 0
-7.34219e-15 1 0
1.11625e-14 1 0
2.2667e-15 1 0
-2.66623e-14 1 0
1.1479e-14 1 0
2.25368e-14 1 0
-2.66623e-14 1 0
-3.91944e-14 1 0
2.25368e-14 1 0
2.24398e-14 1 0
1.01923e-14 1 0
4.56049e-15 1 0
-2.46178e-15 1 0
1.31444e-14 1 0
4.56049e-15 1 0
1.31628e-14 1 0
1.31444e-14 1 0
-4.07401e-15 1 0
1.10706e-14 1 0
3.88085e-15 1 0
-6.9274e-15 1 0
-3.27476e-15 1 0
3.88085e-15 1 0
1.76879e-14 1 0
-3.27476e-15 1 0
-1.65799e-14 1 0
1.31628e-14 1 0
-4.95353e-15 1 0
-4.07401e-15 1 0
-5.07182e-15 1 0
-4.95353e-15 1 0
-2.3422e-14 1 0
-5.07182e-15 1 0
4.50301e-14 1 0
1.76879e-14 1 0
2.87471e-14 1 0
-1.65799e-14 1 0
-1.09229e-14 1 0
2.87471e-14 1 0
-2.59237e-14 1 0
-1.09229e-14 1 0
3.8279e-14 1 0
1.35722e-14 1 0
7.10126e-15 1 0
-7.0968e-15 1 0
-6.19458e-15 1 0
7.10126e-15 1 0
2.85639e-14 1 0
-6.19458e-15 1 0
-1.38733e-14 1 0
1.63948e-14 1 0
1.84662e-14 1 0
-1.36897e-14 1 0
1.76533e-15 1 0
1.84662e-14 1 0
1.41116e-14 1 0
1.76533e-15 1 0
-4.49889e-15 1 0
2.85639e-14 1 0
1.67922e-14 1 0
-1.38733e-14 1 0
-4.70544e-15 1 0
1.67922e-14 1 0
-2.80919e-14 1 0
-4.70544e-15 1 0
3.65224e-14 1 0
1.41116e-14 1 0
8.666e-15 1 0
-4.49889e-15 1 0
-5.77232e-15 1 0
8.666e-15 1 0
-2.43065e-14 1 0
-5.77232e-15 1 0
2.36086e-14 1 0
-2.3422e-14 1 0
9.05951e-15 1 0
4.50301e-14 1 0
1.48444e-14 1 0
9.05951e-15 1 0
6.06831e-15 1 0
1.48444e-14 1 0
-7.17562e-15 1 0
-2.59237e-14 1 0
-3.29804e-15 1 0
3.8279e-14 1 0
7.84042e-15 1 0
-3.29804e-15 1 0
2.58126e-14 1 0
7.84042e-15 1 0
-1.86953e-14 1 0
6.06831e-15 1 0
2.20128e-14 1 0
-7.17562e-15 1 0
-2.36401e-14 1 0
2.20128e-14 1 0
1.77009e-14 1 0
-2.36401e-14 1 0
-1.20176e-14 1 0
2.58126e-14 1 0
3.11182e-14 1 0