# vtk DataFile Version 3.0
#This file was generated by the deal.II library on 2018/10/14 at 17:55:15
ASCII
DATASET UNSTRUCTURED_GRID

POINTS 20480 double
0 0 0
0.19635 0 0
0 0.311828 0
0.19635 0.311828 0
0.19635 0 0
0.392699 0 0
0.19635 0.311828 0
0.392699 0.311828 0
0 0.311828 0
0.19635 0.311828 0
0 0.624339 0
0.19635 0.624339 0
0.19635 0.311828 0
0.392699 0.311828 0
0.19635 0.624339 0
0.392699 0.624339 0
0.392699 0 0
0.589049 0 0
0.392699 0.311828 0
0.589049 0.311828 0
0.589049 0 0
0.785398 0 0
0.589049 0.311828 0
0.785398 0.311828 0
0.392699 0.311828 0
0.589049 0.311828 0
0.392699 0.624339 0
0.589049 0.624339 0
0.589049 0.311828 0
0.785398 0.311828 0
0.589049 0.624339 0
0.785398 0.624339 0
0 0.624339 0
0.19635 0.624339 0
0 0.93682 0
0.19635 0.93682 0
0.19635 0.624339 0
0.392699 0.624339 0
0.19635 0.93682 0
0.392699 0.93682 0
0 0.93682 0
0.19635 0.93682 0
0 1.24932 0
0.19635 1.24932 0
0.19635 0.93682 0
0.392699 0.93682 0
0.19635 1.24932 0
0.392699 1.24932 0
0.392699 0.624339 0
0.589049 0.624339 0
0.392699 0.93682 0
0.589049 0.93682 0
0.589049 0.624339 0
0.785398 0.624339 0
0.589049 0.93682 0
0.785398 0.93682 0
0.392699 0.93682 0
0.589049 0.93682 0
0.392699 1.24932 0
0.589049 1.24932 0
0.589049 0.93682 0
0.785398 0.93682 0
0.589049 1.24932 0
0.785398 1.24932 0
0.785398 0 0
0.981748 0 0
0.785398 0.311828 0
0.981748 0.311828 0
0.981748 0 0
1.1781 0 0
0.981748 0.311828 0
1.1781 0.311828 0
0.785398 0.311828 0
0.981748 0.311828 0
0.785398 0.624339 0
0.981748 0.624339 0
0.981748 0.311828 0
1.1781 0.311828 0
0.981748 0.624339 0
1.1781 0.624339 0
1.1781 0 0
1.37445 0 0
1.1781 0.311828 0
1.37445 0.311828 0
1.37445 0 0
1.5708 0 0
1.37445 0.311828 0
1.5708 0.311828 0
1.1781 0.311828 0
1.37445 0.311828 0
1.1781 0.624339 0
1.37445 0.624339 0
1.37445 0.311828 0
1.5708 0.311828 0
1.37445 0.624339 0
1.5708 0.624339 0
0.785398 0.624339 0
0.981748 0.624339 0
0.785398 0.93682 0
0.981748 0.93682 0
0.981748 0.624339 0
1.1781 0.624339 0
0.981748 0.93682 0
1.1781 0.93682 0
0.785398 0.93682 0
0.981748 0.93682 0
0.785398 1.24932 0
0.981748 1.24932 0
0.981748 0.93682 0
1.1781 0.93682 0
0.981748 1.24932 0
1.1781 1.24932 0
1.1781 0.624339 0
1.37445 0.624339 0
1.1781 0.93682 0
1.37445 0.93682 0
1.37445 0.624339 0
1.5708 0.624339 0
1.37445 0.93682 0
1.5708 0.93682 0
1.1781 0.93682 0
1.37445 0.93682 0
1.1781 1.24932 0
1.37445 1.24932 0
1.37445 0.93682 0
1.5708 0.93682 0
1.37445 1.24932 0
1.5708 1.24932 0
0 1.24932 0
0.19635 1.24932 0
0 1.56181 0
0.19635 1.56181 0
0.19635 1.24932 0
0.392699 1.24932 0
0.19635 1.56181 0
0.392699 1.56181 0
0 1.56181 0
0.19635 1.56181 0
0 1.8743 0
0.19635 1.8743 0
0.19635 1.56181 0
0.392699 1.56181 0
0.19635 1.8743 0
0.392699 1.8743 0
0.392699 1.24932 0
0.589049 1.24932 0
0.392699 1.56181 0
0.589049 1.56181 0
0.589049 1.24932 0
0.785398 1.24932 0
0.589049 1.56181 0
0.785398 1.56181 0
0.392699 1.56181 0
0.589049 1.56181 0
0.392699 1.8743 0
0.589049 1.8743 0
0.589049 1.56181 0
0.785398 1.56181 0
0.589049 1.8743 0
0.785398 1.8743 0
0 1.8743 0
0.19635 1.8743 0
0 2.18679 0
0.19635 2.18679 0
0.19635 1.8743 0
0.392699 1.8743 0
0.19635 2.18679 0
0.392699 2.18679 0
0 2.18679 0
0.19635 2.18679 0
0 2.49928 0
0.19635 2.49928 0
0.19635 2.18679 0
0.392699 2.18679 0
0.19635 2.49928 0
0.392699 2.49928 0
0.392699 1.8743 0
0.589049 1.8743 0
0.392699 2.18679 0
0.589049 2.18679 0
0.589049 1.8743 0
0.785398 1.8743 0
0.589049 2.18679 0
0.785398 2.18679 0
0.392699 2.18679 0
0.589049 2.18679 0
0.392699 2.49928 0
0.589049 2.49928 0
0.589049 2.18679 0
0.785398 2.18679 0
0.589049 2.49928 0
0.785398 2.49928 0
0.785398 1.24932 0
0.981748 1.24932 0
0.785398 1.56181 0
0.981748 1.56181 0
0.981748 1.24932 0
1.1781 1.24932 0
0.981748 1.56181 0
1.1781 1.56181 0
0.785398 1.56181 0
0.981748 1.56181 0
0.785398 1.8743 0
0.981748 1.8743 0
0.981748 1.56181 0
1.1781 1.56181 0
0.981748 1.8743 0
1.1781 1.8743 0
1.1781 1.24932 0
1.37445 1.24932 0
1.1781 1.56181 0
1.37445 1.56181 0
1.37445 1.24932 0
1.5708 1.24932 0
1.37445 1.56181 0
1.5708 1.56181 0
1.1781 1.56181 0
1.37445 1.56181 0
1.1781 1.8743 0
1.37445 1.8743 0
1.37445 1.56181 0
1.5708 1.56181 0
1.37445 1.8743 0
1.5708 1.8743 0
0.785398 1.8743 0
0.981748 1.8743 0
0.785398 2.18679 0
0.981748 2.18679 0
0.981748 1.8743 0
1.1781 1.8743 0
0.981748 2.18679 0
1.1781 2.18679 0
0.785398 2.18679 0
0.981748 2.18679 0
0.785398 2.49928 0
0.981748 2.49928 0
0.981748 2.18679 0
1.1781 2.18679 0
0.981748 2.49928 0
1.1781 2.49928 0
1.1781 1.8743 0
1.37445 1.8743 0
1.1781 2.18679 0
1.37445 2.18679 0
1.37445 1.8743 0
1.5708 1.8743 0
1.37445 2.18679 0
1.5708 2.18679 0
1.1781 2.18679 0
1.37445 2.18679 0
1.1781 2.49928 0
1.37445 2.49928 0
1.37445 2.18679 0
1.5708 2.18679 0
1.37445 2.49928 0
1.5708 2.49928 0
1.5708 0 0
1.76715 0 0
1.5708 0.311828 0
1.76715 0.311828 0
1.76715 0 0
1.9635 0 0
1.76715 0.311828 0
1.9635 0.311828 0
1.5708 0.311828 0
1.76715 0.311828 0
1.5708 0.624339 0
1.76715 0.624339 0
1.76715 0.311828 0
1.9635 0.311828 0
1.76715 0.624339 0
1.9635 0.624339 0
1.9635 0 0
2.15984 0 0
1.9635 0.311828 0
2.15984 0.311828 0
2.15984 0 0
2.35619 0 0
2.15984 0.311828 0
2.35619 0.311828 0
1.9635 0.311828 0
2.15984 0.311828 0
1.9635 0.624339 0
2.15984 0.624339 0
2.15984 0.311828 0
2.35619 0.311828 0
2.15984 0.624339 0
2.35619 0.624339 0
1.5708 0.624339 0
1.76715 0.624339 0
1.5708 0.93682 0
1.76715 0.93682 0
1.76715 0.624339 0
1.9635 0.624339 0
1.76715 0.93682 0
1.9635 0.93682 0
1.5708 0.93682 0
1.76715 0.93682 0
1.5708 1.24932 0
1.76715 1.24932 0
1.76715 0.93682 0
1.9635 0.93682 0
1.76715 1.24932 0
1.9635 1.24932 0
1.9635 0.624339 0
2.15984 0.624339 0
1.9635 0.93682 0
2.15984 0.93682 0
2.15984 0.624339 0
2.35619 0.624339 0
2.15984 0.93682 0
2.35619 0.93682 0
1.9635 0.93682 0
2.15984 0.93682 0
1.9635 1.24932 0
2.15984 1.24932 0
2.15984 0.93682 0
2.35619 0.93682 0
2.15984 1.24932 0
2.35619 1.24932 0
2.35619 0 0
2.55254 0 0
2.35619 0.311828 0
2.55254 0.311828 0
2.55254 0 0
2.74889 0 0
2.55254 0.311828 0
2.74889 0.311828 0
2.35619 0.311828 0
2.55254 0.311828 0
2.35619 0.624339 0
2.55254 0.624339 0
2.55254 0.311828 0
2.74889 0.311828 0
2.55254 0.624339 0
2.74889 0.624339 0
2.74889 0 0
2.94524 0 0
2.74889 0.311828 0
2.94524 0.311828 0
2.94524 0 0
3.14159 0 0
2.94524 0.311828 0
3.14159 0.311828 0
2.74889 0.311828 0
2.94524 0.311828 0
2.74889 0.624339 0
2.94524 0.624339 0
2.94524 0.311828 0
3.14159 0.311828 0
2.94524 0.624339 0
3.14159 0.624339 0
2.35619 0.624339 0
2.55254 0.624339 0
2.35619 0.93682 0
2.55254 0.93682 0
2.55254 0.624339 0
2.74889 0.624339 0
2.55254 0.93682 0
2.74889 0.93682 0
2.35619 0.93682 0
2.55254 0.93682 0
2.35619 1.24932 0
2.55254 1.24932 0
2.55254 0.93682 0
2.74889 0.93682 0
2.55254 1.24932 0
2.74889 1.24932 0
2.74889 0.624339 0
2.94524 0.624339 0
2.74889 0.93682 0
2.94524 0.93682 0
2.94524 0.624339 0
3.14159 0.624339 0
2.94524 0.93682 0
3.14159 0.93682 0
2.74889 0.93682 0
2.94524 0.93682 0
2.74889 1.24932 0
2.94524 1.24932 0
2.94524 0.93682 0
3.14159 0.93682 0
2.94524 1.24932 0
3.14159 1.24932 0
1.5708 1.24932 0
1.76715 1.24932 0
1.5708 1.56181 0
1.76715 1.56181 0
1.76715 1.24932 0
1.9635 1.24932 0
1.76715 1.56181 0
1.9635 1.56181 0
1.5708 1.56181 0
1.76715 1.56181 0
1.5708 1.8743 0
1.76715 1.8743 0
1.76715 1.56181 0
1.9635 1.56181 0
1.76715 1.8743 0
1.9635 1.8743 0
1.9635 1.24932 0
2.15984 1.24932 0
1.9635 1.56181 0
2.15984 1.56181 0
2.15984 1.24932 0
2.35619 1.24932 0
2.15984 1.56181 0
2.35619 1.56181 0
1.9635 1.56181 0
2.15984 1.56181 0
1.9635 1.8743 0
2.15984 1.8743 0
2.15984 1.56181 0
2.35619 1.56181 0
2.15984 1.8743 0
2.35619 1.8743 0
1.5708 1.8743 0
1.76715 1.8743 0
1.5708 2.18679 0
1.76715 2.18679 0
1.76715 1.8743 0
1.9635 1.8743 0
1.76715 2.18679 0
1.9635 2.18679 0
1.5708 2.18679 0
1.76715 2.18679 0
1.5708 2.49928 0
1.76715 2.49928 0
1.76715 2.18679 0
1.9635 2.18679 0
1.76715 2.49928 0
1.9635 2.49928 0
1.9635 1.8743 0
2.15984 1.8743 0
1.9635 2.18679 0
2.15984 2.18679 0
2.15984 1.8743 0
2.35619 1.8743 0
2.15984 2.18679 0
2.35619 2.18679 0
1.9635 2.18679 0
2.15984 2.18679 0
1.9635 2.49928 0
2.15984 2.49928 0
2.15984 2.18679 0
2.35619 2.18679 0
2.15984 2.49928 0
2.35619 2.49928 0
2.35619 1.24932 0
2.55254 1.24932 0
2.35619 1.56181 0
2.55254 1.56181 0
2.55254 1.24932 0
2.74889 1.24932 0
2.55254 1.56181 0
2.74889 1.56181 0
2.35619 1.56181 0
2.55254 1.56181 0
2.35619 1.8743 0
2.55254 1.8743 0
2.55254 1.56181 0
2.74889 1.56181 0
2.55254 1.8743 0
2.74889 1.8743 0
2.74889 1.24932 0
2.94524 1.24932 0
2.74889 1.56181 0
2.94524 1.56181 0
2.94524 1.24932 0
3.14159 1.24932 0
2.94524 1.56181 0
3.14159 1.56181 0
2.74889 1.56181 0
2.94524 1.56181 0
2.74889 1.8743 0
2.94524 1.8743 0
2.94524 1.56181 0
3.14159 1.56181 0
2.94524 1.8743 0
3.14159 1.8743 0
2.35619 1.8743 0
2.55254 1.8743 0
2.35619 2.18679 0
2.55254 2.18679 0
2.55254 1.8743 0
2.74889 1.8743 0
2.55254 2.18679 0
2.74889 2.18679 0
2.35619 2.18679 0
2.55254 2.18679 0
2.35619 2.49928 0
2.55254 2.49928 0
2.55254 2.18679 0
2.74889 2.18679 0
2.55254 2.49928 0
2.74889 2.49928 0
2.74889 1.8743 0
2.94524 1.8743 0
2.74889 2.18679 0
2.94524 2.18679 0
2.94524 1.8743 0
3.14159 1.8743 0
2.94524 2.18679 0
3.14159 2.18679 0
2.74889 2.18679 0
2.94524 2.18679 0
2.74889 2.49928 0
2.94524 2.49928 0
2.94524 2.18679 0
3.14159 2.18679 0
2.94524 2.49928 0
3.14159 2.49928 0
0 2.49928 0
0.19635 2.49928 0
0 2.81176 0
0.19635 2.81176 0
0.19635 2.49928 0
0.392699 2.49928 0
0.19635 2.81176 0
0.392699 2.81176 0
0 2.81176 0
0.19635 2.81176 0
0 3.12423 0
0.19635 3.12423 0
0.19635 2.81176 0
0.392699 2.81176 0
0.19635 3.12423 0
0.392699 3.12423 0
0.392699 2.49928 0
0.589049 2.49928 0
0.392699 2.81176 0
0.589049 2.81176 0
0.589049 2.49928 0
0.785398 2.49928 0
0.589049 2.81176 0
0.785398 2.81176 0
0.392699 2.81176 0
0.589049 2.81176 0
0.392699 3.12423 0
0.589049 3.12423 0
0.589049 2.81176 0
0.785398 2.81176 0
0.589049 3.12423 0
0.785398 3.12423 0
0 3.12423 0
0.19635 3.12423 0
0 3.43671 0
0.19635 3.43671 0
0.19635 3.12423 0
0.392699 3.12423 0
0.19635 3.43671 0
0.392699 3.43671 0
0 3.43671 0
0.19635 3.43671 0
0 3.74918 0
0.19635 3.74918 0
0.19635 3.43671 0
0.392699 3.43671 0
0.19635 3.74918 0
[...]
POINT_DATA 20480
VECTORS uf double
0 1 0
-4.21542e-15 1 0
0 1.00516 0
8.20913e-15 1.00516 0
-4.21542e-15 1 0
-3.06253e-14 1 0
8.20913e-15 1.00516 0
4.55097e-14 1.00516 0
0 1.00516 0
-1.04991e-14 1.00516 0
0 1.00789 0
1.07329e-14 1.00789 0
-1.04991e-14 1.00516 0
-3.68125e-14 1.00516 0
1.07329e-14 1.00789 0
2.55714e-14 1.00789 0
-3.06253e-14 1 0
-3.65854e-14 1 0
4.55097e-14 1.00516 0
4.16873e-14 1.00516 0
-3.65854e-14 1 0
-2.18121e-15 1 0
4.16873e-14 1.00516 0
6.44511e-16 1.00516 0
-3.68125e-14 1.00516 0
-2.31814e-14 1.00516 0
2.55714e-14 1.00789 0
3.86717e-14 1.00789 0
-2.31814e-14 1.00516 0
-5.52543e-15 1.00516 0
3.86717e-14 1.00789 0
3.00053e-14 1.00789 0
0 1.00789 0
-3.63254e-14 1.00789 0
0 1.01118 0
4.2784e-14 1.01118 0
-3.63254e-14 1.00789 0
-7.32106e-15 1.00789 0
4.2784e-14 1.01118 0
7.86476e-15 1.01118 0
0 1.01118 0
-1.9644e-14 1.01118 0
0 1.01428 0
5.27474e-15 1.01428 0
-1.9644e-14 1.01118 0
-3.82982e-14 1.01118 0
5.27474e-15 1.01428 0
4.32736e-14 1.01428 0
-7.32106e-15 1.00789 0
-6.71807e-14 1.00789 0
7.86476e-15 1.01118 0
7.30622e-14 1.01118 0
-6.71807e-14 1.00789 0
-6.02662e-14 1.00789 0
7.30622e-14 1.01118 0
5.71007e-14 1.01118 0
-3.82982e-14 1.01118 0
-7.03958e-14 1.01118 0
4.32736e-14 1.01428 0
4.74196e-14 1.01428 0
-7.03958e-14 1.01118 0
-4.30233e-14 1.01118 0
4.74196e-14 1.01428 0
3.32668e-14 1.01428 0
-2.18121e-15 1 0
-1.16987e-14 1 0
6.44511e-16 1.00516 0
2.5546e-14 1.00516 0
-1.16987e-14 1 0
-1.36227e-14 1 0
2.5546e-14 1.00516 0
1.64832e-14 1.00516 0
-5.52543e-15 1.00516 0
-5.09092e-14 1.00516 0
3.00053e-14 1.00789 0
5.51448e-14 1.00789 0
-5.09092e-14 1.00516 0
-2.7407e-14 1.00516 0
5.51448e-14 1.00789 0
2.66715e-14 1.00789 0
-1.36227e-14 1 0
-2.64923e-14 1 0
1.64832e-14 1.00516 0
4.9479e-14 1.00516 0
-2.64923e-14 1 0
-5.06753e-15 1 0
4.9479e-14 1.00516 0
-4.82054e-15 1.00516 0
-2.7407e-14 1.00516 0
-8.15692e-14 1.00516 0
2.66715e-14 1.00789 0
6.21479e-14 1.00789 0
-8.15692e-14 1.00516 0
-3.28103e-15 1.00516 0
6.21479e-14 1.00789 0
1.84521e-14 1.00789 0
-6.02662e-14 1.00789 0
-6.2389e-14 1.00789 0
5.71007e-14 1.01118 0
5.44529e-14 1.01118 0
-6.2389e-14 1.00789 0
-3.49643e-14 1.00789 0
5.44529e-14 1.01118 0
5.28284e-14 1.01118 0
-4.30233e-14 1.01118 0
-3.78633e-14 1.01118 0
3.32668e-14 1.01428 0
4.48219e-14 1.01428 0
-3.78633e-14 1.01118 0
-7.77704e-14 1.01118 0
4.48219e-14 1.01428 0
7.93771e-14 1.01428 0
-3.49643e-14 1.00789 0
-4.83421e-14 1.00789 0
5.28284e-14 1.01118 0
3.91976e-14 1.01118 0
-4.83421e-14 1.00789 0
-1.78662e-14 1.00789 0
3.91976e-14 1.01118 0
2.27897e-14 1.01118 0
-7.77704e-14 1.01118 0
-4.2536e-14 1.01118 0
7.93771e-14 1.01428 0
4.65825e-14 1.01428 0
-4.2536e-14 1.01118 0
-6.26545e-14 1.01118 0
4.65825e-14 1.01428 0
7.15034e-14 1.01428 0
0 1.01428 0
-4.95717e-15 1.01428 0
0 1.01737 0
1.84782e-14 1.01737 0
-4.95717e-15 1.01428 0
-4.46356e-14 1.01428 0
1.84782e-14 1.01737 0
4.91585e-14 1.01737 0
0 1.01737 0
-3.96143e-14 1.01737 0
0 1.02042 0
3.00239e-14 1.02042 0
-3.96143e-14 1.01737 0
-2.58218e-14 1.01737 0
3.00239e-14 1.02042 0
1.54371e-14 1.02042 0
-4.46356e-14 1.01428 0
-1.00768e-14 1.01428 0
4.91585e-14 1.01737 0
3.25548e-15 1.01737 0
-1.00768e-14 1.01428 0
-1.60915e-14 1.01428 0
3.25548e-15 1.01737 0
1.82205e-14 1.01737 0
-2.58218e-14 1.01737 0
1.34015e-14 1.01737 0
1.54371e-14 1.02042 0
-1.4376e-14 1.02042 0
1.34015e-14 1.01737 0
-4.35155e-14 1.01737 0
-1.4376e-14 1.02042 0
4.89435e-14 1.02042 0
0 1.02042 0
6.10417e-15 1.02042 0
0 1.02341 0
-1.11943e-14 1.02341 0
6.10417e-15 1.02042 0
1.40094e-14 1.02042 0
-1.11943e-14 1.02341 0
-1.63435e-14 1.02341 0
0 1.02341 0
1.01825e-14 1.02341 0
0 1.02637 0
-8.89102e-15 1.02637 0
1.01825e-14 1.02341 0
4.5672e-16 1.02341 0
-8.89102e-15 1.02637 0
4.75186e-15 1.02637 0
1.40094e-14 1.02042 0
2.29599e-15 1.02042 0
-1.63435e-14 1.02341 0
1.36117e-14 1.02341 0
2.29599e-15 1.02042 0
-4.30281e-14 1.02042 0
1.36117e-14 1.02341 0
5.07526e-14 1.02341 0
4.5672e-16 1.02341 0
-5.6624e-14 1.02341 0
4.75186e-15 1.02637 0
6.17393e-14 1.02637 0
-5.6624e-14 1.02341 0
-9.49822e-14 1.02341 0
6.17393e-14 1.02637 0
1.00822e-13 1.02637 0
-1.60915e-14 1.01428 0
-5.0923e-14 1.01428 0
1.82205e-14 1.01737 0
3.74297e-14 1.01737 0
-5.0923e-14 1.01428 0
-3.9336e-14 1.01428 0
3.74297e-14 1.01737 0
2.07554e-14 1.01737 0
-4.35155e-14 1.01737 0
-3.67246e-14 1.01737 0
4.89435e-14 1.02042 0
4.02487e-14 1.02042 0
-3.67246e-14 1.01737 0
-1.49037e-14 1.01737 0
4.02487e-14 1.02042 0
4.9249e-15 1.02042 0
-3.9336e-14 1.01428 0
-2.38075e-14 1.01428 0
2.07554e-14 1.01737 0
2.20077e-14 1.01737 0
-2.38075e-14 1.01428 0
-4.52126e-14 1.01428 0
2.20077e-14 1.01737 0
3.94723e-14 1.01737 0
-1.49037e-14 1.01737 0
-1.6411e-14 1.01737 0
4.9249e-15 1.02042 0
1.44845e-14 1.02042 0
-1.6411e-14 1.01737 0
-2.20495e-14 1.01737 0
1.44845e-14 1.02042 0
2.35619e-14 1.02042 0
-4.30281e-14 1.02042 0
-5.60925e-14 1.02042 0
5.07526e-14 1.02341 0
6.8909e-14 1.02341 0
-5.60925e-14 1.02042 0
-1.02343e-14 1.02042 0
6.8909e-14 1.02341 0
2.50726e-14 1.02341 0
-9.49822e-14 1.02341 0
-6.06977e-14 1.02341 0
1.00822e-13 1.02637 0
4.81189e-14 1.02637 0
-6.06977e-14 1.02341 0
-4.69136e-14 1.02341 0
4.81189e-14 1.02637 0
5.22636e-14 1.02637 0
-1.02343e-14 1.02042 0
-2.38888e-14 1.02042 0
2.50726e-14 1.02341 0
3.0321e-14 1.02341 0
-2.38888e-14 1.02042 0
-6.02887e-14 1.02042 0
3.0321e-14 1.02341 0
7.00367e-14 1.02341 0
-4.69136e-14 1.02341 0
-5.25535e-14 1.02341 0
5.22636e-14 1.02637 0
5.5114e-14 1.02637 0
-5.25535e-14 1.02341 0
-6.32652e-14 1.02341 0
5.5114e-14 1.02637 0
5.42797e-14 1.02637 0
-5.06753e-15 1 0
-4.4834e-14 1 0
-4.82054e-15 1.00516 0
5.34351e-14 1.00516 0
-4.4834e-14 1 0
-4.70169e-14 1 0
5.34351e-14 1.00516 0
5.58221e-14 1.00516 0
-3.28103e-15 1.00516 0
-3.50534e-14 1.00516 0
1.84521e-14 1.00789 0
4.19881e-14 1.00789 0
-3.50534e-14 1.00516 0
-6.02064e-14 1.00516 0
4.19881e-14 1.00789 0
7.67677e-14 1.00789 0
-4.70169e-14 1 0
-8.31937e-14 1 0
5.58221e-14 1.00516 0
9.89295e-14 1.00516 0
-8.31937e-14 1 0
-7.54173e-14 1 0
9.89295e-14 1.00516 0
9.25403e-14 1.00516 0
-6.02064e-14 1.00516 0
-6.98955e-14 1.00516 0
7.67677e-14 1.00789 0
7.18354e-14 1.00789 0
-6.98955e-14 1.00516 0
-7.44627e-14 1.00516 0
7.18354e-14 1.00789 0
8.10714e-14 1.00789 0
-1.78662e-14 1.00789 0
-2.11251e-14 1.00789 0
2.27897e-14 1.01118 0
1.75493e-14 1.01118 0
-2.11251e-14 1.00789 0
-6.75736e-14 1.00789 0
1.75493e-14 1.01118 0
5.00169e-14 1.01118 0
-6.26545e-14 1.01118 0
-4.85747e-14 1.01118 0
7.15034e-14 1.01428 0
5.80137e-14 1.01428 0
-4.85747e-14 1.01118 0
-1.87138e-14 1.01118 0
5.80137e-14 1.01428 0
3.51913e-14 1.01428 0
-6.75736e-14 1.00789 0
-5.06992e-14 1.00789 0
5.00169e-14 1.01118 0
5.43607e-14 1.01118 0
-5.06992e-14 1.00789 0
-5.9307e-14 1.00789 0
5.43607e-14 1.01118 0
5.2196e-14 1.01118 0
-1.87138e-14 1.01118 0
-5.56011e-14 1.01118 0
3.51913e-14 1.01428 0
6.4377e-14 1.01428 0
-5.56011e-14 1.01118 0
-2.16131e-14 1.01118 0
6.4377e-14 1.01428 0
1.62849e-14 1.01428 0
-7.54173e-14 1 0
-6.64873e-14 1 0
9.25403e-14 1.00516 0
8.45282e-14 1.00516 0
-6.64873e-14 1 0
-6.82328e-14 1 0
8.45282e-14 1.00516 0
8.83285e-14 1.00516 0
-7.44627e-14 1.00516 0
-6.07335e-14 1.00516 0
8.10714e-14 1.00789 0
7.28209e-14 1.00789 0
-6.07335e-14 1.00516 0
-6.35818e-14 1.00516 0
7.28209e-14 1.00789 0
7.27017e-14 1.00789 0
-6.82328e-14 1 0
-6.02234e-14 1 0
8.83285e-14 1.00516 0
9.0654e-14 1.00516 0
-6.02234e-14 1 0
-5.25826e-14 1 0
9.0654e-14 1.00516 0
7.8493e-14 1.00516 0
-6.35818e-14 1.00516 0
-9.18799e-14 1.00516 0
7.27017e-14 1.00789 0
8.71508e-14 1.00789 0
-9.18799e-14 1.00516 0
-5.54826e-14 1.00516 0
8.71508e-14 1.00789 0
4.40125e-14 1.00789 0
-5.9307e-14 1.00789 0
-6.99619e-14 1.00789 0
5.2196e-14 1.01118 0
5.32558e-14 1.01118 0
-6.99619e-14 1.00789 0
-6.8276e-14 1.00789 0
5.32558e-14 1.01118 0
5.06042e-14 1.01118 0
-2.16131e-14 1.01118 0
-5.91472e-15 1.01118 0
1.62849e-14 1.01428 0
6.12104e-15 1.01428 0
-5.91472e-15 1.01118 0
-2.97471e-14 1.01118 0
6.12104e-15 1.01428 0
3.27797e-14 1.01428 0
-6.8276e-14 1.00789 0
-4.77134e-14 1.00789 0
5.06042e-14 1.01118 0
3.7012e-14 1.01118 0
-4.77134e-14 1.00789 0
-1.48879e-14 1.00789 0
3.7012e-14 1.01118 0
1.94533e-14 1.01118 0
-2.97471e-14 1.01118 0
-3.8003e-14 1.01118 0
3.27797e-14 1.01428 0
4.3072e-14 1.01428 0
-3.8003e-14 1.01118 0
-3.34839e-14 1.01118 0
4.3072e-14 1.01428 0
4.68725e-14 1.01428 0
-4.52126e-14 1.01428 0
-4.15575e-14 1.01428 0
3.94723e-14 1.01737 0
4.44621e-14 1.01737 0
-4.15575e-14 1.01428 0
-5.01436e-14 1.01428 0
4.44621e-14 1.01737 0
5.59735e-14 1.01737 0
-2.20495e-14 1.01737 0
-5.54892e-14 1.01737 0
2.35619e-14 1.02042 0
5.16826e-14 1.02042 0
-5.54892e-14 1.01737 0
-4.01279e-14 1.01737 0
5.16826e-14 1.02042 0
1.90954e-14 1.02042 0
-5.01436e-14 1.01428 0
-6.34784e-14 1.01428 0
5.59735e-14 1.01737 0
6.73992e-14 1.01737 0
-6.34784e-14 1.01428 0
-6.86865e-15 1.01428 0
6.73992e-14 1.01737 0
2.40029e-14 1.01737 0
-4.01279e-14 1.01737 0
-6.21384e-14 1.01737 0
1.90954e-14 1.02042 0
4.63002e-14 1.02042 0
-6.21384e-14 1.01737 0
-4.83749e-14 1.01737 0
4.63002e-14 1.02042 0
4.76999e-14 1.02042 0
-6.02887e-14 1.02042 0
-2.90854e-14 1.02042 0
7.00367e-14 1.02341 0
3.28071e-14 1.02341 0
-2.90854e-14 1.02042 0
-1.58433e-14 1.02042 0
3.28071e-14 1.02341 0
2.89597e-14 1.02341 0
-6.32652e-14 1.02341 0
-5.43239e-14 1.02341 0
5.42797e-14 1.02637 0
5.01679e-14 1.02637 0
-5.43239e-14 1.02341 0
-5.74353e-14 1.02341 0
5.01679e-14 1.02637 0
6.57449e-14 1.02637 0
-1.58433e-14 1.02042 0
-3.52708e-14 1.02042 0
2.89597e-14 1.02341 0
3.69751e-14 1.02341 0
-3.52708e-14 1.02042 0
-5.38673e-14 1.02042 0
3.69751e-14 1.02341 0
6.6624e-14 1.02341 0
-5.74353e-14 1.02341 0
-2.50699e-14 1.02341 0
6.57449e-14 1.02637 0
2.66917e-14 1.02637 0
-2.50699e-14 1.02341 0
-6.47616e-14 1.02341 0
2.66917e-14 1.02637 0
5.09014e-14 1.02637 0
-6.86865e-15 1.01428 0
-5.36983e-15 1.01428 0
2.40029e-14 1.01737 0
1.9353e-14 1.01737 0
-5.36983e-15 1.01428 0
-8.16974e-15 1.01428 0
1.9353e-14 1.01737 0
1.81536e-14 1.01737 0
-4.83749e-14 1.01737 0
-1.83277e-14 1.01737 0
4.76999e-14 1.02042 0
8.30137e-15 1.02042 0
-1.83277e-14 1.01737 0
-1.97576e-14 1.01737 0
8.30137e-15 1.02042 0
2.683e-14 1.02042 0
-8.16974e-15 1.01428 0
-2.64163e-14 1.01428 0
1.81536e-14 1.01737 0
3.75424e-14 1.01737 0
-2.64163e-14 1.01428 0
-5.91263e-14 1.01428 0
3.75424e-14 1.01737 0
6.48729e-14 1.01737 0
-1.97576e-14 1.01737 0
-5.75022e-14 1.01737 0
2.683e-14 1.02042 0
7.12144e-14 1.02042 0
-5.75022e-14 1.01737 0
-4.48623e-14 1.01737 0
7.12144e-14 1.02042 0
4.28331e-14 1.02042 0
-5.38673e-14 1.02042 0
-2.80481e-14 1.02042 0
6.6624e-14 1.02341 0
3.36328e-14 1.02341 0
-2.80481e-14 1.02042 0
-6.32593e-14 1.02042 0
3.36328e-14 1.02341 0
7.23557e-14 1.02341 0
-6.47616e-14 1.02341 0
-2.15801e-14 1.02341 0
5.09014e-14 1.02637 0
2.77694e-14 1.02637 0
-2.15801e-14 1.02341 0
-3.64629e-14 1.02341 0
2.77694e-14 1.02637 0
2.82079e-14 1.02637 0
-6.32593e-14 1.02042 0
-7.86089e-14 1.02042 0
7.23557e-14 1.02341 0
7.5886e-14 1.02341 0
-7.86089e-14 1.02042 0
-4.23689e-14 1.02042 0
7.5886e-14 1.02341 0
4.9203e-14 1.02341 0
-3.64629e-14 1.02341 0
-3.40269e-14 1.02341 0
2.82079e-14 1.02637 0
2.91875e-14 1.02637 0
-3.40269e-14 1.02341 0
-3.65499e-14 1.02341 0
2.91875e-14 1.02637 0
5.72454e-14 1.02637 0
0 1.02637 0
6.57624e-16 1.02637 0
0 1.02928 0
-4.28039e-15 1.02928 0
6.57624e-16 1.02637 0
-7.50717e-15 1.02637 0
-4.28039e-15 1.02928 0
1.21298e-15 1.02928 0
0 1.02928 0
-1.02264e-14 1.02928 0
0 1.03215 0
2.2637e-14 1.03215 0
-1.02264e-14 1.02928 0
7.24986e-15 1.02928 0
2.2637e-14 1.03215 0
-3.76663e-15 1.03215 0
-7.50717e-15 1.02637 0
-5.41533e-14 1.02637 0
1.21298e-15 1.02928 0
5.53063e-14 1.02928 0
-5.41533e-14 1.02637 0
-8.09853e-14 1.02637 0
5.53063e-14 1.02928 0
6.53368e-14 1.02928 0
7.24986e-15 1.02928 0
-4.78638e-14 1.02928 0
-3.76663e-15 1.03215 0
4.55969e-14 1.03215 0
-4.78638e-14 1.02928 0
-4.64114e-14 1.02928 0
4.55969e-14 1.03215 0
5.65015e-14 1.03215 0
0 1.03215 0
-2.08875e-14 1.03215 0
0 1.03497 0
2.3374e-14 1.03497 0
-2.08875e-14 1.03215 0
-4.64336e-15 1.03215 0
2.3374e-14 1.03497 0
8.49312e-15 1.03497 0
0 1.03497 0
-6.11719e-15 1.03497 0
0 1.03775 0
9.62807e-15 1.03775 0
-6.11719e-15 1.03497 0
9.66385e-15 1.03497 0
9.62807e-15 1.03775 0
-1.0925e-14 1.03775 0
-4.64336e-15 1.03215 0
-4.72879e-14 1.03215 0
8.49312e-15 1.03497 0
4.27947e-14 1.03497 0
-4.72879e-14 1.03215 0
-6.95043e-14 1.03215 0
4.27947e-14 1.03497 0
7.01373e-14 1.03497 0
9.66385e-15 1.03497 0
1.0628e-14 1.03497 0
-1.0925e-14 1.03775 0
-1.86551e-14 1.03775 0
1.0628e-14 1.03497 0
-3.17857e-14 1.03497 0
-1.86551e-14 1.03775 0
1.7081e-14 1.03775 0
-8.09853e-14 1.02637 0
-5.18003e-14 1.02637 0
6.53368e-14 1.02928 0
6.71435e-14 1.02928 0
-5.18003e-14 1.02637 0
-6.15791e-14 1.02637 0
6.71435e-14 1.02928 0
7.41905e-14 1.02928 0
-4.64114e-14 1.02928 0
-5.44749e-14 1.02928 0
5.65015e-14 1.03215 0
4.35297e-14 1.03215 0
-5.44749e-14 1.02928 0
-6.24529e-14 1.02928 0
4.35297e-14 1.03215 0
5.69147e-14 1.03215 0
-6.15791e-14 1.02637 0
-5.42219e-14 1.02637 0
7.41905e-14 1.02928 0
6.71841e-14 1.02928 0
-5.42219e-14 1.02637 0
-4.60044e-14 1.02637 0
6.71841e-14 1.02928 0
6.2902e-14 1.02928 0
-6.24529e-14 1.02928 0
-6.51421e-14 1.02928 0
5.69147e-14 1.03215 0
6.09541e-14 1.03215 0
-6.51421e-14 1.02928 0
-7.93229e-14 1.02928 0
6.09541e-14 1.03215 0
7.17222e-14 1.03215 0
-6.95043e-14 1.03215 0
-4.30742e-14 1.03215 0
7.01373e-14 1.03497 0
5.61666e-14 1.03497 0
-4.30742e-14 1.03215 0
-5.24633e-14 1.03215 0
5.61666e-14 1.03497 0
5.2761e-14 1.03497 0
-3.17857e-14 1.03497 0
-5.5687e-14 1.03497 0
1.7081e-14 1.03775 0
5.53227e-14 1.03775 0
-5.5687e-14 1.03497 0
-5.52784e-14 1.03497 0
5.53227e-14 1.03775 0
6.53979e-14 1.03775 0
-5.24633e-14 1.03215 0
-5.93314e-14 1.03215 0
5.2761e-14 1.03497 0
6.30906e-14 1.03497 0
-5.93314e-14 1.03215 0
-4.19093e-14 1.03215 0
6.30906e-14 1.03497 0
3.82665e-14 1.03497 0
-5.52784e-14 1.03497 0
-5.24461e-14 1.03497 0
6.53979e-14 1.03775 0
5.6286e-14 1.03775 0
-5.24461e-14 1.03497 0
-2.75337e-14 1.03497 0
5.6286e-14 1.03775 0
2.37922e-14 1.03775 0
0 1.03775 0
-2.17532e-14 1.03775 0
0 1.0405 0
1.58652e-14 1.0405 0
-2.17532e-14 1.03775 0
1.20683e-14 1.03775 0
1.58652e-14 1.0405 0
-1.85213e-14 1.0405 0
0 1.0405 0
-2.25546e-14 1.0405 0
0 1.04321 0
2.6261e-14 1.04321 0
-2.25546e-14 1.0405 0
7.4859e-15 1.0405 0
2.6261e-14 1.04321 0
-3.9137e-15 1.04321 0
1.20683e-14 1.03775 0
2.16137e-14 1.03775 0
-1.85213e-14 1.0405 0
-1.74392e-14 1.0405 0
2.16137e-14 1.03775 0
9.19535e-15 1.03775 0
-1.74392e-14 1.0405 0
-6.56592e-15 1.0405 0
7.4859e-15 1.0405 0
-1.78588e-14 1.0405 0
-3.9137e-15 1.04321 0
2.54481e-14 1.04321 0
-1.78588e-14 1.0405 0
-1.65704e-14 1.0405 0
2.54481e-14 1.04321 0
2.53659e-14 1.04321 0
0 1.04321 0
3.48495e-15 1.04321 0
0 1.04588 0
-7.36619e-15 1.04588 0
3.48495e-15 1.04321 0
1.81025e-14 1.04321 0
-7.36619e-15 1.04588 0
-1.29758e-14 1.04588 0
0 1.04588 0
-1.26299e-14 1.04588 0
0 1.04853 0
1.18275e-14 1.04853 0
-1.26299e-14 1.04588 0
4.7255e-15 1.04588 0
1.18275e-14 1.04853 0
-5.96993e-15 1.04853 0
1.81025e-14 1.04321 0
-3.68069e-15 1.04321 0
-1.29758e-14 1.04588 0
-2.85402e-15 1.04588 0
-3.68069e-15 1.04321 0
-3.69347e-14 1.04321 0
-2.85402e-15 1.04588 0
3.787e-14 1.04588 0
4.7255e-15 1.04588 0
1.42594e-14 1.04588 0
-5.96993e-15 1.04853 0
-9.54264e-15 1.04853 0
1.42594e-14 1.04588 0
-1.25925e-14 1.04588 0
-9.54264e-15 1.04853 0
2.01778e-14 1.04853 0
9.19535e-15 1.03775 0
-5.64125e-14 1.03775 0
-6.56592e-15 1.0405 0
6.18408e-14 1.0405 0
-5.64125e-14 1.03775 0
-6.20758e-14 1.03775 0
6.18408e-14 1.0405 0
6.10469e-14 1.0405 0
-1.65704e-14 1.0405 0
-5.42431e-14 1.0405 0
2.53659e-14 1.04321 0
4.78771e-14 1.04321 0
-5.42431e-14 1.0405 0
-5.85328e-14 1.0405 0
4.78771e-14 1.04321 0
5.34544e-14 1.04321 0
-6.20758e-14 1.03775 0
-8.12204e-14 1.03775 0
6.10469e-14 1.0405 0
9.20778e-14 1.0405 0
-8.12204e-14 1.03775 0
-6.98578e-15 1.03775 0
9.20778e-14 1.0405 0
2.26576e-14 1.0405 0
-5.85328e-14 1.0405 0
-8.06543e-14 1.0405 0
5.34544e-14 1.04321 0
6.11987e-14 1.04321 0
-8.06543e-14 1.0405 0
-6.95968e-14 1.0405 0
6.11987e-14 1.04321 0
6.1785e-14 1.04321 0
-3.69347e-14 1.04321 0
-3.58917e-14 1.04321 0
3.787e-14 1.04588 0
3.66762e-14 1.04588 0
-3.58917e-14 1.04321 0
-5.75864e-14 1.04321 0
3.66762e-14 1.04588 0
5.74007e-14 1.04588 0
-1.25925e-14 1.04588 0
-5.27098e-14 1.04588 0
2.01778e-14 1.04853 0
5.34323e-14 1.04853 0
-5.27098e-14 1.04588 0
-5.65664e-14 1.04588 0
5.34323e-14 1.04853 0
5.67079e-14 1.04853 0
-5.75864e-14 1.04321 0
-4.4283e-14 1.04321 0
5.74007e-14 1.04588 0
4.26915e-14 1.04588 0
-4.4283e-14 1.04321 0
-4.15169e-14 1.04321 0
4.26915e-14 1.04588 0
4.57945e-14 1.04588 0
-5.65664e-14 1.04588 0
-4.46025e-14 1.04588 0
5.67079e-14 1.04853 0
5.57894e-14 1.04853 0
-4.46025e-14 1.04588 0
-4.92596e-14 1.04588 0
5.57894e-14 1.04853 0
4.34662e-14 1.04853 0
-4.60044e-14 1.02637 0
-5.32544e-14 1.02637 0
6.2902e-14 1.02928 0
6.5175e-14 1.02928 0
-5.32544e-14 1.02637 0
-7.31066e-14 1.02637 0
6.5175e-14 1.02928 0
8.16762e-14 1.02928 0
-7.93229e-14 1.02928 0
-5.58182e-14 1.02928 0
7.17222e-14 1.03215 0
4.97655e-14 1.03215 0
-5.58182e-14 1.02928 0
-7.56014e-14 1.02928 0
4.97655e-14 1.03215 0
7.61363e-14 1.03215 0
-7.31066e-14 1.02637 0
-4.86945e-14 1.02637 0
8.16762e-14 1.02928 0
6.31645e-14 1.02928 0
-4.86945e-14 1.02637 0
-3.30621e-14 1.02637 0
6.31645e-14 1.02928 0
4.46923e-14 1.02928 0
-7.56014e-14 1.02928 0
-7.43412e-14 1.02928 0
7.61363e-14 1.03215 0
7.67252e-14 1.03215 0
-7.43412e-14 1.02928 0
-8.76584e-14 1.02928 0
7.67252e-14 1.03215 0
9.40179e-14 1.03215 0
-4.19093e-14 1.03215 0
-2.77356e-14 1.03215 0
3.82665e-14 1.03497 0
4.5342e-14 1.03497 0
-2.77356e-14 1.03215 0
-5.17007e-14 1.03215 0
4.5342e-14 1.03497 0
5.06625e-14 1.03497 0
-2.75337e-14 1.03497 0
-7.59715e-14 1.03497 0
2.37922e-14 1.03775 0
8.03398e-14 1.03775 0
-7.59715e-14 1.03497 0
-4.41195e-14 1.03497 0
8.03398e-14 1.03775 0
3.99932e-14 1.03775 0
-5.17007e-14 1.03215 0
-5.14343e-14 1.03215 0
5.06625e-14 1.03497 0
5.76939e-14 1.03497 0
-5.14343e-14 1.03215 0
-5.68632e-14 1.03215 0
5.76939e-14 1.03497 0
6.61218e-14 1.03497 0
-4.41195e-14 1.03497 0
-5.91872e-14 1.03497 0
3.99932e-14 1.03775 0
5.58473e-14 1.03775 0
-5.91872e-14 1.03497 0
-6.58983e-14 1.03497 0
5.58473e-14 1.03775 0
6.22148e-14 1.03775 0
-3.30621e-14 1.02637 0
-1.5285e-14 1.02637 0
4.46923e-14 1.02928 0
6.0634e-15 1.02928 0
-1.5285e-14 1.02637 0
-3.12491e-14 1.02637 0
6.0634e-15 1.02928 0
3.34179e-14 1.02928 0
-8.76584e-14 1.02928 0
8.19557e-15 1.02928 0
9.40179e-14 1.03215 0
1.61867e-15 1.03215 0
8.19557e-15 1.02928 0
-2.27386e-14 1.02928 0
1.61867e-15 1.03215 0
3.02147e-14 1.03215 0
-3.12491e-14 1.02637 0
-3.57463e-14 1.02637 0
3.34179e-14 1.02928 0
4.197e-14 1.02928 0
-3.57463e-14 1.02637 0
-7.76185e-14 1.02637 0
4.197e-14 1.02928 0
7.32948e-14 1.02928 0
-2.27386e-14 1.02928 0
-3.94341e-14 1.02928 0
3.02147e-14 1.03215 0
4.84135e-14 1.03215 0
-3.94341e-14 1.02928 0
-5.17122e-14 1.02928 0
4.84135e-14 1.03215 0
5.68847e-14 1.03215 0
-5.68632e-14 1.03215 0
-9.56842e-15 1.03215 0
6.61218e-14 1.03497 0
3.13981e-14 1.03497 0
-9.56842e-15 1.03215 0
-2.62289e-14 1.03215 0
3.13981e-14 1.03497 0
3.10338e-14 1.03497 0
-6.58983e-14 1.03497 0
-5.63834e-14 1.03497 0
6.22148e-14 1.03775 0
5.81036e-14 1.03775 0
-5.63834e-14 1.03497 0
-1.8612e-14 1.03497 0
5.81036e-14 1.03775 0
1.30832e-14 1.03775 0
-2.62289e-14 1.03215 0
-3.99078e-14 1.03215 0
3.10338e-14 1.03497 0
3.55415e-14 1.03497 0
-3.99078e-14 1.03215 0
-4.59462e-14 1.03215 0
3.55415e-14 1.03497 0
2.6661e-14 1.03497 0
-1.8612e-14 1.03497 0
-2.45652e-14 1.03497 0
1.30832e-14 1.03775 0
2.96411e-14 1.03775 0
-2.45652e-14 1.03497 0
-1.49398e-16 1.03497 0
2.96411e-14 1.03775 0
1.56173e-14 1.03775 0
-6.98578e-15 1.03775 0
-6.333e-14 1.03775 0
2.26576e-14 1.0405 0
6.02137e-14 1.0405 0
-6.333e-14 1.03775 0
-3.74764e-14 1.03775 0
6.02137e-14 1.0405 0
4.06735e-14 1.0405 0
-6.95968e-14 1.0405 0
-5.84401e-14 1.0405 0
6.1785e-14 1.04321 0
5.10885e-14 1.04321 0
-5.84401e-14 1.0405 0
-2.43437e-14 1.0405 0
5.10885e-14 1.04321 0
1.1902e-14 1.04321 0
-3.74764e-14 1.03775 0
-4.97029e-14 1.03775 0
4.06735e-14 1.0405 0
5.03606e-14 1.0405 0
-4.97029e-14 1.03775 0