# vtk DataFile Version 3.0
#This file was generated by the deal.II library on 2017/2/1 at 16:06:08
ASCII
DATASET UNSTRUCTURED_GRID

POINTS 4096 double
0 0 0
0.625 0 0
0 0.625 0
0.625 0.625 0
0.625 0 0
1.25 0 0
0.625 0.625 0
1.25 0.625 0
0 0.625 0
0.625 0.625 0
0 1.25 0
0.625 1.25 0
0.625 0.625 0
1.25 0.625 0
0.625 1.25 0
1.25 1.25 0
1.25 0 0
1.875 0 0
1.25 0.625 0
1.875 0.625 0
1.875 0 0
2.5 0 0
1.875 0.625 0
2.5 0.625 0
1.25 0.625 0
1.875 0.625 0
1.25 1.25 0
1.875 1.25 0
1.875 0.625 0
2.5 0.625 0
1.875 1.25 0
2.5 1.25 0
0 1.25 0
0.625 1.25 0
0 1.875 0
0.625 1.875 0
0.625 1.25 0
1.25 1.25 0
0.625 1.875 0
1.25 1.875 0
0 1.875 0
0.625 1.875 0
0 2.5 0
0.625 2.5 0
0.625 1.875 0
1.25 1.875 0
0.625 2.5 0
1.25 2.5 0
1.25 1.25 0
1.875 1.25 0
1.25 1.875 0
1.875 1.875 0
1.875 1.25 0
2.5 1.25 0
1.875 1.875 0
2.5 1.875 0
1.25 1.875 0
1.875 1.875 0
1.25 2.5 0
1.875 2.5 0
1.875 1.875 0
2.5 1.875 0
1.875 2.5 0
2.5 2.5 0
2.5 0 0
3.125 0 0
2.5 0.625 0
3.125 0.625 0
3.125 0 0
3.75 0 0
3.125 0.625 0
3.75 0.625 0
2.5 0.625 0
3.125 0.625 0
2.5 1.25 0
3.125 1.25 0
3.125 0.625 0
3.75 0.625 0
3.125 1.25 0
3.75 1.25 0
3.75 0 0
4.375 0 0
3.75 0.625 0
4.375 0.625 0
4.375 0 0
5 0 0
4.375 0.625 0
5 0.625 0
3.75 0.625 0
4.375 0.625 0
3.75 1.25 0
4.375 1.25 0
4.375 0.625 0
5 0.625 0
4.375 1.25 0
5 1.25 0
2.5 1.25 0
3.125 1.25 0
2.5 1.875 0
3.125 1.875 0
3.125 1.25 0
3.75 1.25 0
3.125 1.875 0
3.75 1.875 0
2.5 1.875 0
3.125 1.875 0
2.5 2.5 0
3.125 2.5 0
3.125 1.875 0
3.75 1.875 0
3.125 2.5 0
3.75 2.5 0
3.75 1.25 0
4.375 1.25 0
3.75 1.875 0
4.375 1.875 0
4.375 1.25 0
5 1.25 0
4.375 1.875 0
5 1.875 0
3.75 1.875 0
4.375 1.875 0
3.75 2.5 0
4.375 2.5 0
4.375 1.875 0
5 1.875 0
4.375 2.5 0
5 2.5 0
0 2.5 0
0.625 2.5 0
0 3.125 0
0.625 3.125 0
0.625 2.5 0
1.25 2.5 0
0.625 3.125 0
1.25 3.125 0
0 3.125 0
0.625 3.125 0
0 3.75 0
0.625 3.75 0
0.625 3.125 0
1.25 3.125 0
0.625 3.75 0
1.25 3.75 0
1.25 2.5 0
1.875 2.5 0
1.25 3.125 0
1.875 3.125 0
1.875 2.5 0
2.5 2.5 0
1.875 3.125 0
2.5 3.125 0
1.25 3.125 0
1.875 3.125 0
1.25 3.75 0
1.875 3.75 0
1.875 3.125 0
2.5 3.125 0
1.875 3.75 0
2.5 3.75 0
0 3.75 0
0.625 3.75 0
0 4.375 0
0.625 4.375 0
0.625 3.75 0
1.25 3.75 0
0.625 4.375 0
1.25 4.375 0
0 4.375 0
0.625 4.375 0
0 5 0
0.625 5 0
0.625 4.375 0
1.25 4.375 0
0.625 5 0
1.25 5 0
1.25 3.75 0
1.875 3.75 0
1.25 4.375 0
1.875 4.375 0
1.875 3.75 0
2.5 3.75 0
1.875 4.375 0
2.5 4.375 0
1.25 4.375 0
1.875 4.375 0
1.25 5 0
1.875 5 0
1.875 4.375 0
2.5 4.375 0
1.875 5 0
2.5 5 0
2.5 2.5 0
3.125 2.5 0
2.5 3.125 0
3.125 3.125 0
3.125 2.5 0
3.75 2.5 0
3.125 3.125 0
3.75 3.125 0
2.5 3.125 0
3.125 3.125 0
2.5 3.75 0
3.125 3.75 0
3.125 3.125 0
3.75 3.125 0
3.125 3.75 0
3.75 3.75 0
3.75 2.5 0
4.375 2.5 0
3.75 3.125 0
4.375 3.125 0
4.375 2.5 0
5 2.5 0
4.375 3.125 0
5 3.125 0
3.75 3.125 0
4.375 3.125 0
3.75 3.75 0
4.375 3.75 0
4.375 3.125 0
5 3.125 0
4.375 3.75 0
5 3.75 0
2.5 3.75 0
3.125 3.75 0
2.5 4.375 0
3.125 4.375 0
3.125 3.75 0
3.75 3.75 0
3.125 4.375 0
3.75 4.375 0
2.5 4.375 0
3.125 4.375 0
2.5 5 0
3.125 5 0
3.125 4.375 0
3.75 4.375 0
3.125 5 0
3.75 5 0
3.75 3.75 0
4.375 3.75 0
3.75 4.375 0
4.375 4.375 0
4.375 3.75 0
5 3.75 0
4.375 4.375 0
5 4.375 0
3.75 4.375 0
4.375 4.375 0
3.75 5 0
4.375 5 0
4.375 4.375 0
5 4.375 0
4.375 5 0
5 5 0
5 0 0
5.625 0 0
5 0.625 0
5.625 0.625 0
5.625 0 0
6.25 0 0
5.625 0.625 0
6.25 0.625 0
5 0.625 0
5.625 0.625 0
5 1.25 0
5.625 1.25 0
5.625 0.625 0
6.25 0.625 0
5.625 1.25 0
6.25 1.25 0
6.25 0 0
6.875 0 0
6.25 0.625 0
6.875 0.625 0
6.875 0 0
7.5 0 0
6.875 0.625 0
7.5 0.625 0
6.25 0.625 0
6.875 0.625 0
6.25 1.25 0
6.875 1.25 0
6.875 0.625 0
7.5 0.625 0
6.875 1.25 0
7.5 1.25 0
5 1.25 0
5.625 1.25 0
5 1.875 0
5.625 1.875 0
5.625 1.25 0
6.25 1.25 0
5.625 1.875 0
6.25 1.875 0
5 1.875 0
5.625 1.875 0
5 2.5 0
5.625 2.5 0
5.625 1.875 0
6.25 1.875 0
5.625 2.5 0
6.25 2.5 0
6.25 1.25 0
6.875 1.25 0
6.25 1.875 0
6.875 1.875 0
6.875 1.25 0
7.5 1.25 0
6.875 1.875 0
7.5 1.875 0
6.25 1.875 0
6.875 1.875 0
6.25 2.5 0
6.875 2.5 0
6.875 1.875 0
7.5 1.875 0
6.875 2.5 0
7.5 2.5 0
7.5 0 0
8.125 0 0
7.5 0.625 0
8.125 0.625 0
8.125 0 0
8.75 0 0
8.125 0.625 0
8.75 0.625 0
7.5 0.625 0
8.125 0.625 0
7.5 1.25 0
8.125 1.25 0
8.125 0.625 0
8.75 0.625 0
8.125 1.25 0
8.75 1.25 0
8.75 0 0
9.375 0 0
8.75 0.625 0
9.375 0.625 0
9.375 0 0
10 0 0
9.375 0.625 0
10 0.625 0
8.75 0.625 0
9.375 0.625 0
8.75 1.25 0
9.375 1.25 0
9.375 0.625 0
10 0.625 0
9.375 1.25 0
10 1.25 0
7.5 1.25 0
8.125 1.25 0
7.5 1.875 0
8.125 1.875 0
8.125 1.25 0
8.75 1.25 0
8.125 1.875 0
8.75 1.875 0
7.5 1.875 0
8.125 1.875 0
7.5 2.5 0
8.125 2.5 0
8.125 1.875 0
8.75 1.875 0
8.125 2.5 0
8.75 2.5 0
8.75 1.25 0
9.375 1.25 0
8.75 1.875 0
9.375 1.875 0
9.375 1.25 0
10 1.25 0
9.375 1.875 0
10 1.875 0
8.75 1.875 0
9.375 1.875 0
8.75 2.5 0
9.375 2.5 0
9.375 1.875 0
10 1.875 0
9.375 2.5 0
10 2.5 0
5 2.5 0
5.625 2.5 0
5 3.125 0
5.625 3.125 0
5.625 2.5 0
6.25 2.5 0
5.625 3.125 0
6.25 3.125 0
5 3.125 0
5.625 3.125 0
5 3.75 0
5.625 3.75 0
5.625 3.125 0
6.25 3.125 0
5.625 3.75 0
6.25 3.75 0
6.25 2.5 0
6.875 2.5 0
6.25 3.125 0
6.875 3.125 0
6.875 2.5 0
7.5 2.5 0
6.875 3.125 0
7.5 3.125 0
6.25 3.125 0
6.875 3.125 0
6.25 3.75 0
6.875 3.75 0
6.875 3.125 0
7.5 3.125 0
6.875 3.75 0
7.5 3.75 0
5 3.75 0
5.625 3.75 0
5 4.375 0
5.625 4.375 0
5.625 3.75 0
6.25 3.75 0
5.625 4.375 0
6.25 4.375 0
5 4.375 0
5.625 4.375 0
5 5 0
5.625 5 0
5.625 4.375 0
6.25 4.375 0
5.625 5 0
6.25 5 0
6.25 3.75 0
6.875 3.75 0
6.25 4.375 0
6.875 4.375 0
6.875 3.75 0
7.5 3.75 0
6.875 4.375 0
7.5 4.375 0
6.25 4.375 0
6.875 4.375 0
6.25 5 0
6.875 5 0
6.875 4.375 0
7.5 4.375 0
6.875 5 0
7.5 5 0
7.5 2.5 0
8.125 2.5 0
7.5 3.125 0
8.125 3.125 0
8.125 2.5 0
8.75 2.5 0
8.125 3.125 0
8.75 3.125 0
7.5 3.125 0
8.125 3.125 0
7.5 3.75 0
8.125 3.75 0
8.125 3.125 0
8.75 3.125 0
8.125 3.75 0
8.75 3.75 0
8.75 2.5 0
9.375 2.5 0
8.75 3.125 0
9.375 3.125 0
9.375 2.5 0
10 2.5 0
9.375 3.125 0
10 3.125 0
8.75 3.125 0
9.375 3.125 0
8.75 3.75 0
9.375 3.75 0
9.375 3.125 0
10 3.125 0
9.375 3.75 0
10 3.75 0
7.5 3.75 0
8.125 3.75 0
7.5 4.375 0
8.125 4.375 0
8.125 3.75 0
8.75 3.75 0
8.125 4.375 0
8.75 4.375 0
7.5 4.375 0
8.125 4.375 0
7.5 5 0
8.125 5 0
8.125 4.375 0
8.75 4.375 0
8.125 5 0
8.75 5 0
8.75 3.75 0
9.375 3.75 0
8.75 4.375 0
9.375 4.375 0
9.375 3.75 0
10 3.75 0
9.375 4.375 0
10 4.375 0
8.75 4.375 0
9.375 4.375 0
8.75 5 0
9.375 5 0
9.375 4.375 0
10 4.375 0
9.375 5 0
10 5 0
0 5 0
0.625 5 0
0 5.625 0
0.625 5.625 0
0.625 5 0
1.25 5 0
0.625 5.625 0
1.25 5.625 0
0 5.625 0
0.625 5.625 0
0 6.25 0
0.625 6.25 0
0.625 5.625 0
1.25 5.625 0
0.625 6.25 0
1.25 6.25 0
1.25 5 0
1.875 5 0
1.25 5.625 0
1.875 5.625 0
1.875 5 0
2.5 5 0
1.875 5.625 0
2.5 5.625 0
1.25 5.625 0
1.875 5.625 0
1.25 6.25 0
1.875 6.25 0
1.875 5.625 0
2.5 5.625 0
1.875 6.25 0
2.5 6.25 0
0 6.25 0
0.625 6.25 0
0 6.875 0
0.625 6.875 0
0.625 6.25 0
1.25 6.25 0
0.625 6.875 0
1.25 6.875 0
0 6.875 0
0.625 6.875 0
0 7.5 0
0.625 7.5 0
0.625 6.875 0
1.25 6.875 0
0.625 7.5 0
1.25 7.5 0
1.25 6.25 0
1.875 6.25 0
1.25 6.875 0
1.875 6.875 0
1.875 6.25 0
2.5 6.25 0
1.875 6.875 0
2.5 6.875 0
1.25 6.875 0
1.875 6.875 0
1.25 7.5 0
1.875 7.5 0
1.875 6.875 0
2.5 6.875 0
1.875 7.5 0
2.5 7.5 0
2.5 5 0
3.125 5 0
2.5 5.625 0
3.125 5.625 0
3.125 5 0
3.75 5 0
3.125 5.625 0
3.75 5.625 0
2.5 5.625 0
3.125 5.625 0
2.5 6.25 0
3.125 6.25 0
3.125 5.625 0
3.75 5.625 0
3.125 6.25 0
3.75 6.25 0
3.75 5 0
4.375 5 0
3.75 5.625 0
4.375 5.625 0
4.375 5 0
5 5 0
4.375 5.625 0
5 5.625 0
3.75 5.625 0
4.375 5.625 0
3.75 6.25 0
4.375 6.25 0
4.375 5.625 0
5 5.625 0
4.375 6.25 0
5 6.25 0
2.5 6.25 0
3.125 6.25 0
2.5 6.875 0
3.125 6.875 0
3.125 6.25 0
3.75 6.25 0
3.125 6.875 0
3.75 6.875 0
2.5 6.875 0
3.125 6.875 0
2.5 7.5 0
3.125 7.5 0
3.125 6.875 0
3.75 6.875 0
3.125 7.5 0
3.75 7.5 0
3.75 6.25 0
4.375 6.25 0
3.75 6.875 0
4.375 6.875 0
4.375 6.25 0
5 6.25 0
4.375 6.875 0
5 6.875 0
3.75 6.875 0
4.375 6.875 0
3.75 7.5 0
4.375 7.5 0
4.375 6.875 0
5 6.875 0
4.375 7.5 0
5 7.5 0
0 7.5 0
0.625 7.5 0
0 8.125 0
0.625 8.125 0
0.625 7.5 0
1.25 7.5 0
0.625 8.125 0
1.25 8.125 0
0 8.125 0
0.625 8.125 0
0 8.75 0
0.625 8.75 0
0.625 8.125 0
1.25 8.125 0
0.625 8.75 0
1.25 8.75 0
1.25 7.5 0
1.875 7.5 0
1.25 8.125 0
1.875 8.125 0
1.875 7.5 0
2.5 7.5 0
1.875 8.125 0
2.5 8.125 0
1.25 8.125 0
1.875 8.125 0
1.25 8.75 0
1.875 8.75 0
1.875 8.125 0
2.5 8.125 0
1.875 8.75 0
2.5 8.75 0
0 8.75 0
0.625 8.75 0
0 9.375 0
0.625 9.375 0
0.625 8.75 0
1.25 8.75 0
0.625 9.375 0
1.25 9.375 0
0 9.375 0
0.625 9.375 0
0 10 0
0.625 10 0
0.625 9.375 0
1.25 9.375 0
0.625 10 0
1.25 10 0
1.25 8.75 0
1.875 8.75 0
1.25 9.375 0
1.875 9.375 0
1.875 8.75 0
2.5 8.75 0
1.875 9.375 0
2.5 9.375 0
1.25 9.375 0
1.875 9.375 0
1.25 10 0
1.875 10 0
1.875 9.375 0
2.5 9.375 0
1.875 10 0
2.5 10 0
2.5 7.5 0
3.125 7.5 0
2.5 8.125 0
3.125 8.125 0
3.125 7.5 0
3.75 7.5 0
3.125 8.125 0
3.75 8.125 0
2.5 8.125 0
3.125 8.125 0
2.5 8.75 0
3.125 8.75 0
3.125 8.125 0
3.75 8.125 0
3.125 8.75 0
3.75 8.75 0
3.75 7.5 0
4.375 7.5 0
3.75 8.125 0
4.375 8.125 0
4.375 7.5 0
5 7.5 0
4.375 8.125 0
5 8.125 0
3.75 8.125 0
4.375 8.125 0
3.75 8.75 0
4.375 8.75 0
4.375 8.125 0
5 8.125 0
4.375 8.75 0
5 8.75 0
2.5 8.75 0
3.125 8.75 0
2.5 9.375 0
3.125 9.375 0
3.125 8.75 0
3.75 8.75 0
3.125 9.375 0
3.75 9.375 0
2.5 9.375 0
3.125 9.375 0
2.5 10 0
3.125 10 0
3.125 9.375 0
3.75 9.375 0
3.125 10 0
3.75 10 0
3.75 8.75 0
4.375 8.75 0
3.75 9.375 0
4.375 9.375 0
4.375 8.75 0
5 8.75 0
4.375 9.375 0
5 9.375 0
3.75 9.375 0
4.375 9.375 0
3.75 10 0
4.375 10 0
4.375 9.375 0
5 9.375 0
4.375 10 0
5 10 0
5 5 0
5.625 5 0
5 5.625 0
5.625 5.625 0
5.625 5 0
6.25 5 0
5.625 5.625 0
6.25 5.625 0
5 5.625 0
5.625 5.625 0
5 6.25 0
5.625 6.25 0
5.625 5.625 0
6.25 5.625 0
5.625 6.25 0
6.25 6.25 0
6.25 5 0
6.875 5 0
6.25 5.625 0
6.875 5.625 0
6.875 5 0
7.5 5 0
6.875 5.625 0
7.5 5.625 0
6.25 5.625 0
6.875 5.625 0
6.25 6.25 0
6.875 6.25 0
6.875 5.625 0
7.5 5.625 0
6.875 6.25 0
7.5 6.25 0
5 6.25 0
5.625 6.25 0
5 6.875 0
5.625 6.875 0
5.625 6.25 0
6.25 6.25 0
5.625 6.875 0
6.25 6.875 0
5 6.875 0
5.625 6.875 0
5 7.5 0
5.625 7.5 0
5.625 6.875 0
6.25 6.875 0
5.625 7.5 0
6.25 7.5 0
6.25 6.25 0
6.875 6.25 0
[...]
POINT_DATA 4096
SCALARS u double 1
LOOKUP_TABLE default
3.43487e-16 1.89323e-14 3.43487e-16 1.89323e-14 1.89323e-14 -9.92292e-15 1.89323e-14 -9.92292e-15 -6.07487e-15 4.99761e-15 -6.07487e-15 4.99761e-15 4.99761e-15 5.53781e-15 4.99761e-15 5.53781e-15 -9.92292e-15 1.23938e-14 -9.92292e-15 1.23938e-14 1.23938e-14 2.68995e-15 1.23938e-14 2.68995e-15 5.53781e-15 2.55662e-15 5.53781e-15 2.55662e-15 2.55662e-15 -7.62932e-16 2.55662e-15 -7.62932e-16 1.87382e-14 -6.14197e-15 1.87382e-14 -6.14197e-15 -6.14197e-15 2.37086e-15 -6.14197e-15 2.37086e-15 -7.82522e-16 1.35044e-14 -7.82522e-16 1.35044e-14 1.35044e-14 -1.9253e-15 1.35044e-14 -1.9253e-15 2.37086e-15 -9.89848e-16 2.37086e-15 -9.89848e-16 -9.89848e-16 9.46282e-15 -9.89848e-16 9.46282e-15 -1.9253e-15 2.88291e-15 -1.9253e-15 2.88291e-15 2.88291e-15 -1.3027e-15 2.88291e-15 -1.3027e-15 2.68995e-15 -1.13549e-14 2.68995e-15 -1.13549e-14 -1.13549e-14 2.52163e-14 -1.13549e-14 2.52163e-14 -7.62932e-16 4.61295e-15 -7.62932e-16 4.61295e-15 4.61295e-15 8.69593e-15 4.61295e-15 8.69593e-15 2.52163e-14 -2.20986e-14 2.52163e-14 -2.20986e-14 -2.20986e-14 1.05469e-14 -2.20986e-14 1.05469e-14 8.69593e-15 1.04262e-14 8.69593e-15 1.04262e-14 1.04262e-14 -7.92534e-15 1.04262e-14 -7.92534e-15 9.46282e-15 5.91716e-15 9.46282e-15 5.91716e-15 5.91716e-15 -5.29564e-15 5.91716e-15 -5.29564e-15 -1.3027e-15 6.2382e-15 -1.3027e-15 6.2382e-15 6.2382e-15 -6.27907e-15 6.2382e-15 -6.27907e-15 -5.29564e-15 2.98727e-15 -5.29564e-15 2.98727e-15 2.98727e-15 -6.6819e-16 2.98727e-15 -6.6819e-16 -6.27907e-15 -3.29353e-15 -6.27907e-15 -3.29353e-15 -3.29353e-15 -5.07402e-15 -3.29353e-15 -5.07402e-15 -5.26689e-15 -2.0477e-16 -5.26689e-15 -2.0477e-16 -2.0477e-16 7.13064e-15 -2.0477e-16 7.13064e-15 -3.03031e-15 -1.41098e-14 -3.03031e-15 -1.41098e-14 -1.41098e-14 -9.33113e-15 -1.41098e-14 -9.33113e-15 7.13064e-15 1.25314e-14 7.13064e-15 1.25314e-14 1.25314e-14 -4.91712e-15 1.25314e-14 -4.91712e-15 -9.33113e-15 -4.271e-15 -9.33113e-15 -4.271e-15 -4.271e-15 3.38155e-15 -4.271e-15 3.38155e-15 5.38305e-15 4.23262e-15 5.38305e-15 4.23262e-15 4.23262e-15 3.41286e-15 4.23262e-15 3.41286e-15 5.0107e-15 8.59493e-15 5.0107e-15 8.59493e-15 8.59493e-15 -7.18528e-15 8.59493e-15 -7.18528e-15 3.41286e-15 -5.46635e-15 3.41286e-15 -5.46635e-15 -5.46635e-15 -6.43198e-16 -5.46635e-15 -6.43198e-16 -7.18528e-15 3.34417e-15 -7.18528e-15 3.34417e-15 3.34417e-15 2.18292e-15 3.34417e-15 2.18292e-15 -4.91712e-15 -1.38722e-14 -4.91712e-15 -1.38722e-14 -1.38722e-14 1.00185e-14 -1.38722e-14 1.00185e-14 3.38155e-15 -1.09707e-15 3.38155e-15 -1.09707e-15 -1.09707e-15 -3.1813e-15 -1.09707e-15 -3.1813e-15 1.00185e-14 -3.71964e-15 1.00185e-14 -3.71964e-15 -3.71964e-15 3.72747e-15 -3.71964e-15 3.72747e-15 -3.1813e-15 3.60513e-15 -3.1813e-15 3.60513e-15 3.60513e-15 -1.02349e-14 3.60513e-15 -1.02349e-14 -6.43198e-16 7.31441e-15 -6.43198e-16 7.31441e-15 7.31441e-15 -4.65621e-15 7.31441e-15 -4.65621e-15 2.18292e-15 -9.38349e-15 2.18292e-15 -9.38349e-15 -9.38349e-15 3.14707e-15 -9.38349e-15 3.14707e-15 -4.65621e-15 3.07829e-15 -4.65621e-15 3.07829e-15 3.07829e-15 7.11851e-15 3.07829e-15 7.11851e-15 3.14707e-15 -8.38619e-15 3.14707e-15 -8.38619e-15 -8.38619e-15 -2.46571e-15 -8.38619e-15 -2.46571e-15 1.05469e-14 -2.32488e-16 1.05469e-14 -2.32488e-16 -2.32488e-16 3.79946e-15 -2.32488e-16 3.79946e-15 -7.92534e-15 3.58255e-15 -7.92534e-15 3.58255e-15 3.58255e-15 3.49734e-15 3.58255e-15 3.49734e-15 3.79946e-15 -1.85701e-14 3.79946e-15 -1.85701e-14 -1.85701e-14 2.28745e-15 -1.85701e-14 2.28745e-15 3.49734e-15 7.81358e-15 3.49734e-15 7.81358e-15 7.81358e-15 -6.17003e-15 7.81358e-15 -6.17003e-15 -6.6819e-16 3.00788e-15 -6.6819e-16 3.00788e-15 3.00788e-15 -8.94733e-15 3.00788e-15 -8.94733e-15 -5.07402e-15 -3.30418e-15 -5.07402e-15 -3.30418e-15 -3.30418e-15 4.47749e-15 -3.30418e-15 4.47749e-15 -8.94733e-15 -7.46521e-16 -8.94733e-15 -7.46521e-16 -7.46521e-16 4.73697e-15 -7.46521e-16 4.73697e-15 4.47749e-15 -6.04328e-15 4.47749e-15 -6.04328e-15 -6.04328e-15 -8.89978e-15 -6.04328e-15 -8.89978e-15 2.28745e-15 -6.36548e-16 2.28745e-15 -6.36548e-16 -6.36548e-16 7.45514e-16 -6.36548e-16 7.45514e-16 -6.17003e-15 4.55798e-15 -6.17003e-15 4.55798e-15 4.55798e-15 -1.6563e-18 4.55798e-15 -1.6563e-18 7.45514e-16 1.18439e-14 7.45514e-16 1.18439e-14 1.18439e-14 -3.44846e-15 1.18439e-14 -3.44846e-15 -1.6563e-18 1.07344e-14 -1.6563e-18 1.07344e-14 1.07344e-14 -3.87785e-15 1.07344e-14 -3.87785e-15 4.73697e-15 -1.2342e-14 4.73697e-15 -1.2342e-14 -1.2342e-14 -1.48073e-15 -1.2342e-14 -1.48073e-15 -8.89978e-15 -2.98484e-15 -8.89978e-15 -2.98484e-15 -2.98484e-15 -4.2054e-15 -2.98484e-15 -4.2054e-15 -1.48073e-15 -1.60581e-14 -1.48073e-15 -1.60581e-14 -1.60581e-14 3.29482e-15 -1.60581e-14 3.29482e-15 -4.2054e-15 1.04989e-14 -4.2054e-15 1.04989e-14 1.04989e-14 7.97919e-15 1.04989e-14 7.97919e-15 3.72747e-15 -3.12119e-15 3.72747e-15 -3.12119e-15 -3.12119e-15 7.10743e-15 -3.12119e-15 7.10743e-15 -1.02349e-14 8.45984e-15 -1.02349e-14 8.45984e-15 8.45984e-15 -3.80736e-15 8.45984e-15 -3.80736e-15 7.10743e-15 -3.87198e-15 7.10743e-15 -3.87198e-15 -3.87198e-15 -5.36593e-15 -3.87198e-15 -5.36593e-15 -3.80736e-15 6.27876e-15 -3.80736e-15 6.27876e-15 6.27876e-15 1.02823e-14 6.27876e-15 1.02823e-14 7.11851e-15 -9.41792e-15 7.11851e-15 -9.41792e-15 -9.41792e-15 -5.58341e-15 -9.41792e-15 -5.58341e-15 -2.46571e-15 -4.02254e-15 -2.46571e-15 -4.02254e-15 -4.02254e-15 -1.39818e-16 -4.02254e-15 -1.39818e-16 -5.58341e-15 -2.18689e-15 -5.58341e-15 -2.18689e-15 -2.18689e-15 5.39861e-15 -2.18689e-15 5.39861e-15 -1.39818e-16 6.86861e-15 -1.39818e-16 6.86861e-15 6.86861e-15 -4.19784e-15 6.86861e-15 -4.19784e-15 -5.36593e-15 3.41332e-15 -5.36593e-15 3.41332e-15 3.41332e-15 5.69027e-15 3.41332e-15 5.69027e-15 1.02823e-14 4.32795e-15 1.02823e-14 4.32795e-15 4.32795e-15 4.53284e-15 4.32795e-15 4.53284e-15 5.69027e-15 -9.27417e-15 5.69027e-15 -9.27417e-15 -9.27417e-15 -1.18707e-14 -9.27417e-15 -1.18707e-14 4.53284e-15 3.35789e-15 4.53284e-15 3.35789e-15 3.35789e-15 5.89061e-15 3.35789e-15 5.89061e-15 5.39861e-15 -1.01239e-15 5.39861e-15 -1.01239e-15 -1.01239e-15 -1.46586e-15 -1.01239e-15 -1.46586e-15 -4.19784e-15 -5.61349e-16 -4.19784e-15 -5.61349e-16 -5.61349e-16 1.05278e-14 -5.61349e-16 1.05278e-14 -1.46586e-15 7.74192e-15 -1.46586e-15 7.74192e-15 7.74192e-15 -1.35938e-15 7.74192e-15 -1.35938e-15 1.05278e-14 -5.04405e-15 1.05278e-14 -5.04405e-15 -5.04405e-15 -4.58802e-15 -5.04405e-15 -4.58802e-15 9.68082e-15 -1.55968e-15 9.68082e-15 -1.55968e-15 -1.55968e-15 1.86971e-14 -1.55968e-15 1.86971e-14 2.88031e-15 1.1407e-15 2.88031e-15 1.1407e-15 1.1407e-15 -1.32272e-14 1.1407e-15 -1.32272e-14 1.86971e-14 4.96977e-15 1.86971e-14 4.96977e-15 4.96977e-15 -4.11191e-15 4.96977e-15 -4.11191e-15 -1.32272e-14 -1.38628e-15 -1.32272e-14 -1.38628e-15 -1.38628e-15 9.35349e-15 -1.38628e-15 9.35349e-15 -1.18274e-14 -3.03618e-15 -1.18274e-14 -3.03618e-15 -3.03618e-15 2.3312e-15 -3.03618e-15 2.3312e-15 2.50283e-14 8.36641e-15 2.50283e-14 8.36641e-15 8.36641e-15 8.16203e-15 8.36641e-15 8.16203e-15 2.3312e-15 -7.92596e-16 2.3312e-15 -7.92596e-16 -7.92596e-16 -4.81337e-15 -7.92596e-16 -4.81337e-15 8.16203e-15 -1.00268e-14 8.16203e-15 -1.00268e-14 -1.00268e-14 -4.49298e-15 -1.00268e-14 -4.49298e-15 -4.11191e-15 1.12788e-14 -4.11191e-15 1.12788e-14 1.12788e-14 -4.53088e-15 1.12788e-14 -4.53088e-15 9.35349e-15 -5.61777e-15 9.35349e-15 -5.61777e-15 -5.61777e-15 3.29984e-15 -5.61777e-15 3.29984e-15 -4.53088e-15 -5.43124e-15 -4.53088e-15 -5.43124e-15 -5.43124e-15 -1.01645e-14 -5.43124e-15 -1.01645e-14 3.29984e-15 1.57312e-15 3.29984e-15 1.57312e-15 1.57312e-15 1.20019e-14 1.57312e-15 1.20019e-14 -4.81337e-15 -6.79538e-15 -4.81337e-15 -6.79538e-15 -6.79538e-15 4.03743e-15 -6.79538e-15 4.03743e-15 -4.49298e-15 -5.80388e-15 -4.49298e-15 -5.80388e-15 -5.80388e-15 -8.1935e-15 -5.80388e-15 -8.1935e-15 4.03743e-15 -2.95985e-15 4.03743e-15 -2.95985e-15 -2.95985e-15 -7.4845e-15 -2.95985e-15 -7.4845e-15 -8.1935e-15 8.1282e-15 -8.1935e-15 8.1282e-15 8.1282e-15 -5.15818e-16 8.1282e-15 -5.15818e-16 -4.6404e-14 -5.72722e-15 -4.6404e-14 -5.72722e-15 -5.72722e-15 4.50971e-15 -5.72722e-15 4.50971e-15 2.48489e-14 3.01287e-15 2.48489e-14 3.01287e-15 3.01287e-15 -6.19404e-15 3.01287e-15 -6.19404e-15 4.50971e-15 1.34901e-15 4.50971e-15 1.34901e-15 1.34901e-15 -2.92836e-15 1.34901e-15 -2.92836e-15 -6.19404e-15 1.32469e-14 -6.19404e-15 1.32469e-14 1.32469e-14 4.71915e-15 1.32469e-14 4.71915e-15 1.15554e-14 -2.88979e-16 1.15554e-14 -2.88979e-16 -2.88979e-16 3.70734e-15 -2.88979e-16 3.70734e-15 -7.18253e-15 5.30957e-15 -7.18253e-15 5.30957e-15 5.30957e-15 1.3237e-15 5.30957e-15 1.3237e-15 3.70734e-15 -5.01338e-15 3.70734e-15 -5.01338e-15 -5.01338e-15 2.07996e-15 -5.01338e-15 2.07996e-15 1.3237e-15 -6.37797e-15 1.3237e-15 -6.37797e-15 -6.37797e-15 1.00304e-15 -6.37797e-15 1.00304e-15 -2.92836e-15 5.98936e-15 -2.92836e-15 5.98936e-15 5.98936e-15 -6.9348e-15 5.98936e-15 -6.9348e-15 4.71915e-15 1.17959e-14 4.71915e-15 1.17959e-14 1.17959e-14 8.8787e-15 1.17959e-14 8.8787e-15 -6.9348e-15 -2.88077e-16 -6.9348e-15 -2.88077e-16 -2.88077e-16 -6.58935e-15 -2.88077e-16 -6.58935e-15 8.8787e-15 -1.46061e-14 8.8787e-15 -1.46061e-14 -1.46061e-14 5.64927e-15 -1.46061e-14 5.64927e-15 2.07996e-15 -1.27815e-14 2.07996e-15 -1.27815e-14 -1.27815e-14 -2.5834e-15 -1.27815e-14 -2.5834e-15 1.00304e-15 1.16722e-14 1.00304e-15 1.16722e-14 1.16722e-14 -9.99225e-16 1.16722e-14 -9.99225e-16 -2.5834e-15 6.06104e-15 -2.5834e-15 6.06104e-15 6.06104e-15 5.13565e-15 6.06104e-15 5.13565e-15 -9.99225e-16 9.38939e-16 -9.99225e-16 9.38939e-16 9.38939e-16 -2.17675e-14 9.38939e-16 -2.17675e-14 -1.01645e-14 -6.5567e-15 -1.01645e-14 -6.5567e-15 -6.5567e-15 -7.69263e-15 -6.5567e-15 -7.69263e-15 1.20019e-14 4.16583e-15 1.20019e-14 4.16583e-15 4.16583e-15 1.04247e-14 4.16583e-15 1.04247e-14 -7.69263e-15 -5.74247e-15 -7.69263e-15 -5.74247e-15 -5.74247e-15 3.48516e-15 -5.74247e-15 3.48516e-15 1.04247e-14 6.63849e-15 1.04247e-14 6.63849e-15 6.63849e-15 -1.081e-14 6.63849e-15 -1.081e-14 -7.4845e-15 5.26097e-15 -7.4845e-15 5.26097e-15 5.26097e-15 -7.33366e-16 5.26097e-15 -7.33366e-16 -5.15818e-16 -9.94668e-15 -5.15818e-16 -9.94668e-15 -9.94668e-15 -2.30012e-15 -9.94668e-15 -2.30012e-15 -7.33366e-16 -6.72859e-15 -7.33366e-16 -6.72859e-15 -6.72859e-15 1.05471e-14 -6.72859e-15 1.05471e-14 -2.30012e-15 1.60821e-15 -2.30012e-15 1.60821e-15 1.60821e-15 2.36258e-15 1.60821e-15 2.36258e-15 3.48516e-15 1.09866e-14 3.48516e-15 1.09866e-14 1.09866e-14 -1.74476e-14 1.09866e-14 -1.74476e-14 -1.081e-14 -5.54316e-15 -1.081e-14 -5.54316e-15 -5.54316e-15 6.98669e-15 -5.54316e-15 6.98669e-15 -1.74476e-14 1.31834e-14 -1.74476e-14 1.31834e-14 1.31834e-14 9.40995e-15 1.31834e-14 9.40995e-15 6.98669e-15 -6.15708e-15 6.98669e-15 -6.15708e-15 -6.15708e-15 9.29086e-15 -6.15708e-15 9.29086e-15 1.05471e-14 -8.70204e-15 1.05471e-14 -8.70204e-15 -8.70204e-15 -1.25205e-15 -8.70204e-15 -1.25205e-15 2.36258e-15 1.30638e-14 2.36258e-15 1.30638e-14 1.30638e-14 2.53316e-15 1.30638e-14 2.53316e-15 -1.25205e-15 4.72972e-15 -1.25205e-15 4.72972e-15 4.72972e-15 -6.70502e-15 4.72972e-15 -6.70502e-15 2.53316e-15 -2.95846e-16 2.53316e-15 -2.95846e-16 -2.95846e-16 5.51667e-15 -2.95846e-16 5.51667e-15 -6.58935e-15 4.73391e-15 -6.58935e-15 4.73391e-15 4.73391e-15 -7.28565e-15 4.73391e-15 -7.28565e-15 5.64927e-15 -9.05319e-16 5.64927e-15 -9.05319e-16 -9.05319e-16 8.85795e-15 -9.05319e-16 8.85795e-15 -7.28565e-15 5.6639e-16 -7.28565e-15 5.6639e-16 5.6639e-16 -2.38805e-15 5.6639e-16 -2.38805e-15 8.85795e-15 -1.75751e-15 8.85795e-15 -1.75751e-15 -1.75751e-15 4.48474e-15 -1.75751e-15 4.48474e-15 5.13565e-15 -1.29821e-15 5.13565e-15 -1.29821e-15 -1.29821e-15 8.142e-15 -1.29821e-15 8.142e-15 -2.17675e-14 3.41625e-15 -2.17675e-14 3.41625e-15 3.41625e-15 -9.3822e-15 3.41625e-15 -9.3822e-15 8.142e-15 -2.96978e-15 8.142e-15 -2.96978e-15 -2.96978e-15 -1.07592e-14 -2.96978e-15 -1.07592e-14 -9.3822e-15 6.0801e-15 -9.3822e-15 6.0801e-15 6.0801e-15 -1.5676e-14 6.0801e-15 -1.5676e-14 -2.38805e-15 -9.83887e-15 -2.38805e-15 -9.83887e-15 -9.83887e-15 8.50674e-15 -9.83887e-15 8.50674e-15 4.48474e-15 6.35565e-15 4.48474e-15 6.35565e-15 6.35565e-15 -1.17531e-14 6.35565e-15 -1.17531e-14 8.50674e-15 2.75897e-16 8.50674e-15 2.75897e-16 2.75897e-16 -4.19803e-16 2.75897e-16 -4.19803e-16 -1.17531e-14 8.7357e-16 -1.17531e-14 8.7357e-16 8.7357e-16 -4.56263e-15 8.7357e-16 -4.56263e-15 -1.07592e-14 -2.38789e-15 -1.07592e-14 -2.38789e-15 -2.38789e-15 6.00734e-15 -2.38789e-15 6.00734e-15 -1.5676e-14 -1.5952e-15 -1.5676e-14 -1.5952e-15 -1.5952e-15 -4.72285e-16 -1.5952e-15 -4.72285e-16 6.00734e-15 -1.06748e-15 6.00734e-15 -1.06748e-15 -1.06748e-15 -4.87353e-15 -1.06748e-15 -4.87353e-15 -4.72285e-16 1.96908e-14 -4.72285e-16 1.96908e-14 1.96908e-14 1.20425e-14 1.96908e-14 1.20425e-14 -3.44846e-15 4.31733e-15 -3.44846e-15 4.31733e-15 4.31733e-15 -2.25384e-14 4.31733e-15 -2.25384e-14 -3.87785e-15 -9.8894e-15 -3.87785e-15 -9.8894e-15 -9.8894e-15 -1.1392e-15 -9.8894e-15 -1.1392e-15 -2.25384e-14 2.78911e-15 -2.25384e-14 2.78911e-15 2.78911e-15 -4.95651e-15 2.78911e-15 -4.95651e-15 -1.1392e-15 -2.04284e-15 -1.1392e-15 -2.04284e-15 -2.04284e-15 8.96975e-15 -2.04284e-15 8.96975e-15 3.29482e-15 -7.48438e-15 3.29482e-15 -7.48438e-15 -7.48438e-15 -2.84462e-15 -7.48438e-15 -2.84462e-15 7.97919e-15 5.60241e-15 7.97919e-15 5.60241e-15 5.60241e-15 2.653e-15 5.60241e-15 2.653e-15 -2.84462e-15 -6.13714e-15 -2.84462e-15 -6.13714e-15 -6.13714e-15 2.27658e-15 -6.13714e-15 2.27658e-15 2.653e-15 1.60545e-14 2.653e-15 1.60545e-14 1.60545e-14 2.95602e-16 1.60545e-14 2.95602e-16 -4.95651e-15 1.30726e-14 -4.95651e-15 1.30726e-14 1.30726e-14 -2.22053e-14 1.30726e-14 -2.22053e-14 8.96975e-15 1.20764e-14 8.96975e-15 1.20764e-14 1.20764e-14 8.7534e-15 1.20764e-14 8.7534e-15 -2.22053e-14 8.04709e-15 -2.22053e-14 8.04709e-15 8.04709e-15 1.48655e-14 8.04709e-15 1.48655e-14 8.7534e-15 -1.32013e-14 8.7534e-15 -1.32013e-14 -1.32013e-14 8.74427e-15 -1.32013e-14 8.74427e-15 2.27658e-15 6.14483e-16 2.27658e-15 6.14483e-16 6.14483e-16 8.05957e-15 6.14483e-16 8.05957e-15 2.95602e-16 4.06973e-15 2.95602e-16 4.06973e-15 4.06973e-15 -5.85596e-15 4.06973e-15 -5.85596e-15 8.05957e-15 1.16216e-14 8.05957e-15 1.16216e-14 1.16216e-14 -6.0601e-15 1.16216e-14 -6.0601e-15 -5.85596e-15 -2.42315e-15 -5.85596e-15 -2.42315e-15 -2.42315e-15 3.32279e-15 -2.42315e-15 3.32279e-15 -1.18707e-14 1.26445e-14 -1.18707e-14 1.26445e-14 1.26445e-14 8.77675e-15 1.26445e-14 8.77675e-15 5.89061e-15 -3.28588e-15 5.89061e-15 -3.28588e-15 -3.28588e-15 2.34052e-15 -3.28588e-15 2.34052e-15 8.77675e-15 -7.08028e-15 8.77675e-15 -7.08028e-15 -7.08028e-15 6.99542e-15 -7.08028e-15 6.99542e-15 2.34052e-15 -5.64756e-15 2.34052e-15 -5.64756e-15 -5.64756e-15 -2.31644e-15 -5.64756e-15 -2.31644e-15 -1.35938e-15 -3.51543e-15 -1.35938e-15 -3.51543e-15 -3.51543e-15 -7.72455e-15 -3.51543e-15 -7.72455e-15 -4.58802e-15 -6.45722e-15 -4.58802e-15 -6.45722e-15 -6.45722e-15 5.91839e-15 -6.45722e-15 5.91839e-15 -7.72455e-15 9.93751e-15 -7.72455e-15 9.93751e-15 9.93751e-15 -6.2163e-16 9.93751e-15 -6.2163e-16 5.91839e-15 -1.49259e-14 5.91839e-15 -1.49259e-14 -1.49259e-14 -3.71777e-15 -1.49259e-14 -3.71777e-15 6.99542e-15 -1.5309e-15 6.99542e-15 -1.5309e-15 -1.5309e-15 1.42304e-14 -1.5309e-15 1.42304e-14 -2.31644e-15 4.34349e-15 -2.31644e-15 4.34349e-15 4.34349e-15 -1.56569e-14 4.34349e-15 -1.56569e-14 1.42304e-14 2.89424e-15 1.42304e-14 2.89424e-15 2.89424e-15 -3.60154e-15 2.89424e-15 -3.60154e-15 -1.56569e-14 8.38804e-15 -1.56569e-14 8.38804e-15 8.38804e-15 8.04887e-15 8.38804e-15 8.04887e-15 -6.2163e-16 -9.40137e-15 -6.2163e-16 -9.40137e-15 -9.40137e-15 4.58033e-15 -9.40137e-15 4.58033e-15 -3.71777e-15 3.02098e-16 -3.71777e-15 3.02098e-16 3.02098e-16 5.18208e-16 3.02098e-16 5.18208e-16 4.58033e-15 -1.55208e-14 4.58033e-15 -1.55208e-14 -1.55208e-14 -4.12875e-15 -1.55208e-14 -4.12875e-15 5.18208e-16 3.3744e-15 5.18208e-16 3.3744e-15 3.3744e-15 -1.02605e-14 3.3744e-15 -1.02605e-14 1.48655e-14 1.02814e-14 1.48655e-14 1.02814e-14 1.02814e-14 -2.85421e-15 1.02814e-14 -2.85421e-15 8.74427e-15 -4.3444e-15 8.74427e-15 -4.3444e-15 -4.3444e-15 -5.44426e-15 -4.3444e-15 -5.44426e-15 -2.85421e-15 -2.61545e-15 -2.85421e-15 -2.61545e-15 -2.61545e-15 3.48399e-15 -2.61545e-15 3.48399e-15 -5.44426e-15 -3.72944e-15 -5.44426e-15 -3.72944e-15 -3.72944e-15 -1.04173e-15 -3.72944e-15 -1.04173e-15 -6.0601e-15 4.91353e-15 -6.0601e-15 4.91353e-15 4.91353e-15 7.35412e-15 4.91353e-15 7.35412e-15 3.32279e-15 5.92004e-15 3.32279e-15 5.92004e-15 5.92004e-15 1.92539e-16 5.92004e-15 1.92539e-16 7.35412e-15 1.52192e-16 7.35412e-15 1.52192e-16 1.52192e-16 -7.21836e-15 1.52192e-16 -7.21836e-15 1.92539e-16 3.14121e-15 1.92539e-16 3.14121e-15 3.14121e-15 1.05247e-15 3.14121e-15 1.05247e-15 3.48399e-15 3.81811e-17 3.48399e-15 3.81811e-17 3.81811e-17 1.46861e-14 3.81811e-17 1.46861e-14 -1.04173e-15 3.68356e-15 -1.04173e-15 3.68356e-15 3.68356e-15 1.26509e-15 3.68356e-15 1.26509e-15 1.46861e-14 4.6874e-15 1.46861e-14 4.6874e-15 4.6874e-15 -7.89784e-16 4.6874e-15 -7.89784e-16 1.26509e-15 -6.73251e-15 1.26509e-15 -6.73251e-15 -6.73251e-15 1.66759e-15 -6.73251e-15 1.66759e-15 -7.21836e-15 -8.17252e-15 -7.21836e-15 -8.17252e-15 -8.17252e-15 -1.51481e-14 -8.17252e-15 -1.51481e-14 1.05247e-15 -2.43572e-15 1.05247e-15 -2.43572e-15 -2.43572e-15 1.07853e-14 -2.43572e-15 1.07853e-14 -1.51481e-14 5.14111e-15 -1.51481e-14 5.14111e-15 5.14111e-15 -8.56641e-15 5.14111e-15 -8.56641e-15 1.07853e-14 -7.66904e-16 1.07853e-14 -7.66904e-16 -7.66904e-16 8.94847e-15 -7.66904e-16 8.94847e-15 -3.60154e-15 -4.13051e-15 -3.60154e-15 -4.13051e-15 -4.13051e-15 -6.12699e-17 -4.13051e-15 -6.12699e-17 8.04887e-15 -1.71912e-15 8.04887e-15 -1.71912e-15 -1.71912e-15 6.00836e-15 -1.71912e-15 6.00836e-15 -6.12699e-17 6.37049e-15 -6.12699e-17 6.37049e-15 6.37049e-15 -5.99971e-15 6.37049e-15 -5.99971e-15 6.00836e-15 -1.1433e-14 6.00836e-15 -1.1433e-14 -1.1433e-14 1.67669e-14 -1.1433e-14 1.67669e-14 -4.12875e-15 5.17917e-15 -4.12875e-15 5.17917e-15 5.17917e-15 -1.10096e-14 5.17917e-15 -1.10096e-14 -1.02605e-14 -3.62961e-15 -1.02605e-14 -3.62961e-15 -3.62961e-15 -1.60129e-15 -3.62961e-15 -1.60129e-15 -1.10096e-14 6.75256e-15 -1.10096e-14 6.75256e-15 6.75256e-15 -4.21878e-15 6.75256e-15 -4.21878e-15 -1.60129e-15 -6.55279e-15 -1.60129e-15 -6.55279e-15 -6.55279e-15 -1.86509e-17 -6.55279e-15 -1.86509e-17 -5.99971e-15 6.12114e-15 -5.99971e-15 6.12114e-15 6.12114e-15 -3.27854e-15 6.12114e-15 -3.27854e-15 1.67669e-14 2.2109e-15 1.67669e-14 2.2109e-15 2.2109e-15 3.17008e-15 2.2109e-15 3.17008e-15 -3.27854e-15 3.37194e-15 -3.27854e-15 3.37194e-15 3.37194e-15 9.99623e-16 3.37194e-15 9.99623e-16 3.17008e-15 6.84733e-15 3.17008e-15 6.84733e-15 6.84733e-15 -1.72939e-16 6.84733e-15 -1.72939e-16 -4.21878e-15 7.74902e-15 -4.21878e-15 7.74902e-15 7.74902e-15 3.56768e-15 7.74902e-15 3.56768e-15 -1.86509e-17 2.43276e-15 -1.86509e-17 2.43276e-15 2.43276e-15 -1.76722e-15 2.43276e-15 -1.76722e-15 3.56768e-15 -8.99809e-15 3.56768e-15 -8.99809e-15 -8.99809e-15 -1.35048e-16 -8.99809e-15 -1.35048e-16 -1.76722e-15 3.88734e-15 -1.76722e-15 3.88734e-15 3.88734e-15 4.72531e-15 3.88734e-15 4.72531e-15 9.40995e-15 1.07563e-14 9.40995e-15 1.07563e-14 1.07563e-14 1.11709e-15 1.07563e-14 1.11709e-15 9.29086e-15 -1.98286e-15 9.29086e-15 -1.98286e-15 -1.98286e-15 -1.07996e-14 -1.98286e-15 -1.07996e-14 1.11709e-15 1.13914e-14 1.11709e-15 1.13914e-14 1.13914e-14 -9.23896e-15 1.13914e-14 -9.23896e-15 -1.07996e-14 -5.38937e-15 -1.07996e-14 -5.38937e-15 -5.38937e-15 7.81722e-15 -5.38937e-15 7.81722e-15 -6.70502e-15 4.67212e-15 -6.70502e-15 4.67212e-15 4.67212e-15 7.59287e-15 4.67212e-15 7.59287e-15 5.51667e-15 -2.33998e-15 5.51667e-15 -2.33998e-15 -2.33998e-15 1.3659e-15 -2.33998e-15 1.3659e-15 7.59287e-15 7.08131e-16 7.59287e-15 7.08131e-16 7.08131e-16 -2.95716e-16 7.08131e-16 -2.95716e-16 1.3659e-15 1.27017e-15 1.3659e-15 1.27017e-15 1.27017e-15 1.65822e-15 1.27017e-15 1.65822e-15 -9.23896e-15 1.48067e-14 -9.23896e-15 1.48067e-14 1.48067e-14 5.39696e-16 1.48067e-14 5.39696e-16 7.81722e-15 -1.90941e-14 7.81722e-15 -1.90