# vtk DataFile Version 3.0
#This file was generated by the deal.II library on 2017/2/8 at 10:13:45
ASCII
DATASET UNSTRUCTURED_GRID

POINTS 16384 double
0 0 0
0.15625 0 0
0 0.15625 0
0.15625 0.15625 0
0.15625 0 0
0.3125 0 0
0.15625 0.15625 0
0.3125 0.15625 0
0 0.15625 0
0.15625 0.15625 0
0 0.3125 0
0.15625 0.3125 0
0.15625 0.15625 0
0.3125 0.15625 0
0.15625 0.3125 0
0.3125 0.3125 0
0.3125 0 0
0.46875 0 0
0.3125 0.15625 0
0.46875 0.15625 0
0.46875 0 0
0.625 0 0
0.46875 0.15625 0
0.625 0.15625 0
0.3125 0.15625 0
0.46875 0.15625 0
0.3125 0.3125 0
0.46875 0.3125 0
0.46875 0.15625 0
0.625 0.15625 0
0.46875 0.3125 0
0.625 0.3125 0
0 0.3125 0
0.15625 0.3125 0
0 0.46875 0
0.15625 0.46875 0
0.15625 0.3125 0
0.3125 0.3125 0
0.15625 0.46875 0
0.3125 0.46875 0
0 0.46875 0
0.15625 0.46875 0
0 0.625 0
0.15625 0.625 0
0.15625 0.46875 0
0.3125 0.46875 0
0.15625 0.625 0
0.3125 0.625 0
0.3125 0.3125 0
0.46875 0.3125 0
0.3125 0.46875 0
0.46875 0.46875 0
0.46875 0.3125 0
0.625 0.3125 0
0.46875 0.46875 0
0.625 0.46875 0
0.3125 0.46875 0
0.46875 0.46875 0
0.3125 0.625 0
0.46875 0.625 0
0.46875 0.46875 0
0.625 0.46875 0
0.46875 0.625 0
0.625 0.625 0
0.625 0 0
0.78125 0 0
0.625 0.15625 0
0.78125 0.15625 0
0.78125 0 0
0.9375 0 0
0.78125 0.15625 0
0.9375 0.15625 0
0.625 0.15625 0
0.78125 0.15625 0
0.625 0.3125 0
0.78125 0.3125 0
0.78125 0.15625 0
0.9375 0.15625 0
0.78125 0.3125 0
0.9375 0.3125 0
0.9375 0 0
1.09375 0 0
0.9375 0.15625 0
1.09375 0.15625 0
1.09375 0 0
1.25 0 0
1.09375 0.15625 0
1.25 0.15625 0
0.9375 0.15625 0
1.09375 0.15625 0
0.9375 0.3125 0
1.09375 0.3125 0
1.09375 0.15625 0
1.25 0.15625 0
1.09375 0.3125 0
1.25 0.3125 0
0.625 0.3125 0
0.78125 0.3125 0
0.625 0.46875 0
0.78125 0.46875 0
0.78125 0.3125 0
0.9375 0.3125 0
0.78125 0.46875 0
0.9375 0.46875 0
0.625 0.46875 0
0.78125 0.46875 0
0.625 0.625 0
0.78125 0.625 0
0.78125 0.46875 0
0.9375 0.46875 0
0.78125 0.625 0
0.9375 0.625 0
0.9375 0.3125 0
1.09375 0.3125 0
0.9375 0.46875 0
1.09375 0.46875 0
1.09375 0.3125 0
1.25 0.3125 0
1.09375 0.46875 0
1.25 0.46875 0
0.9375 0.46875 0
1.09375 0.46875 0
0.9375 0.625 0
1.09375 0.625 0
1.09375 0.46875 0
1.25 0.46875 0
1.09375 0.625 0
1.25 0.625 0
0 0.625 0
0.15625 0.625 0
0 0.78125 0
0.15625 0.78125 0
0.15625 0.625 0
0.3125 0.625 0
0.15625 0.78125 0
0.3125 0.78125 0
0 0.78125 0
0.15625 0.78125 0
0 0.9375 0
0.15625 0.9375 0
0.15625 0.78125 0
0.3125 0.78125 0
0.15625 0.9375 0
0.3125 0.9375 0
0.3125 0.625 0
0.46875 0.625 0
0.3125 0.78125 0
0.46875 0.78125 0
0.46875 0.625 0
0.625 0.625 0
0.46875 0.78125 0
0.625 0.78125 0
0.3125 0.78125 0
0.46875 0.78125 0
0.3125 0.9375 0
0.46875 0.9375 0
0.46875 0.78125 0
0.625 0.78125 0
0.46875 0.9375 0
0.625 0.9375 0
0 0.9375 0
0.15625 0.9375 0
0 1.09375 0
0.15625 1.09375 0
0.15625 0.9375 0
0.3125 0.9375 0
0.15625 1.09375 0
0.3125 1.09375 0
0 1.09375 0
0.15625 1.09375 0
0 1.25 0
0.15625 1.25 0
0.15625 1.09375 0
0.3125 1.09375 0
0.15625 1.25 0
0.3125 1.25 0
0.3125 0.9375 0
0.46875 0.9375 0
0.3125 1.09375 0
0.46875 1.09375 0
0.46875 0.9375 0
0.625 0.9375 0
0.46875 1.09375 0
0.625 1.09375 0
0.3125 1.09375 0
0.46875 1.09375 0
0.3125 1.25 0
0.46875 1.25 0
0.46875 1.09375 0
0.625 1.09375 0
0.46875 1.25 0
0.625 1.25 0
0.625 0.625 0
0.78125 0.625 0
0.625 0.78125 0
0.78125 0.78125 0
0.78125 0.625 0
0.9375 0.625 0
0.78125 0.78125 0
0.9375 0.78125 0
0.625 0.78125 0
0.78125 0.78125 0
0.625 0.9375 0
0.78125 0.9375 0
0.78125 0.78125 0
0.9375 0.78125 0
0.78125 0.9375 0
0.9375 0.9375 0
0.9375 0.625 0
1.09375 0.625 0
0.9375 0.78125 0
1.09375 0.78125 0
1.09375 0.625 0
1.25 0.625 0
1.09375 0.78125 0
1.25 0.78125 0
0.9375 0.78125 0
1.09375 0.78125 0
0.9375 0.9375 0
1.09375 0.9375 0
1.09375 0.78125 0
1.25 0.78125 0
1.09375 0.9375 0
1.25 0.9375 0
0.625 0.9375 0
0.78125 0.9375 0
0.625 1.09375 0
0.78125 1.09375 0
0.78125 0.9375 0
0.9375 0.9375 0
0.78125 1.09375 0
0.9375 1.09375 0
0.625 1.09375 0
0.78125 1.09375 0
0.625 1.25 0
0.78125 1.25 0
0.78125 1.09375 0
0.9375 1.09375 0
0.78125 1.25 0
0.9375 1.25 0
0.9375 0.9375 0
1.09375 0.9375 0
0.9375 1.09375 0
1.09375 1.09375 0
1.09375 0.9375 0
1.25 0.9375 0
1.09375 1.09375 0
1.25 1.09375 0
0.9375 1.09375 0
1.09375 1.09375 0
0.9375 1.25 0
1.09375 1.25 0
1.09375 1.09375 0
1.25 1.09375 0
1.09375 1.25 0
1.25 1.25 0
1.25 0 0
1.40625 0 0
1.25 0.15625 0
1.40625 0.15625 0
1.40625 0 0
1.5625 0 0
1.40625 0.15625 0
1.5625 0.15625 0
1.25 0.15625 0
1.40625 0.15625 0
1.25 0.3125 0
1.40625 0.3125 0
1.40625 0.15625 0
1.5625 0.15625 0
1.40625 0.3125 0
1.5625 0.3125 0
1.5625 0 0
1.71875 0 0
1.5625 0.15625 0
1.71875 0.15625 0
1.71875 0 0
1.875 0 0
1.71875 0.15625 0
1.875 0.15625 0
1.5625 0.15625 0
1.71875 0.15625 0
1.5625 0.3125 0
1.71875 0.3125 0
1.71875 0.15625 0
1.875 0.15625 0
1.71875 0.3125 0
1.875 0.3125 0
1.25 0.3125 0
1.40625 0.3125 0
1.25 0.46875 0
1.40625 0.46875 0
1.40625 0.3125 0
1.5625 0.3125 0
1.40625 0.46875 0
1.5625 0.46875 0
1.25 0.46875 0
1.40625 0.46875 0
1.25 0.625 0
1.40625 0.625 0
1.40625 0.46875 0
1.5625 0.46875 0
1.40625 0.625 0
1.5625 0.625 0
1.5625 0.3125 0
1.71875 0.3125 0
1.5625 0.46875 0
1.71875 0.46875 0
1.71875 0.3125 0
1.875 0.3125 0
1.71875 0.46875 0
1.875 0.46875 0
1.5625 0.46875 0
1.71875 0.46875 0
1.5625 0.625 0
1.71875 0.625 0
1.71875 0.46875 0
1.875 0.46875 0
1.71875 0.625 0
1.875 0.625 0
1.875 0 0
2.03125 0 0
1.875 0.15625 0
2.03125 0.15625 0
2.03125 0 0
2.1875 0 0
2.03125 0.15625 0
2.1875 0.15625 0
1.875 0.15625 0
2.03125 0.15625 0
1.875 0.3125 0
2.03125 0.3125 0
2.03125 0.15625 0
2.1875 0.15625 0
2.03125 0.3125 0
2.1875 0.3125 0
2.1875 0 0
2.34375 0 0
2.1875 0.15625 0
2.34375 0.15625 0
2.34375 0 0
2.5 0 0
2.34375 0.15625 0
2.5 0.15625 0
2.1875 0.15625 0
2.34375 0.15625 0
2.1875 0.3125 0
2.34375 0.3125 0
2.34375 0.15625 0
2.5 0.15625 0
2.34375 0.3125 0
2.5 0.3125 0
1.875 0.3125 0
2.03125 0.3125 0
1.875 0.46875 0
2.03125 0.46875 0
2.03125 0.3125 0
2.1875 0.3125 0
2.03125 0.46875 0
2.1875 0.46875 0
1.875 0.46875 0
2.03125 0.46875 0
1.875 0.625 0
2.03125 0.625 0
2.03125 0.46875 0
2.1875 0.46875 0
2.03125 0.625 0
2.1875 0.625 0
2.1875 0.3125 0
2.34375 0.3125 0
2.1875 0.46875 0
2.34375 0.46875 0
2.34375 0.3125 0
2.5 0.3125 0
2.34375 0.46875 0
2.5 0.46875 0
2.1875 0.46875 0
2.34375 0.46875 0
2.1875 0.625 0
2.34375 0.625 0
2.34375 0.46875 0
2.5 0.46875 0
2.34375 0.625 0
2.5 0.625 0
1.25 0.625 0
1.40625 0.625 0
1.25 0.78125 0
1.40625 0.78125 0
1.40625 0.625 0
1.5625 0.625 0
1.40625 0.78125 0
1.5625 0.78125 0
1.25 0.78125 0
1.40625 0.78125 0
1.25 0.9375 0
1.40625 0.9375 0
1.40625 0.78125 0
1.5625 0.78125 0
1.40625 0.9375 0
1.5625 0.9375 0
1.5625 0.625 0
1.71875 0.625 0
1.5625 0.78125 0
1.71875 0.78125 0
1.71875 0.625 0
1.875 0.625 0
1.71875 0.78125 0
1.875 0.78125 0
1.5625 0.78125 0
1.71875 0.78125 0
1.5625 0.9375 0
1.71875 0.9375 0
1.71875 0.78125 0
1.875 0.78125 0
1.71875 0.9375 0
1.875 0.9375 0
1.25 0.9375 0
1.40625 0.9375 0
1.25 1.09375 0
1.40625 1.09375 0
1.40625 0.9375 0
1.5625 0.9375 0
1.40625 1.09375 0
1.5625 1.09375 0
1.25 1.09375 0
1.40625 1.09375 0
1.25 1.25 0
1.40625 1.25 0
1.40625 1.09375 0
1.5625 1.09375 0
1.40625 1.25 0
1.5625 1.25 0
1.5625 0.9375 0
1.71875 0.9375 0
1.5625 1.09375 0
1.71875 1.09375 0
1.71875 0.9375 0
1.875 0.9375 0
1.71875 1.09375 0
1.875 1.09375 0
1.5625 1.09375 0
1.71875 1.09375 0
1.5625 1.25 0
1.71875 1.25 0
1.71875 1.09375 0
1.875 1.09375 0
1.71875 1.25 0
1.875 1.25 0
1.875 0.625 0
2.03125 0.625 0
1.875 0.78125 0
2.03125 0.78125 0
2.03125 0.625 0
2.1875 0.625 0
2.03125 0.78125 0
2.1875 0.78125 0
1.875 0.78125 0
2.03125 0.78125 0
1.875 0.9375 0
2.03125 0.9375 0
2.03125 0.78125 0
2.1875 0.78125 0
2.03125 0.9375 0
2.1875 0.9375 0
2.1875 0.625 0
2.34375 0.625 0
2.1875 0.78125 0
2.34375 0.78125 0
2.34375 0.625 0
2.5 0.625 0
2.34375 0.78125 0
2.5 0.78125 0
2.1875 0.78125 0
2.34375 0.78125 0
2.1875 0.9375 0
2.34375 0.9375 0
2.34375 0.78125 0
2.5 0.78125 0
2.34375 0.9375 0
2.5 0.9375 0
1.875 0.9375 0
2.03125 0.9375 0
1.875 1.09375 0
2.03125 1.09375 0
2.03125 0.9375 0
2.1875 0.9375 0
2.03125 1.09375 0
2.1875 1.09375 0
1.875 1.09375 0
2.03125 1.09375 0
1.875 1.25 0
2.03125 1.25 0
2.03125 1.09375 0
2.1875 1.09375 0
2.03125 1.25 0
2.1875 1.25 0
2.1875 0.9375 0
2.34375 0.9375 0
2.1875 1.09375 0
2.34375 1.09375 0
2.34375 0.9375 0
2.5 0.9375 0
2.34375 1.09375 0
2.5 1.09375 0
2.1875 1.09375 0
2.34375 1.09375 0
2.1875 1.25 0
2.34375 1.25 0
2.34375 1.09375 0
2.5 1.09375 0
2.34375 1.25 0
2.5 1.25 0
0 1.25 0
0.15625 1.25 0
0 1.40625 0
0.15625 1.40625 0
0.15625 1.25 0
0.3125 1.25 0
0.15625 1.40625 0
0.3125 1.40625 0
0 1.40625 0
0.15625 1.40625 0
0 1.5625 0
0.15625 1.5625 0
0.15625 1.40625 0
0.3125 1.40625 0
0.15625 1.5625 0
0.3125 1.5625 0
0.3125 1.25 0
0.46875 1.25 0
0.3125 1.40625 0
0.46875 1.40625 0
0.46875 1.25 0
0.625 1.25 0
0.46875 1.40625 0
0.625 1.40625 0
0.3125 1.40625 0
0.46875 1.40625 0
0.3125 1.5625 0
0.46875 1.5625 0
0.46875 1.40625 0
0.625 1.40625 0
0.46875 1.5625 0
0.625 1.5625 0
0 1.5625 0
0.15625 1.5625 0
0 1.71875 0
0.15625 1.71875 0
0.15625 1.5625 0
0.3125 1.5625 0
0.15625 1.71875 0
0.3125 1.71875 0
0 1.71875 0
0.15625 1.71875 0
0 1.875 0
0.15625 1.875 0
0.15625 1.71875 0
0.3125 1.71875 0
0.15625 1.875 0
0.3125 1.875 0
0.3125 1.5625 0
0.46875 1.5625 0
0.3125 1.71875 0
0.46875 1.71875 0
0.46875 1.5625 0
0.625 1.5625 0
0.46875 1.71875 0
0.625 1.71875 0
0.3125 1.71875 0
0.46875 1.71875 0
0.3125 1.875 0
0.46875 1.875 0
0.46875 1.71875 0
0.625 1.71875 0
0.46875 1.875 0
0.625 1.875 0
0.625 1.25 0
0.78125 1.25 0
0.625 1.40625 0
0.78125 1.40625 0
0.78125 1.25 0
0.9375 1.25 0
0.78125 1.40625 0
0.9375 1.40625 0
0.625 1.40625 0
0.78125 1.40625 0
0.625 1.5625 0
0.78125 1.5625 0
0.78125 1.40625 0
0.9375 1.40625 0
0.78125 1.5625 0
0.9375 1.5625 0
0.9375 1.25 0
1.09375 1.25 0
0.9375 1.40625 0
1.09375 1.40625 0
1.09375 1.25 0
1.25 1.25 0
1.09375 1.40625 0
1.25 1.40625 0
0.9375 1.40625 0
1.09375 1.40625 0
0.9375 1.5625 0
1.09375 1.5625 0
1.09375 1.40625 0
1.25 1.40625 0
1.09375 1.5625 0
1.25 1.5625 0
0.625 1.5625 0
0.78125 1.5625 0
0.625 1.71875 0
0.78125 1.71875 0
0.78125 1.5625 0
0.9375 1.5625 0
0.78125 1.71875 0
0.9375 1.71875 0
0.625 1.71875 0
[...]
POINT_DATA 16384
SCALARS u double 1
LOOKUP_TABLE default
0 -8.70749e-17 0 -1.30448e-18 -8.70749e-17 2.97154e-17 -1.30448e-18 2.02945e-16 0 3.00628e-16 0 -6.29493e-16 3.00628e-16 -6.81293e-16 -6.29493e-16 1.09716e-17 2.97154e-17 7.95437e-16 2.02945e-16 -1.13713e-15 7.95437e-16 -2.13311e-16 -1.13713e-15 3.33362e-16 -6.81293e-16 1.49763e-15 1.09716e-17 -1.3735e-15 1.49763e-15 1.93954e-16 -1.3735e-15 -1.21682e-16 0 6.18156e-16 0 -1.12492e-15 6.18156e-16 8.54432e-16 -1.12492e-15 -6.26029e-16 0 -3.72228e-16 0 8.03127e-16 -3.72228e-16 7.80284e-16 8.03127e-16 -5.12828e-16 8.54432e-16 2.27386e-15 -6.26029e-16 -8.48785e-16 2.27386e-15 1.1463e-15 -8.48785e-16 -1.09116e-15 7.80284e-16 2.02177e-15 -5.12828e-16 -3.86805e-15 2.02177e-15 -9.56369e-16 -3.86805e-15 2.05623e-15 -2.13311e-16 -1.73671e-16 3.33362e-16 -5.31887e-17 -1.73671e-16 1.1697e-16 -5.31887e-17 -6.57764e-16 1.93954e-16 3.81004e-17 -1.21682e-16 -1.91822e-16 3.81004e-17 1.34439e-15 -1.91822e-16 -1.1803e-15 1.1697e-16 2.02722e-16 -6.57764e-16 -4.1709e-16 2.02722e-16 3.38021e-16 -4.1709e-16 -1.3626e-16 1.34439e-15 1.74073e-15 -1.1803e-15 -1.97591e-15 1.74073e-15 8.39872e-16 -1.97591e-15 -1.57792e-15 1.1463e-15 1.66068e-15 -1.09116e-15 -1.61303e-16 1.66068e-15 1.36298e-15 -1.61303e-16 -2.53811e-16 -9.56369e-16 -6.31636e-16 2.05623e-15 -5.52675e-16 -6.31636e-16 1.8643e-15 -5.52675e-16 -2.64661e-15 1.36298e-15 1.68719e-15 -2.53811e-16 -7.62042e-16 1.68719e-15 1.79549e-15 -7.62042e-16 -1.17715e-15 1.8643e-15 2.35637e-15 -2.64661e-15 -2.27042e-15 2.35637e-15 -2.36673e-16 -2.27042e-15 1.04418e-16 0 1.56862e-15 0 -4.17591e-15 1.56862e-15 2.11112e-15 -4.17591e-15 -3.41254e-15 0 5.68428e-15 0 -2.64365e-15 5.68428e-15 5.38329e-15 -2.64365e-15 -5.13287e-15 2.11112e-15 4.42877e-15 -3.41254e-15 -4.31941e-15 4.42877e-15 1.83142e-15 -4.31941e-15 -1.47473e-15 5.38329e-15 3.4222e-15 -5.13287e-15 -2.44994e-15 3.4222e-15 2.20007e-15 -2.44994e-15 -4.12313e-15 0 1.77298e-15 0 1.75004e-15 1.77298e-15 3.22138e-15 1.75004e-15 -4.53392e-16 0 -6.31309e-15 0 3.61764e-15 -6.31309e-15 -2.49733e-15 3.61764e-15 3.00502e-15 3.22138e-15 9.41646e-16 -4.53392e-16 1.00993e-15 9.41646e-16 -5.78248e-16 1.00993e-15 -6.88384e-16 -2.49733e-15 1.77537e-15 3.00502e-15 -2.54701e-15 1.77537e-15 -4.04605e-15 -2.54701e-15 6.53852e-15 1.83142e-15 3.33141e-15 -1.47473e-15 -1.32624e-15 3.33141e-15 2.12289e-15 -1.32624e-15 -5.34466e-16 2.20007e-15 4.67429e-16 -4.12313e-15 -1.61671e-15 4.67429e-16 -5.48814e-16 -1.61671e-15 1.28449e-15 2.12289e-15 3.30842e-15 -5.34466e-16 -2.86033e-15 3.30842e-15 4.12353e-15 -2.86033e-15 -1.99352e-15 -5.48814e-16 3.13261e-15 1.28449e-15 -2.15693e-15 3.13261e-15 1.76511e-15 -2.15693e-15 -5.23363e-15 -5.78248e-16 -3.44511e-16 -6.88384e-16 1.22627e-16 -3.44511e-16 3.663e-15 1.22627e-16 -4.41843e-15 -4.04605e-15 -7.89134e-16 6.53852e-15 1.46438e-15 -7.89134e-16 2.76588e-15 1.46438e-15 -4.73287e-16 3.663e-15 4.67716e-16 -4.41843e-15 -2.22093e-15 4.67716e-16 3.00757e-15 -2.22093e-15 -1.05327e-15 2.76588e-15 6.37562e-15 -4.73287e-16 -2.17697e-15 6.37562e-15 1.62442e-15 -2.17697e-15 -1.26426e-15 3.38021e-16 -1.35941e-16 -1.3626e-16 -8.85512e-17 -1.35941e-16 -1.11906e-16 -8.85512e-17 -5.8002e-16 8.39872e-16 1.58349e-16 -1.57792e-15 -6.81987e-16 1.58349e-16 4.15963e-16 -6.81987e-16 1.28131e-16 -1.11906e-16 -5.08838e-16 -5.8002e-16 -1.86418e-18 -5.08838e-16 4.15512e-16 -1.86418e-18 -4.21178e-17 4.15963e-16 -3.76992e-17 1.28131e-16 1.39265e-16 -3.76992e-17 -4.89087e-16 1.39265e-16 5.56697e-16 1.79549e-15 1.615e-15 -1.17715e-15 -1.54162e-15 1.615e-15 4.29403e-16 -1.54162e-15 -2.08137e-16 -2.36673e-16 8.45865e-16 1.04418e-16 -8.5019e-16 8.45865e-16 1.98629e-16 -8.5019e-16 -7.83062e-16 4.29403e-16 6.34541e-16 -2.08137e-16 7.39872e-16 6.34541e-16 1.00092e-15 7.39872e-16 4.33139e-16 1.98629e-16 -1.05748e-15 -7.83062e-16 5.20673e-16 -1.05748e-15 -1.19877e-15 5.20673e-16 -1.27372e-16 4.15512e-16 1.45444e-15 -4.21178e-17 -3.27943e-16 1.45444e-15 -1.28274e-15 -3.27943e-16 2.38589e-16 -4.89087e-16 3.83649e-16 5.56697e-16 7.67632e-17 3.83649e-16 -3.24542e-16 7.67632e-17 9.00062e-16 -1.28274e-15 1.18752e-16 2.38589e-16 -8.11091e-16 1.18752e-16 -8.9789e-16 -8.11091e-16 6.38515e-16 -3.24542e-16 1.91576e-16 9.00062e-16 -5.08877e-16 1.91576e-16 -5.30553e-16 -5.08877e-16 6.29376e-16 1.00092e-15 9.76199e-16 4.33139e-16 -1.33558e-15 9.76199e-16 -3.18975e-16 -1.33558e-15 -1.06251e-15 -1.19877e-15 2.45038e-15 -1.27372e-16 -1.6433e-15 2.45038e-15 1.46903e-15 -1.6433e-15 2.96317e-16 -3.18975e-16 2.21699e-15 -1.06251e-15 -2.23806e-15 2.21699e-15 6.56086e-16 -2.23806e-15 -1.19063e-15 1.46903e-15 1.49682e-15 2.96317e-16 -3.08632e-15 1.49682e-15 2.16202e-15 -3.08632e-15 -3.44388e-15 4.12353e-15 3.65016e-15 -1.99352e-15 -1.61484e-15 3.65016e-15 3.27507e-15 -1.61484e-15 -1.80408e-16 1.76511e-15 5.85433e-16 -5.23363e-15 -3.75365e-15 5.85433e-16 -1.90671e-15 -3.75365e-15 -6.23096e-16 3.27507e-15 2.16859e-15 -1.80408e-16 4.6228e-16 2.16859e-15 2.86963e-15 4.6228e-16 1.83854e-15 -1.90671e-15 2.22834e-16 -6.23096e-16 5.68059e-16 2.22834e-16 -2.06486e-15 5.68059e-16 -3.14079e-17 3.00757e-15 4.56129e-15 -1.05327e-15 -2.74853e-15 4.56129e-15 2.57654e-15 -2.74853e-15 -3.03676e-15 1.62442e-15 1.40319e-15 -1.26426e-15 -5.05549e-16 1.40319e-15 -1.09866e-16 -5.05549e-16 1.28642e-15 2.57654e-15 -1.13589e-15 -3.03676e-15 3.16226e-15 -1.13589e-15 8.53847e-17 3.16226e-15 4.43773e-15 -1.09866e-16 -6.83736e-15 1.28642e-15 3.15356e-15 -6.83736e-15 -6.19951e-15 3.15356e-15 2.44922e-15 2.86963e-15 3.86786e-15 1.83854e-15 -3.75977e-15 3.86786e-15 5.237e-16 -3.75977e-15 5.29984e-16 -2.06486e-15 2.19822e-15 -3.14079e-17 3.39086e-15 2.19822e-15 7.30597e-16 3.39086e-15 -2.33275e-15 5.237e-16 5.44426e-15 5.29984e-16 -4.71464e-15 5.44426e-15 4.82446e-15 -4.71464e-15 -2.88642e-15 7.30597e-16 7.54591e-15 -2.33275e-15 -5.46579e-15 7.54591e-15 4.85237e-15 -5.46579e-15 -2.21061e-15 8.53847e-17 -5.81964e-16 4.43773e-15 -2.33921e-15 -5.81964e-16 4.59422e-15 -2.33921e-15 -3.08164e-15 -6.19951e-15 2.63436e-15 2.44922e-15 1.26991e-15 2.63436e-15 8.29853e-16 1.26991e-15 3.51424e-15 4.59422e-15 4.68698e-15 -3.08164e-15 -7.61428e-16 4.68698e-15 2.41002e-15 -7.61428e-16 -1.24088e-15 8.29853e-16 -3.73977e-17 3.51424e-15 -1.16693e-15 -3.73977e-17 2.23892e-15 -1.16693e-15 -1.16645e-15 0 8.52216e-16 0 -3.58754e-15 8.52216e-16 4.14497e-16 -3.58754e-15 -2.35952e-15 0 3.40785e-15 0 -2.85501e-15 3.40785e-15 -2.22803e-15 -2.85501e-15 -1.71868e-15 4.14497e-16 4.83699e-15 -2.35952e-15 -9.59507e-15 4.83699e-15 4.06157e-16 -9.59507e-15 1.34212e-15 -2.22803e-15 6.51841e-15 -1.71868e-15 -7.02518e-15 6.51841e-15 1.74791e-15 -7.02518e-15 -5.34687e-15 0 3.25466e-15 0 -4.10829e-15 3.25466e-15 2.91896e-15 -4.10829e-15 -1.04882e-15 0 2.42451e-15 0 3.50915e-15 2.42451e-15 5.7461e-15 3.50915e-15 8.10547e-15 2.91896e-15 9.33372e-15 -1.04882e-15 -6.26624e-15 9.33372e-15 6.29232e-15 -6.26624e-15 -7.04744e-16 5.7461e-15 4.12043e-15 8.10547e-15 3.67632e-15 4.12043e-15 -4.40339e-15 3.67632e-15 1.33724e-14 4.06157e-16 4.34088e-15 1.34212e-15 -4.1786e-15 4.34088e-15 4.63339e-15 -4.1786e-15 -1.09344e-14 1.74791e-15 2.00162e-15 -5.34687e-15 -3.28352e-15 2.00162e-15 9.29059e-15 -3.28352e-15 -7.10915e-15 4.63339e-15 3.03458e-15 -1.09344e-14 -5.75192e-15 3.03458e-15 3.92156e-15 -5.75192e-15 -1.32706e-15 9.29059e-15 7.53831e-15 -7.10915e-15 -1.0975e-14 7.53831e-15 4.76596e-15 -1.0975e-14 -9.7153e-15 6.29232e-15 5.07737e-15 -7.04744e-16 -1.69812e-15 5.07737e-15 7.11268e-15 -1.69812e-15 -3.65742e-15 -4.40339e-15 2.42526e-15 1.33724e-14 7.09273e-15 2.42526e-15 1.13685e-15 7.09273e-15 7.11723e-15 7.11268e-15 1.05587e-14 -3.65742e-15 -4.67377e-15 1.05587e-14 1.04448e-14 -4.67377e-15 -2.93878e-15 1.13685e-15 2.66123e-15 7.11723e-15 6.46893e-16 2.66123e-15 -1.12491e-15 6.46893e-16 7.83307e-15 0 -3.16931e-15 0 5.6276e-15 -3.16931e-15 -7.91084e-15 5.6276e-15 5.59288e-15 0 -1.03367e-15 0 -2.36378e-15 -1.03367e-15 -8.82603e-16 -2.36378e-15 -2.34085e-15 -7.91084e-15 3.30206e-15 5.59288e-15 -9.71933e-15 3.30206e-15 -1.2872e-14 -9.71933e-15 3.86825e-15 -8.82603e-16 1.13885e-14 -2.34085e-15 1.40786e-15 1.13885e-14 8.91692e-15 1.40786e-15 -3.38359e-15 0 6.48168e-15 0 -1.08133e-14 6.48168e-15 3.41902e-15 -1.08133e-14 -3.65829e-15 0 5.02065e-15 0 -5.93732e-15 5.02065e-15 1.44252e-16 -5.93732e-15 -4.53116e-15 3.41902e-15 -2.58811e-15 -3.65829e-15 -6.82253e-15 -2.58811e-15 8.60747e-16 -6.82253e-15 1.50932e-15 1.44252e-16 1.81541e-15 -4.53116e-15 -4.04821e-15 1.81541e-15 -7.60864e-16 -4.04821e-15 -7.73023e-15 -1.2872e-14 -4.03702e-15 3.86825e-15 -4.02735e-15 -4.03702e-15 4.8555e-15 -4.02735e-15 -9.173e-15 8.91692e-15 8.42249e-15 -3.38359e-15 -2.28634e-15 8.42249e-15 1.14871e-14 -2.28634e-15 -9.51259e-15 4.8555e-15 7.85301e-15 -9.173e-15 -7.76111e-15 7.85301e-15 -8.0575e-15 -7.76111e-15 1.13309e-15 1.14871e-14 1.75005e-14 -9.51259e-15 -9.92832e-15 1.75005e-14 1.95549e-14 -9.92832e-15 -1.36638e-14 8.60747e-16 3.96497e-15 1.50932e-15 8.99348e-17 3.96497e-15 9.46049e-15 8.99348e-17 -9.19963e-15 -7.60864e-16 -4.02632e-15 -7.73023e-15 -3.25684e-15 -4.02632e-15 4.68109e-15 -3.25684e-15 -6.76464e-15 9.46049e-15 5.74965e-15 -9.19963e-15 -8.20832e-15 5.74965e-15 6.5367e-15 -8.20832e-15 5.10167e-16 4.68109e-15 4.59621e-15 -6.76464e-15 -9.83476e-15 4.59621e-15 -1.05549e-15 -9.83476e-15 -2.49808e-15 3.92156e-15 5.33181e-15 -1.32706e-15 -3.34827e-15 5.33181e-15 2.95667e-15 -3.34827e-15 -1.09775e-15 4.76596e-15 1.93505e-15 -9.7153e-15 -2.91217e-15 1.93505e-15 2.0423e-15 -2.91217e-15 -5.31989e-15 2.95667e-15 3.1895e-15 -1.09775e-15 -2.68574e-15 3.1895e-15 3.4558e-15 -2.68574e-15 -2.27103e-15 2.0423e-15 4.98735e-15 -5.31989e-15 -5.5333e-15 4.98735e-15 1.20496e-15 -5.5333e-15 -6.14905e-16 1.04448e-14 5.34506e-15 -2.93878e-15 -5.74568e-15 5.34506e-15 7.28909e-15 -5.74568e-15 -2.24818e-15 -1.12491e-15 6.04751e-15 7.83307e-15 2.33488e-15 6.04751e-15 -1.47558e-15 2.33488e-15 7.43923e-15 7.28909e-15 5.41538e-15 -2.24818e-15 1.99459e-15 5.41538e-15 2.54054e-15 1.99459e-15 -3.79548e-16 -1.47558e-15 -2.992e-15 7.43923e-15 1.13033e-14 -2.992e-15 3.35879e-15 1.13033e-14 7.49066e-15 3.4558e-15 6.32558e-16 -2.27103e-15 -1.70211e-15 6.32558e-16 2.62593e-15 -1.70211e-15 -3.57348e-16 1.20496e-15 3.55716e-15 -6.14905e-16 -2.78036e-15 3.55716e-15 -7.8757e-16 -2.78036e-15 2.51536e-16 2.62593e-15 8.82954e-15 -3.57348e-16 -8.65932e-15 8.82954e-15 6.19303e-15 -8.65932e-15 -1.16049e-14 -7.8757e-16 8.84123e-15 2.51536e-16 -6.7671e-15 8.84123e-15 1.46251e-14 -6.7671e-15 -8.70855e-15 2.54054e-15 4.80202e-15 -3.79548e-16 -5.07915e-15 4.80202e-15 -1.01488e-15 -5.07915e-15 -1.01712e-15 3.35879e-15 9.44018e-15 7.49066e-15 -3.71491e-15 9.44018e-15 5.91689e-15 -3.71491e-15 1.41523e-15 -1.01488e-15 8.40186e-15 -1.01712e-15 -8.53714e-15 8.40186e-15 3.50565e-15 -8.53714e-15 -5.08362e-16 5.91689e-15 8.41208e-15 1.41523e-15 8.4882e-16 8.41208e-15 3.64719e-15 8.4882e-16 1.29023e-15 -8.0575e-15 2.69483e-15 1.13309e-15 -3.96874e-15 2.69483e-15 -1.72657e-15 -3.96874e-15 4.2875e-15 1.95549e-14 9.00241e-15 -1.36638e-14 -2.74438e-15 9.00241e-15 6.75313e-15 -2.74438e-15 -4.5182e-15 -1.72657e-15 -6.76043e-15 4.2875e-15 1.89706e-15 -6.76043e-15 -2.36721e-15 1.89706e-15 5.47135e-16 6.75313e-15 8.40103e-15 -4.5182e-15 -2.62469e-15 8.40103e-15 4.35507e-15 -2.62469e-15 7.57678e-15 6.5367e-15 8.33233e-15 5.10167e-16 -1.83813e-15 8.33233e-15 5.74131e-15 -1.83813e-15 -3.05639e-15 -1.05549e-15 6.26437e-16 -2.49808e-15 -1.47664e-14 6.26437e-16 2.5151e-16 -1.47664e-14 -1.38539e-15 5.74131e-15 9.484e-16 -3.05639e-15 3.00345e-15 9.484e-16 -5.36272e-15 3.00345e-15 1.58464e-15 2.5151e-16 -3.54905e-15 -1.38539e-15 -1.91388e-15 -3.54905e-15 -7.99013e-15 -1.91388e-15 1.50326e-15 -2.36721e-15 5.35579e-15 5.47135e-16 4.08512e-15 5.35579e-15 2.33361e-15 4.08512e-15 3.37468e-15 4.35507e-15 -3.39234e-15 7.57678e-15 8.86892e-15 -3.39234e-15 3.17977e-15 8.86892e-15 -3.16346e-15 2.33361e-15 4.00234e-15 3.37468e-15 -2.01326e-15 4.00234e-15 4.66515e-15 -2.01326e-15 1.89773e-15 3.17977e-15 1.03772e-14 -3.16346e-15 -1.68019e-15 1.03772e-14 5.61193e-15 -1.68019e-15 -1.34095e-15 -5.36272e-15 -3.60242e-15 1.58464e-15 5.38993e-15 -3.60242e-15 9.68396e-15 5.38993e-15 -3.88889e-15 -7.99013e-15 -5.00727e-15 1.50326e-15 -8.35852e-15 -5.00727e-15 4.55355e-16 -8.35852e-15 -6.75686e-15 9.68396e-15 4.64832e-15 -3.88889e-15 -2.23668e-15 4.64832e-15 3.15189e-15 -2.23668e-15 -9.85445e-15 4.55355e-16 -2.23094e-15 -6.75686e-15 -3.11414e-15 -2.23094e-15 9.54552e-15 -3.11414e-15 -6.08022e-15 -8.9789e-16 9.26492e-16 6.38515e-16 -4.45576e-16 9.26492e-16 -9.59841e-16 -4.45576e-16 3.46503e-16 -5.30553e-16 3.14656e-16 6.29376e-16 -1.22599e-15 3.14656e-16 -9.60202e-16 -1.22599e-15 7.71124e-16 -9.59841e-16 7.4113e-16 3.46503e-16 -7.97215e-16 7.4113e-16 -1.07522e-15 -7.97215e-16 1.75563e-16 -9.60202e-16 6.30386e-16 7.71124e-16 -1.34643e-15 6.30386e-16 4.04063e-16 -1.34643e-15 -8.67299e-17 6.56086e-16 3.04053e-15 -1.19063e-15 -2.64834e-15 3.04053e-15 1.01346e-15 -2.64834e-15 -1.75593e-15 2.16202e-15 1.59372e-15 -3.44388e-15 -1.68534e-15 1.59372e-15 5.36953e-15 -1.68534e-15 -3.865e-15 1.01346e-15 3.00451e-15 -1.75593e-15 -2.19795e-15 3.00451e-15 1.34574e-15 -2.19795e-15 -1.5555e-15 5.36953e-15 1.91492e-15 -3.865e-15 -2.03433e-15 1.91492e-15 4.2042e-15 -2.03433e-15 -3.154e-15 -1.07522e-15 1.04288e-15 1.75563e-16 -1.51903e-15 1.04288e-15 1.69508e-15 -1.51903e-15 2.41312e-16 4.04063e-16 2.15751e-15 -8.67299e-17 -1.41002e-15 2.15751e-15 9.40072e-16 -1.41002e-15 -7.22232e-16 1.69508e-15 -9.59617e-16 2.41312e-16 8.31278e-16 -9.59617e-16 1.28435e-15 8.31278e-16 -1.24979e-15 9.40072e-16 2.71303e-16 -7.22232e-16 -1.04387e-16 2.71303e-16 1.1222e-15 -1.04387e-16 -1.66246e-15 1.34574e-15 3.36136e-15 -1.5555e-15 -3.57619e-15 3.36136e-15 1.42678e-15 -3.57619e-15 7.99003e-16 4.2042e-15 3.19371e-15 -3.154e-15 -2.31003e-15 3.19371e-15 -2.23455e-15 -2.31003e-15 1.86446e-15 1.42678e-15 -1.96776e-17 7.99003e-16 6.80083e-16 -1.96776e-17 3.05525e-15 6.80083e-16 -3.22326e-15 -2.23455e-15 1.21764e-15 1.86446e-15 -1.6661e-15 1.21764e-15 3.07874e-15 -1.6661e-15 -3.66603e-15 4.82446e-15 5.96325e-15 -2.88642e-15 -7.73415e-15 5.96325e-15 4.19405e-15 -7.73415e-15 -4.16404e-15 4.85237e-15 9.40057e-15 -2.21061e-15 -6.78475e-15 9.40057e-15 5.31487e-15 -6.78475e-15 -4.92944e-15 4.19405e-15 7.0144e-15 -4.16404e-15 -7.03484e-15 7.0144e-15 4.24965e-15 -7.03484e-15 -2.26084e-15 5.31487e-15 8.48576e-15 -4.92944e-15 -7.23649e-15 8.48576e-15 3.22753e-15 -7.23649e-15 -1.28299e-15 2.41002e-15 4.85292e-15 -1.24088e-15 2.35287e-15 4.85292e-15 7.42115e-15 2.35287e-15 -1.15967e-15 2.23892e-15 -4.17002e-15 -1.16645e-15 -1.32833e-15 -4.17002e-15 -1.05422e-15 -1.32833e-15 -2.22226e-15 7.42115e-15 3.33858e-15 -1.15967e-15 3.14376e-16 3.33858e-15 1.81475e-15 3.14376e-16 -2.32112e-15 -1.05422e-15 -1.69125e-16 -2.22226e-15 1.17525e-16 -1.69125e-16 3.52212e-15 1.17525e-16 1.61341e-15 4.24965e-15 4.05057e-15 -2.26084e-15 -3.85532e-15 4.05057e-15 3.89358e-15 -3.85532e-15 -6.13384e-15 3.22753e-15 4.89337e-15 -1.28299e-15 -4.47469e-15 4.89337e-15 5.73548e-15 -4.47469e-15 -1.91689e-15 3.89358e-15 3.87574e-15 -6.13384e-15 -3.49249e-15 3.87574e-15 7.73192e-15 -3.49249e-15 -7.45859e-15 5.73548e-15 5.67297e-15 -1.91689e-15 -3.66e-15 5.67297e-15 6.83022e-15 -3.66e-15 -6.06943e-15 1.81475e-15 6.41314e-15 -2.32112e-15 -1.65135e-15 6.41314e-15 1.72529e-15 -1.65135e-15 9.61368e-16 3.52212e-15 -1.66923e-15 1.61341e-15 2.10973e-15 -1.66923e-15 -1.76259e-15 2.10973e-15 -1.86071e-15 1.72529e-15 6.99299e-16 9.61368e-16 -1.84916e-16 6.99299e-16 4.04621e-15 -1.84916e-16 3.00584e-15 -1.76259e-15 1.70982e-15 -1.86071e-15 -8.82905e-17 1.70982e-15 -3.8056e-15 -8.82905e-17 -2.11642e-15 1.28435e-15 -1.14966e-15 -1.24979e-15 3.13459e-18 -1.14966e-15 -3.37624e-16 3.13459e-18 -9.306e-16 1.1222e-15 -1.11022e-16 -1.66246e-15 4.35604e-18 -1.11022e-16 9.36954e-16 4.35604e-18 -1.46254e-15 -3.37624e-16 -8.59115e-16 -9.306e-16 1.00517e-16 -8.59115e-16 1.16891e-15 1.00517e-16 -9.21952e-16 9.36954e-16 -1.56093e-16 -1.46254e-15 -6.56582e-16 -1.56093e-16 2.56451e-16 -6.56582e-16 -7.04333e-16 3.05525e-15 4.96846e-16 -3.22326e-15 -6.56631e-16 4.96846e-16 1.54569e-15 -6.56631e-16 -1.42497e-15 3.07874e-15 2.74934e-15 -3.66603e-15 -3.21968e-15 2.74934e-15 1.07362e-15 -3.21968e-15 -2.87687e-15 1.54569e-15 2.5152e-15 -1.42497e-15 -3.1865e-15 2.5152e-15 1.54466e-15 -3.1865e-15 -2.94459e-15 1.07362e-15 7.9665e-16 -2.87687e-15 -2.16282e-16 7.9665e-16 2.8386e-15 -2.16282e-16 -1.31039e-15 1.16891e-15 -1.02894e-15 -9.21952e-16 2.68817e-16 -1.02894e-15 -9.07373e-16 2.68817e-16 5.96066e-18 2.56451e-16 -1.73269e-15 -7.04333e-16 1.61723e-15 -1.73269e-15 -4.51488e-16 1.61723e-15 3.3846e-16 -9.07373e-16 4.5713e-16 5.96066e-18 -1.85103e-15 4.5713e-16 -1.2264e-15 -1.85103e-15 1.23533e-15 -4.51488e-16 1.65281e-15 3.3846e-16 -1.69301e-15 1.65281e-15 -1.57671e-15 -1.69301e-15 9.20623e-16 1.54466e-15 5.5117e-17 -2.94459e-15 -1.37989e-15 5.5117e-17 1.15793e-15 -1.37989e-15 -1.77142e-15 2.8386e-15 6.35552e-16 -1.31039e-15 2.94794e-16 6.35552e-16 1.43689e-15 2.94794e-16 -3.12485e-15 1.15793e-15 7.91038e-16 -1.77142e-15 -1.76209e-15 7.91038e-16 -2.98423e-16 -1.76209e-15 2.78751e-16 1.43689e-15 1.45383e-15 -3.12485e-15 -8.33449e-16 1.45383e-15 -1.28308e-15 -8.33449e-16 1.61093e-15 7.73192e-15 4.50164e-15 -7.45859e-15 -2.66323e-15 4.50164e-15 5.00751e-15 -2.66323e-15 -3.04817e-15 6.83022e-15 3.30628e-15 -6.06943e-15 -1.43041e-15 3.30628e-15 3.15455e-15 -1.43041e-15 -2.96498e-15 5.00751e-15 5.11827e-15 -3.04817e-15 -7.47791e-15 5.11827e-15 4.14757e-15 -7.47791e-15 -6.36131e-15 3.15455e-15 7.44586e-15 -2.96498e-15 -6.16585e-15 7.44586e-15 6.99346e-15 -6.16585e-15 -3.59259e-15 4.04621e-15 1.27162e-15 3.00584e-15 -2.47473e-15 1.27162e-15 2.09709e-15 -2.47473e-15 4.90529e-17 -3.8056e-15 1.24276e-15 -2.11642e-15 8.22693e-16 1.24276e-15 -2.50853e-15 8.22693e-16 2.64026e-15 2.09709e-15 4.91605e-15 4.90529e-17 2.3654e-16 4.91605e-15 1.99222e-15 2.3654e-16 -1.52663e-15 -2.50853e-15 -6.07887e-15 2.64026e-15 6.12264e-16 -6.07887e-15 -1.63572e-15 6.12264e-16 -9.26793e-16 4.14757e-15 1.08982e-15 -6.36131e-15 -9.98559e-16 1.08982e-15 4.97795e-15 -9.98559e-16 -4.50753e-15 6.99346e-15 2.16366e-15 -3.59259e-15 3.79677e-16 2.16366e-15 5.28375e-15 3.79677e-16 -1.57875e-15 4.97795e-15 1.00829e-15 -4.50753e-15 -3.313e-15 1.00829e-15 -5.73288e-16 -3.313e-15 -1.65518e-15 5.28375e-15 5.06486e-15 -1.57875e-15 -3.86226e-17 5.06486e-15 2.14715e-15 -3.86226e-17 -2.54444e-16 1.99222e-15 -3.62808e-16 -1.52663e-15 2.75255e-15 -3.62808e-16 2.5754e-15 2.75255e-15 -6.45408e-15 -1.63572e-15 -7.18972e-15 -9.26793e-16 4.15296e-15 -7.18972e-15 6.11386e-15 4.15296e-15 -1.43507e-15 2.5754e-15 -1.05614e-15 -6.45408e-15 -2.93867e-16 -1.05614e-15 -1.00907e-15 -2.93867e-16 3.92651e-15 6.11386e-15 3.40281e-16 -1.43507e-15 2.30905e-15 3.40281e-16 -7.46934e-15 2.30905e-15 5.20541e-15 6.19303e-15 8.06821e-15 -1.16049e-14 -5.76567e-15 8.06821e-15 8.06862e-15 -5.76567e-15 -9.37486e-15 1.46251e-14 8.06573e-15 -8.70855e-15 -8.29374e-15 8.06573e-15 7.85201e-15 -8.29374e-15 5.54567e-16 8.06862e-15 5.5954e-15 -9.37486e-15 -3.69141e-15 5.5954e-15 2.76999e-15 -3.69141e-15 -9.02309e-15 7.85201e-15 4.45445e-15 5.54567e-16 -6.61675e-15 4.45445e-15 1.07023e-14 -6.61675e-15 -4.40631e-15 3.50565e-15 1.12233e-14 -5.08362e-16 -1.00599e-14 1.12233e-14 9.18869e-16 -1.00599e-14 -5.3361e-15 3.64719e-15 7.18711e-15 1.29023e-15 3.43722e-15 7.18711e-15 5.74479e-15 3.43722e-15 1.28905e-15 9.18869e-16 9.69885e-15 -5.3361e-15 -4.78015e-15 9.69885e-15 2.28207e-15 -4.78015e-15 -9.52512e-16 5.74479e-15 1.0523e-15 1.28905e-15 7.93808e-15 1.0523e-15 -1.27031e-15 7.93808e-15 6.11569e-15 2.76999e-15 5.59111e-15 -9.02309e-15 -1.03098e-14 5.59111e-15 7.17098e-15 -1.03098e-14 -3.7843e-15 1.07023e-14 8.2645e-15 -4.40631e-15 -4.08028e-15 8.2645e-15 3.50152e-15 -4.08028e-15 -5.69535e-15 7.17098e-15 3.55637e-15 -3.7843e-15 -6.36279e-15 3.55637e-15 8.31325e-15 -6.36279e-15 -6.81346e-15 3.50152e-15 7.8741e-15 -5.69535e-15 -5.94673e-15 7.8741e-15 6.80976e-15 -5.94673e-15 -7.96483e-15 2.28207e-15 8.36858e-15 -9.52512e-16 -3.87332e-15 8.36858e-15 8.70559e-15 -3